Title
55513
    1DOPE     N    1   4.051   4.102   7.124  0.6794  0.2372 -0.1821
    1DOPE   HN1    2   3.953   4.114   7.155 -0.0507 -0.6818 -1.9686
    1DOPE   HN2    3   4.085   4.011   7.161  0.5656  1.0151  1.9716
    1DOPE   HN3    4   4.111   4.170   7.174  0.1397  0.5296  0.0610
    1DOPE   C12    5   4.048   4.124   6.981  0.2898  0.2228  0.4485
    1DOPE  H12A    6   4.132   4.065   6.939 -0.4959 -1.3771  1.0222
    1DOPE  H12B    7   4.064   4.232   6.959 -1.2866  0.7170  1.5341
    1DOPE   C11    8   3.918   4.071   6.914  0.8557  0.0724  0.9308
    1DOPE  H11A    9   3.907   3.962   6.933 -0.7122  0.2863  1.3607
    1DOPE  H11B   10   3.936   4.077   6.804 -1.2979 -0.7424  0.4769
    1DOPE     P   11   3.687   4.071   7.021 -0.1640 -0.1391 -0.1353
    1DOPE   O13   12   3.591   4.167   7.081  0.3302 -0.1858 -0.0921
    1DOPE   O14   13   3.731   3.963   7.112 -0.2049 -0.3986  0.3926
    1DOPE   O11   14   3.612   4.016   6.892  0.0940 -0.2944 -0.3234
    1DOPE   O12   15   3.805   4.145   6.956 -0.0454  0.3342  0.8357
    1DOPE    C1   16   3.592   4.106   6.786 -0.2974 -1.0249 -0.4288
    1DOPE    HA   17   3.690   4.130   6.739 -0.5085  1.2628  0.2185
    1DOPE    HB   18   3.548   4.200   6.824 -1.2349 -1.9353  0.8470
    1DOPE    C2   19   3.494   4.057   6.676 -0.5228 -0.0602  0.1301
    1DOPE    HS   20   3.388   4.051   6.708 -1.0145 -0.1805 -1.4070
    1DOPE   O21   21   3.552   3.933   6.624 -0.2476 -0.3673 -0.1716
    1DOPE   C21   22   3.457   3.832   6.605 -0.3352 -0.6557  0.6465
    1DOPE   O22   23   3.339   3.853   6.609 -0.5473 -0.3656  0.0276
    1DOPE   C22   24   3.529   3.711   6.543  1.3548  0.2959 -0.0664
    1DOPE   H2R   25   3.586   3.679   6.633  1.4682 -0.3160 -0.3531
    1DOPE   H2S   26   3.599   3.740   6.462  0.9454 -0.8013 -0.8256
    1DOPE    C3   27   3.479   4.157   6.562 -0.8943  0.2193  0.5559
    1DOPE    HX   28   3.578   4.203   6.541 -1.3627  0.0915 -2.4259
    1DOPE    HY   29   3.427   4.248   6.599  2.5992  2.4205  0.5354
    1DOPE   O31   30   3.434   4.100   6.439 -0.0734  0.2363  0.1148
    1DOPE   C31   31   3.306   4.114   6.422  0.4305 -0.4953  0.1252
    1DOPE   O32   32   3.231   4.185   6.491  0.3996  0.0660  0.2513
    1DOPE   C32   33   3.260   4.038   6.298  0.7001  0.1891  1.1541
    1DOPE   H2X   34   3.327   4.069   6.215  2.2888 -1.1866  1.8503
    1DOPE   H2Y   35   3.288   3.931   6.310  0.1562 -0.4378 -2.2045
    1DOPE   C23   36   3.437   3.599   6.489 -0.3063 -0.7384 -0.8089
    1DOPE   H3R   37   3.364   3.567   6.566  1.4218  1.2777  1.8523
    1DOPE   H3S   38   3.503   3.513   6.466  0.0823 -0.5374 -0.4692
    1DOPE   C24   39   3.366   3.627   6.355  0.0070 -0.1973 -0.7124
    1DOPE   H4R   40   3.284   3.700   6.373  1.1575  1.4173 -1.6870
    1DOPE   H4S   41   3.308   3.537   6.326 -0.0914 -0.5119  0.4217
    1DOPE   C25   42   3.458   3.676   6.241 -0.2135 -0.1175  0.0988
    1DOPE   H5R   43   3.555   3.623   6.250 -0.1053 -0.0905 -0.8169
    1DOPE   H5S   44   3.481   3.784   6.257 -0.5894 -0.0165 -0.0209
    1DOPE   C26   45   3.406   3.651   6.102 -0.5479 -0.0060  0.2225
    1DOPE   H6R   46   3.296   3.665   6.103 -0.8908 -2.3561  2.0691
    1DOPE   H6S   47   3.420   3.542   6.088  1.1787 -0.1007  2.2311
    1DOPE   C27   48   3.480   3.734   5.991  0.1853  0.4888 -0.7480
    1DOPE   H7R   49   3.467   3.842   6.016 -0.7363  0.0625  0.7108
    1DOPE   H7S   50   3.436   3.718   5.890 -1.1071  2.2621 -0.5299
    1DOPE   C28   51   3.635   3.715   5.980  0.5537  0.7957 -1.1031
    1DOPE   H8R   52   3.640   3.604   5.974 -3.6476  0.4028 -0.4795
    1DOPE   H8S   53   3.685   3.744   6.075  1.9900 -4.2531 -0.0273
    1DOPE   C29   54   3.690   3.787   5.870  0.3297 -0.0135  0.1945
    1DOPE   H9R   55   3.676   3.896   5.868 -0.9425 -0.0533 -4.1351
    1DOPE  C210   56   3.754   3.730   5.774 -0.2547  0.1772  0.1950
    1DOPE  H10R   57   3.797   3.795   5.697  0.9478 -1.5570 -0.6899
    1DOPE  C211   58   3.784   3.578   5.761 -0.1111 -0.3238 -0.3685
    1DOPE  H11R   59   3.694   3.523   5.727  0.5159 -1.0275 -0.9112
    1DOPE  H11S   60   3.844   3.522   5.836  1.0102 -0.2615 -1.1924
    1DOPE  C212   61   3.882   3.577   5.638 -0.0777  0.0526  0.4385
    1DOPE  H12R   62   3.965   3.649   5.650 -1.3125  1.4329  1.0762
    1DOPE  H12S   63   3.841   3.596   5.537 -0.4674 -2.5901  0.0270
    1DOPE  C213   64   3.949   3.439   5.634  0.0965 -0.8732 -0.8548
    1DOPE  H13R   65   3.983   3.407   5.735  3.6314  0.3617 -1.4966
    1DOPE  H13S   66   4.042   3.449   5.574  2.3935 -1.8956  2.2712
    1DOPE  C214   67   3.871   3.336   5.559  0.2170 -0.0500 -0.1727
    1DOPE  H14R   68   3.862   3.360   5.450 -1.9689 -1.6328 -0.4157
    1DOPE  H14S   69   3.770   3.320   5.603  1.0002  0.6218  1.9767
    1DOPE  C215   70   3.923   3.191   5.564 -0.1491 -0.0045  0.0305
    1DOPE  H15R   71   3.904   3.153   5.667 -0.6941  0.8400  0.2603
    1DOPE  H15S   72   4.029   3.190   5.532 -0.0477  0.0503  0.3578
    1DOPE  C216   73   3.835   3.101   5.480 -0.5816 -0.1318 -0.3754
    1DOPE  H16R   74   3.860   3.122   5.374  0.9326 -0.6923 -0.1610
    1DOPE  H16S   75   3.728   3.122   5.502 -0.3156  1.9046 -0.8501
    1DOPE  C217   76   3.874   2.955   5.510  0.0475 -0.4500  0.8760
    1DOPE  H17R   77   3.813   2.894   5.440 -0.6177  0.9649  0.1814
    1DOPE  H17S   78   3.846   2.938   5.616 -2.8881 -1.1205  0.0908
    1DOPE  C218   79   4.019   2.921   5.502 -0.4803  0.3028  0.4144
    1DOPE  H18R   80   4.081   2.985   5.569 -0.0299 -1.5890  1.8984
    1DOPE  H18S   81   4.055   2.911   5.397 -0.6445  0.2333  0.3646
    1DOPE  H18T   82   4.028   2.824   5.556 -1.1310  0.2532  0.4384
    1DOPE   C33   83   3.120   4.046   6.244 -0.2113  0.3325 -0.1566
    1DOPE   H3X   84   3.127   4.135   6.177  0.0027  0.0658 -0.4928
    1DOPE   H3Y   85   3.037   4.065   6.314  0.5771 -0.3555  0.9944
    1DOPE   C34   86   3.091   3.927   6.156  0.4655 -0.1704 -0.3058
    1DOPE   H4X   87   3.180   3.916   6.091  1.3319 -1.5237  1.0346
    1DOPE   H4Y   88   3.068   3.842   6.223 -1.9550  1.6392  1.3394
    1DOPE   C35   89   2.983   3.947   6.054 -0.3213 -0.9228 -0.4732
    1DOPE   H5X   90   2.909   3.991   6.125  1.6106 -3.0578  3.1586
    1DOPE   H5Y   91   2.947   3.843   6.033 -1.9385 -0.4861 -0.0179
    1DOPE   C36   92   3.023   4.029   5.931  0.0026  0.7419 -0.1899
    1DOPE   H6X   93   3.088   3.963   5.870 -1.9794 -0.5070 -1.0687
    1DOPE   H6Y   94   3.079   4.123   5.950  1.6029  0.0318 -1.2042
    1DOPE   C37   95   2.900   4.072   5.858 -0.8638  0.2618 -0.3609
    1DOPE   H7X   96   2.852   3.984   5.810 -0.5969  0.2184 -0.5563
    1DOPE   H7Y   97   2.825   4.110   5.930 -1.0901  1.0331 -0.9917
    1DOPE   C38   98   2.917   4.174   5.745 -0.4957  0.7335  0.4255
    1DOPE   H8X   99   2.955   4.265   5.796 -1.9327  1.3552  0.4453
    1DOPE   H8Y  100   2.818   4.189   5.697  0.3133  0.1567 -1.5220
    1DOPE   C39  101   3.026   4.130   5.644  0.1354  0.0996 -0.5426
    1DOPE   H9X  102   3.125   4.149   5.687  0.1649  1.0082 -0.9931
    1DOPE  C310  103   3.016   4.104   5.517  0.1876 -0.1842  0.1185
    1DOPE  H10X  104   3.106   4.086   5.457  0.2900 -2.0651  0.7537
    1DOPE  C311  105   2.892   4.117   5.435  0.1569  0.0790  0.1474
    1DOPE  H11X  106   2.849   4.220   5.443  0.6058  0.1180  3.2302
    1DOPE  H11Y  107   2.911   4.089   5.330 -1.0096 -0.0873 -0.0385
    1DOPE  C312  108   2.775   4.019   5.462  1.0214  0.3247  0.6144
    1DOPE  H12X  109   2.731   4.045   5.560  1.2588  1.0014  0.5490
    1DOPE  H12Y  110   2.809   3.914   5.471 -0.9396 -0.6734 -2.2933
    1DOPE  C313  111   2.645   4.023   5.371 -0.2975  0.1753  0.2574
    1DOPE  H13X  112   2.573   3.962   5.430 -0.7035 -0.6901 -1.0609
    1DOPE  H13Y  113   2.614   4.129   5.368 -0.8204  0.0484 -3.1933
    1DOPE  C314  114   2.657   3.970   5.223  0.1623 -0.3369  0.1819
    1DOPE  H14X  115   2.703   3.869   5.224  3.1107  0.8523 -1.2254
    1DOPE  H14Y  116   2.720   4.037   5.160 -0.3333 -0.5335 -0.5346
    1DOPE  C315  117   2.516   3.957   5.154 -0.3599 -0.4682  0.4320
    1DOPE  H15X  118   2.462   3.890   5.223  0.8026 -0.7470  1.0942
    1DOPE  H15Y  119   2.528   3.910   5.053  0.5323  1.5338 -0.4528
    1DOPE  C316  120   2.438   4.089   5.142  0.3611 -0.2763 -0.0799
    1DOPE  H16X  121   2.504   4.165   5.094  2.7015 -1.0881  1.6835
    1DOPE  H16Y  122   2.409   4.132   5.240  0.3721  0.6705 -0.4761
    1DOPE  C317  123   2.315   4.069   5.051 -0.1392  0.2921 -0.5072
    1DOPE  H17X  124   2.348   4.028   4.953  0.1154  1.7798 -1.0552
    1DOPE  H17Y  125   2.253   3.991   5.101  0.8482  0.1018  0.4736
    1DOPE  C318  126   2.233   4.205   5.019 -0.0700  0.1550 -0.1135
    1DOPE  H18X  127   2.154   4.206   4.941  1.3418  2.2439 -1.6329
    1DOPE  H18Y  128   2.184   4.225   5.117  2.8189 -1.5359  1.8320
    1DOPE  H18Z  129   2.302   4.290   5.002 -1.0815  1.1008  0.3732
    2DOPE     N  130   3.616   4.430   7.114 -0.3140 -0.4227  0.0788
    2DOPE   HN1  131   3.517   4.442   7.143 -0.0930  0.8636  0.3579
    2DOPE   HN2  132   3.637   4.330   7.137  0.3583 -0.2587  0.2080
    2DOPE   HN3  133   3.680   4.500   7.158 -1.0362  0.9732 -1.0197
    2DOPE   C12  134   3.634   4.445   6.964 -0.1128  0.3018  0.7962
    2DOPE  H12A  135   3.535   4.417   6.923  0.2800 -0.0571  0.0811
    2DOPE  H12B  136   3.714   4.376   6.930  0.6304  2.0557 -1.2136
    2DOPE   C11  137   3.682   4.585   6.932  0.0365 -0.2895 -0.4030
    2DOPE  H11A  138   3.605   4.662   6.956  0.6587 -0.0692  0.9853
    2DOPE  H11B  139   3.696   4.584   6.821 -0.1153 -0.3411 -0.4211
    2DOPE     P  140   3.874   4.747   6.998 -0.2291  0.3317 -0.2966
    2DOPE   O13  141   3.963   4.747   7.110 -0.0405  0.0309 -0.3841
    2DOPE   O14  142   3.774   4.855   6.990  0.0680 -0.3732 -0.4300
    2DOPE   O11  143   3.949   4.746   6.863 -0.4539  0.0156 -0.2643
    2DOPE   O12  144   3.804   4.609   6.995  0.0896 -0.1986 -0.3235
    2DOPE    C1  145   4.037   4.645   6.832 -0.2785 -0.2502  0.4499
    2DOPE    HA  146   4.057   4.654   6.723  1.7337  1.2577  0.8821
    2DOPE    HB  147   4.008   4.540   6.853 -4.0896  0.2609 -1.3781
    2DOPE    C2  148   4.176   4.672   6.899  0.2490  0.1817  0.0251
    2DOPE    HS  149   4.160   4.660   7.009  2.0753 -0.7359  0.2238
    2DOPE   O21  150   4.217   4.811   6.878 -0.2944  0.0319 -0.5291
    2DOPE   C21  151   4.313   4.853   6.953  0.0020 -0.1607  0.2665
    2DOPE   O22  152   4.355   4.795   7.051 -0.2538 -0.4175 -0.2975
    2DOPE   C22  153   4.363   4.990   6.895 -0.6167  0.7575  0.1914
    2DOPE   H2R  154   4.444   5.044   6.948  1.4085 -0.1578 -1.7963
    2DOPE   H2S  155   4.274   5.054   6.882 -1.2138  0.3803  2.0516
    2DOPE    C3  156   4.288   4.572   6.856 -0.3086 -0.4501  0.4442
    2DOPE    HX  157   4.253   4.473   6.891 -0.3361  0.5545  3.5072
    2DOPE    HY  158   4.378   4.598   6.916 -0.3452  0.9559 -0.0720
    2DOPE   O31  159   4.324   4.586   6.716 -0.8649 -0.2329 -0.0171
    2DOPE   C31  160   4.320   4.476   6.648 -0.1841  0.3220  0.6644
    2DOPE   O32  161   4.288   4.367   6.690  0.2666  0.3484 -0.2440
    2DOPE   C32  162   4.347   4.511   6.501  0.0159  0.2869  0.5777
    2DOPE   H2X  163   4.250   4.511   6.447  0.1695 -0.3379  0.2960
    2DOPE   H2Y  164   4.375   4.617   6.485 -0.3438  0.3177  0.1277
    2DOPE   C23  165   4.417   4.961   6.749 -0.1884  0.7945  0.5069
    2DOPE   H3R  166   4.471   5.043   6.698  0.8331 -0.1952 -0.0576
    2DOPE   H3S  167   4.333   4.940   6.680 -1.5440  3.1135  1.3301
    2DOPE   C24  168   4.532   4.860   6.756 -0.1002  0.0780 -0.4545
    2DOPE   H4R  169   4.508   4.766   6.811 -1.5740  2.2428  2.9571
    2DOPE   H4S  170   4.617   4.903   6.814  3.4759 -3.0671 -2.8938
    2DOPE   C25  171   4.581   4.830   6.615  0.3828  0.0132  0.3391
    2DOPE   H5R  172   4.640   4.918   6.581 -1.2423  1.3313  0.8200
    2DOPE   H5S  173   4.496   4.810   6.547  0.1571 -0.5605  0.7856
    2DOPE   C26  174   4.694   4.722   6.609  0.3537  0.4123  0.5071
    2DOPE   H6R  175   4.652   4.636   6.663 -2.3984 -0.0618 -2.1166
    2DOPE   H6S  176   4.782   4.766   6.662 -0.4499 -0.7391  2.9320
    2DOPE   C27  177   4.744   4.669   6.466  0.4104 -0.1912  0.1234
    2DOPE   H7R  178   4.657   4.676   6.398 -0.9215  4.2734  1.8966
    2DOPE   H7S  179   4.791   4.569   6.474 -2.5131 -1.6114  0.5617
    2DOPE   C28  180   4.860   4.767   6.422  0.2499  0.1977  0.8431
    2DOPE   H8R  181   4.936   4.759   6.503  1.4248  1.6271 -0.0622
    2DOPE   H8S  182   4.813   4.868   6.425 -0.8400 -0.2694  0.2248
    2DOPE   C29  183   4.893   4.724   6.285  0.4591  0.7508 -0.0876
    2DOPE   H9R  184   4.961   4.637   6.288  0.6154  0.8915  1.9428
    2DOPE  C210  185   4.879   4.801   6.178 -0.1539 -0.0201 -0.4721
    2DOPE  H10R  186   4.923   4.761   6.085 -3.1275  1.7071 -2.8335
    2DOPE  C211  187   4.831   4.941   6.167  0.7086  0.1354 -0.1967
    2DOPE  H11R  188   4.916   5.012   6.152 -0.1128  1.2907  0.4934
    2DOPE  H11S  189   4.775   4.974   6.257  0.0405 -1.6259  0.0633
    2DOPE  C212  190   4.731   4.955   6.045  0.2189  0.2713  0.3283
    2DOPE  H12R  191   4.698   5.061   6.044 -1.5571 -0.2668  0.0798
    2DOPE  H12S  192   4.636   4.899   6.056  0.8251 -0.6263  1.2132
    2DOPE  C213  193   4.798   4.925   5.909  0.2936  0.0939  0.0472
    2DOPE  H13R  194   4.783   4.818   5.883 -1.3015  0.4263 -0.5358
    2DOPE  H13S  195   4.907   4.943   5.917  0.4678 -0.7756 -0.3024
    2DOPE  C214  196   4.740   5.000   5.786  0.1390 -0.4885  0.1283
    2DOPE  H14R  197   4.729   5.110   5.801 -2.6680 -0.9469  2.0614
    2DOPE  H14S  198   4.638   4.963   5.762 -0.5671  1.3283  0.1334
    2DOPE  C215  199   4.832   4.957   5.670 -0.2328 -0.0084 -0.3789
    2DOPE  H15R  200   4.800   4.851   5.658  3.4786 -1.2451 -0.5498
    2DOPE  H15S  201   4.942   4.962   5.685 -0.0011  1.2336 -2.2095
    2DOPE  C216  202   4.797   5.023   5.538  0.1777  0.2155 -0.5556
    2DOPE  H16R  203   4.691   5.019   5.507 -0.5920  1.7374  1.6318
    2DOPE  H16S  204   4.855   4.978   5.454  1.2917 -0.0325  0.3173
    2DOPE  C217  205   4.826   5.169   5.540  0.0931  0.1578 -0.7401
    2DOPE  H17R  206   4.923   5.191   5.590 -0.3307  1.3045 -0.3761
    2DOPE  H17S  207   4.757   5.226   5.607  0.2261 -0.2687 -0.2312
    2DOPE  C218  208   4.828   5.241   5.405  0.8162  0.3178  0.3593
    2DOPE  H18R  209   4.896   5.198   5.328  0.7494 -0.7041  0.8591
    2DOPE  H18S  210   4.848   5.350   5.413  0.6693  0.2001  2.8946
    2DOPE  H18T  211   4.728   5.222   5.360  1.4207 -4.1243  0.5137
    2DOPE   C33  212   4.433   4.410   6.423 -0.0634  0.2096  0.1847
    2DOPE   H3X  213   4.399   4.309   6.454 -1.3382 -0.2887 -2.5887
    2DOPE   H3Y  214   4.537   4.435   6.454 -0.2350 -0.3818  1.2984
    2DOPE   C34  215   4.416   4.399   6.268 -0.4870  0.0501  0.1257
    2DOPE   H4X  216   4.449   4.495   6.223 -1.5213 -0.4959 -1.9184
    2DOPE   H4Y  217   4.487   4.330   6.219 -1.6859 -0.1474 -1.4159
    2DOPE   C35  218   4.281   4.363   6.214  0.1740 -0.2003  0.3944
    2DOPE   H5X  219   4.221   4.454   6.196  1.5691  1.0250  1.6004
    2DOPE   H5Y  220   4.218   4.297   6.277 -0.4770 -1.7639 -1.8109
    2DOPE   C36  221   4.302   4.284   6.084 -0.6534  0.0838  0.4858
    2DOPE   H6X  222   4.383   4.343   6.036 -0.1189  1.9771  3.4467
    2DOPE   H6Y  223   4.207   4.296   6.026 -0.7777  0.2953  0.7300
    2DOPE   C37  224   4.346   4.137   6.101 -0.0611 -0.6066 -0.5455
    2DOPE   H7X  225   4.427   4.133   6.177  1.5940  1.4925 -2.0916
    2DOPE   H7Y  226   4.262   4.070   6.130  0.5465 -1.1664 -0.0583
    2DOPE   C38  227   4.406   4.082   5.969  0.3354 -0.5927  0.5719
    2DOPE   H8X  228   4.500   4.139   5.954  0.0883  0.2888  2.1763
    2DOPE   H8Y  229   4.332   4.100   5.888  1.9226 -0.7394 -0.9692
    2DOPE   C39  230   4.428   3.937   5.978 -0.6412 -0.9378 -0.4047
    2DOPE   H9X  231   4.379   3.898   6.068 -3.7659 -0.3887 -1.7563
    2DOPE  C310  232   4.507   3.864   5.904 -0.6440  1.3675  0.0463
    2DOPE  H10X  233   4.496   3.756   5.926  3.5895  0.8311  0.4711
    2DOPE  C311  234   4.594   3.903   5.789  0.4283  0.0000 -0.8526
    2DOPE  H11X  235   4.553   3.883   5.688 -1.5244 -1.7179  0.2208
    2DOPE  H11Y  236   4.635   4.006   5.805 -0.5505  0.3615 -0.6150
    2DOPE  C312  237   4.720   3.814   5.782 -0.7891 -0.1427 -0.2932
    2DOPE  H12X  238   4.769   3.820   5.881 -2.8413 -1.1835  0.8374
    2DOPE  H12Y  239   4.783   3.865   5.706  2.0308  2.1877  3.2443
    2DOPE  C313  240   4.715   3.666   5.755  0.3858  0.0730  0.1931
    2DOPE  H13X  241   4.679   3.606   5.841  0.3876 -0.6908 -0.3247
    2DOPE  H13Y  242   4.651   3.648   5.666  0.4522 -0.2420  0.2072
    2DOPE  C314  243   4.847   3.613   5.718 -0.1318 -0.0663  0.3901
    2DOPE  H14X  244   4.917   3.642   5.799 -1.0111 -0.6037  1.3790
    2DOPE  H14Y  245   4.879   3.676   5.632 -1.2318  0.7625  0.5570
    2DOPE  C315  246   4.854   3.471   5.674  0.5914  0.3418 -0.1098
    2DOPE  H15X  247   4.950   3.464   5.619  0.1425 -2.6605 -0.6910
    2DOPE  H15Y  248   4.776   3.448   5.598  0.5995 -1.0961  0.2744
    2DOPE  C316  249   4.854   3.378   5.796  0.8890 -0.2573  0.4382
    2DOPE  H16X  250   4.764   3.389   5.861  0.8237 -1.5858  0.6002
    2DOPE  H16Y  251   4.946   3.406   5.852  0.1134 -0.6390  1.9715
    2DOPE  C317  252   4.858   3.224   5.757  0.2477  0.0535 -0.0245
    2DOPE  H17X  253   4.864   3.168   5.852 -0.0026  1.9586  1.1784
    2DOPE  H17Y  254   4.765   3.190   5.706  0.3234  1.0198 -0.8559
    2DOPE  C318  255   4.973   3.185   5.661  0.9784 -0.4264  0.6672
    2DOPE  H18X  256   4.959   3.227   5.559  2.2635  0.7423  0.9506
    2DOPE  H18Y  257   5.065   3.235   5.697  0.6637  1.0494 -0.4651
    2DOPE  H18Z  258   4.987   3.076   5.643  0.7897 -0.4112  0.4088
    3DOPE     N  259   2.482   5.651   7.139  0.4097 -0.0295 -0.2945
    3DOPE   HN1  260   2.471   5.748   7.176 -1.0391  0.4163 -1.8008
    3DOPE   HN2  261   2.392   5.603   7.155  0.0006  1.3529  2.1483
    3DOPE   HN3  262   2.556   5.600   7.191 -0.1364  0.6116  1.1761
    3DOPE   C12  263   2.506   5.650   6.986  0.9964 -0.2221 -0.0164
    3DOPE  H12A  264   2.476   5.548   6.955 -0.9994 -0.0949  1.3009
    3DOPE  H12B  265   2.614   5.673   6.969  0.7879  0.6360 -0.2495
    3DOPE   C11  266   2.434   5.772   6.934 -0.5705 -0.7443  0.0691
    3DOPE  H11A  267   2.328   5.763   6.968 -1.0132 -0.4914 -1.2003
    3DOPE  H11B  268   2.435   5.770   6.823  1.6602  1.1782 -0.0064
    3DOPE     P  269   2.553   6.006   6.895 -0.5230 -0.4118 -0.3282
    3DOPE   O13  270   2.641   6.092   6.975  0.7186  0.0873  0.3307
    3DOPE   O14  271   2.442   6.071   6.823 -0.1146 -0.0113 -0.7061
    3DOPE   O11  272   2.643   5.922   6.802  0.1159 -0.6311 -0.2871
    3DOPE   O12  273   2.489   5.895   6.987 -0.4449 -0.2921 -0.1196
    3DOPE    C1  274   2.682   5.976   6.676 -0.1387  0.1556  0.3339
    3DOPE    HA  275   2.783   6.017   6.695  1.0690 -2.3205 -0.2991
    3DOPE    HB  276   2.609   6.051   6.639  1.4086  2.2055  1.2490
    3DOPE    C2  277   2.684   5.871   6.567  0.5609 -0.6144 -0.3014
    3DOPE    HS  278   2.580   5.854   6.529 -0.3887 -0.8392  2.2272
    3DOPE   O21  279   2.736   5.743   6.618 -0.1251  0.5295  0.3201
    3DOPE   C21  280   2.685   5.635   6.563  0.9794  0.9202 -0.0543
    3DOPE   O22  281   2.579   5.625   6.502 -0.3224  0.2804 -0.2395
    3DOPE   C22  282   2.773   5.518   6.579  0.2279  0.1076 -0.3452
    3DOPE   H2R  283   2.740   5.465   6.670 -0.0941 -1.0992 -1.1450
    3DOPE   H2S  284   2.877   5.554   6.592  1.4701 -2.5009 -2.2086
    3DOPE    C3  285   2.779   5.919   6.456  0.0957 -0.2632  0.1599
    3DOPE    HX  286   2.877   5.909   6.507  0.7642  0.8045 -0.8636
    3DOPE    HY  287   2.763   6.026   6.434 -4.6264 -0.9064 -0.6226
    3DOPE   O31  288   2.792   5.828   6.349 -0.3006 -0.0796  0.4270
    3DOPE   C31  289   2.679   5.828   6.268 -0.3040  0.3541 -0.3651
    3DOPE   O32  290   2.593   5.914   6.270 -0.7637  0.1617  0.0383
    3DOPE   C32  291   2.693   5.712   6.177  0.5567 -0.7215 -0.2768
    3DOPE   H2X  292   2.705   5.627   6.247  1.0392  0.7869  1.5402
    3DOPE   H2Y  293   2.604   5.700   6.112 -1.0755 -1.4354  2.0006
    3DOPE   C23  294   2.780   5.418   6.463  0.5420  0.5148 -0.0591
    3DOPE   H3R  295   2.819   5.465   6.370  1.0026 -0.8079 -0.5492
    3DOPE   H3S  296   2.675   5.388   6.440 -0.6470  2.7219  1.9378
    3DOPE   C24  297   2.855   5.292   6.491 -0.0449  0.2171 -0.3267
    3DOPE   H4R  298   2.816   5.211   6.426  3.8544 -1.0885 -1.3118
    3DOPE   H4S  299   2.842   5.278   6.600  1.2648 -2.2279 -0.4037
    3DOPE   C25  300   3.003   5.294   6.450 -0.6780 -0.0705 -0.0944
    3DOPE   H5R  301   3.067   5.359   6.514 -0.2557 -0.2528 -0.3227
    3DOPE   H5S  302   3.015   5.348   6.353 -1.3478 -1.8081 -1.1982
    3DOPE   C26  303   3.065   5.151   6.430  0.2972 -0.0248  0.8772
    3DOPE   H6R  304   3.039   5.108   6.332  3.1171 -4.0025  1.6192
    3DOPE   H6S  305   3.019   5.097   6.516  0.2105 -0.0791  0.7952
    3DOPE   C27  306   3.217   5.150   6.446  0.2701 -0.0517  0.9630
    3DOPE   H7R  307   3.241   5.043   6.463  1.9526 -0.1782 -1.5908
    3DOPE   H7S  308   3.242   5.216   6.532  0.1819  1.8362 -0.4007
    3DOPE   C28  309   3.292   5.197   6.314  0.2902 -0.6543 -0.2043
    3DOPE   H8R  310   3.239   5.291   6.289  1.2708 -0.1418 -0.3940
    3DOPE   H8S  311   3.280   5.130   6.226 -1.6868 -1.7656  0.8486
    3DOPE   C29  312   3.434   5.209   6.371  0.3169 -0.1261 -0.0296
    3DOPE   H9R  313   3.436   5.274   6.460 -1.9052  0.9361 -0.6789
    3DOPE  C210  314   3.547   5.160   6.324 -0.0638 -0.5257 -0.1670
    3DOPE  H10R  315   3.637   5.182   6.384 -1.2071 -0.9375  1.7962
    3DOPE  C211  316   3.551   5.080   6.200  0.2128  0.7095 -0.4544
    3DOPE  H11R  317   3.636   5.115   6.137  1.5100 -0.6458  0.4622
    3DOPE  H11S  318   3.468   5.079   6.127  0.7128 -0.3198 -1.0285
    3DOPE  C212  319   3.581   4.930   6.233 -0.3812 -0.0673  0.0435
    3DOPE  H12R  320   3.493   4.904   6.296 -0.1590  1.3445  0.9807
    3DOPE  H12S  321   3.677   4.918   6.287 -0.6385  1.7707  0.9697
    3DOPE  C213  322   3.584   4.849   6.106 -0.4300 -0.2048  0.4155
    3DOPE  H13R  323   3.528   4.902   6.026  0.7141  0.3293 -0.0517
    3DOPE  H13S  324   3.537   4.752   6.131  0.0404 -0.3251  0.8498
    3DOPE  C214  325   3.729   4.828   6.058 -0.3906 -0.4878  0.4786
    3DOPE  H14R  326   3.783   4.783   6.145 -1.2704 -0.1260  1.2235
    3DOPE  H14S  327   3.776   4.928   6.046 -0.1591 -0.9285 -3.2919
    3DOPE  C215  328   3.753   4.741   5.932  0.8549 -0.3641 -0.2192
    3DOPE  H15R  329   3.861   4.742   5.909  0.6658  3.1311 -1.5911
    3DOPE  H15S  330   3.710   4.788   5.840 -1.4583  0.0014  0.9798
    3DOPE  C216  331   3.686   4.604   5.935  0.2882 -0.0253 -0.3553
    3DOPE  H16R  332   3.576   4.616   5.926  0.3419  0.9434  0.1320
    3DOPE  H16S  333   3.708   4.557   6.033 -2.4570 -1.2133 -0.2137
    3DOPE  C217  334   3.732   4.505   5.822 -0.9184 -0.2245 -0.7953
    3DOPE  H17R  335   3.719   4.560   5.726 -1.0003  0.7293 -0.2516
    3DOPE  H17S  336   3.659   4.421   5.823 -1.6951  0.4439  0.1307
    3DOPE  C218  337   3.880   4.461   5.829  0.2641 -0.0551  0.0357
    3DOPE  H18R  338   3.893   4.355   5.795 -2.5994 -1.2775  2.3593
    3DOPE  H18S  339   3.912   4.460   5.935 -0.1407  1.2623  0.1773
    3DOPE  H18T  340   3.951   4.523   5.770  0.3997 -0.4815 -0.2611
    3DOPE   C33  341   2.814   5.714   6.075 -0.1463  0.1416 -0.8919
    3DOPE   H3X  342   2.813   5.618   6.018  2.9499 -0.0527 -0.8130
    3DOPE   H3Y  343   2.911   5.736   6.125 -0.6147  1.8903 -0.7182
    3DOPE   C34  344   2.800   5.802   5.947  0.3110 -0.5016  0.3326
    3DOPE   H4X  345   2.792   5.910   5.971 -1.1938 -1.0130  2.4676
    3DOPE   H4Y  346   2.894   5.791   5.889  2.0563  0.0841  2.8809
    3DOPE   C35  347   2.682   5.767   5.855 -0.7850 -0.2789 -0.8174
    3DOPE   H5X  348   2.609   5.844   5.888 -1.4810 -0.6863 -1.3868
    3DOPE   H5Y  349   2.636   5.667   5.866 -1.9974  0.3699  0.3524
    3DOPE   C36  350   2.697   5.802   5.705  0.3261 -0.1639  0.3813
    3DOPE   H6X  351   2.707   5.912   5.700 -0.0080 -0.0505  1.8887
    3DOPE   H6Y  352   2.604   5.782   5.648  0.1463  0.0976  0.5809
    3DOPE   C37  353   2.817   5.744   5.628 -0.1551  0.1147 -0.1930
    3DOPE   H7X  354   2.796   5.766   5.521  2.4557 -0.9868 -1.0074
    3DOPE   H7Y  355   2.908   5.803   5.654  1.9764 -3.8160  2.2870
    3DOPE   C38  356   2.852   5.599   5.653 -0.3101 -0.4292 -0.3266
    3DOPE   H8X  357   2.867   5.573   5.760 -0.5086  3.2803  0.7253
    3DOPE   H8Y  358   2.951   5.578   5.607  0.9250 -3.5426  3.1503
    3DOPE   C39  359   2.752   5.518   5.580  0.0951 -0.2983  0.2400
    3DOPE   H9X  360   2.648   5.551   5.596 -0.3000 -1.1309 -0.4614
    3DOPE  C310  361   2.773   5.412   5.500  0.9161 -0.1829 -0.6958
    3DOPE  H10X  362   2.691   5.352   5.459  1.0549 -0.1727 -0.9942
    3DOPE  C311  363   2.906   5.356   5.471  0.0027 -0.0308 -0.9654
    3DOPE  H11X  364   2.974   5.429   5.422  0.2382  0.0302 -0.5472
    3DOPE  H11Y  365   2.950   5.318   5.565 -1.9864  0.4574  0.2044
    3DOPE  C312  366   2.897   5.225   5.389 -0.0715 -0.0925  1.0084
    3DOPE  H12X  367   2.819   5.153   5.422 -0.9943  0.5698  0.3008
    3DOPE  H12Y  368   2.999   5.181   5.396  0.0918 -0.1656 -1.0300
    3DOPE  C313  369   2.878   5.248   5.237  0.9743 -0.4449 -0.4043
    3DOPE  H13X  370   2.771   5.273   5.220  0.5509 -1.7961  0.1833
    3DOPE  H13Y  371   2.933   5.342   5.212  1.4230 -1.0732 -1.8834
    3DOPE  C314  372   2.927   5.134   5.158 -0.2208  0.1221 -0.1540
    3DOPE  H14X  373   3.036   5.116   5.175 -0.3082 -0.3908 -0.1137
    3DOPE  H14Y  374   2.906   5.164   5.053 -1.8107  1.5328  0.5427
    3DOPE  C315  375   2.848   5.003   5.197 -0.5592 -0.2101 -0.6316
    3DOPE  H15X  376   2.740   5.023   5.181 -0.2385 -0.0178 -2.8342
    3DOPE  H15Y  377   2.875   4.968   5.299 -0.8270 -1.3663 -0.9412
    3DOPE  C316  378   2.878   4.903   5.086 -0.1939 -0.2278 -0.9706
    3DOPE  H16X  379   2.985   4.873   5.095  0.1506  1.3893  0.8760
    3DOPE  H16Y  380   2.859   4.960   4.993 -0.9552  0.2826 -0.5139
    3DOPE  C317  381   2.806   4.771   5.088  0.0177  0.1072  0.5461
    3DOPE  H17X  382   2.865   4.703   5.153 -0.9654 -1.2675  0.0623
    3DOPE  H17Y  383   2.704   4.797   5.122  1.0109  1.5928  2.5059
    3DOPE  C318  384   2.781   4.713   4.947 -0.4535 -0.1090 -0.2748
    3DOPE  H18X  385   2.765   4.800   4.880 -0.4621  0.8834  0.9803
    3DOPE  H18Y  386   2.879   4.668   4.918 -0.1298  1.2516 -1.3711
    3DOPE  H18Z  387   2.705   4.632   4.942 -0.8294  0.2519 -0.4122
    4DOPE     N  388   3.218   2.648   7.091 -0.8788  0.1040  0.5291
    4DOPE   HN1  389   3.159   2.619   7.011  0.3926  1.7201 -1.0822
    4DOPE   HN2  390   3.166   2.639   7.181  3.0951 -2.0207  2.9121
    4DOPE   HN3  391   3.246   2.746   7.074 -1.1529  0.1305  0.2333
    4DOPE   C12  392   3.335   2.557   7.103 -0.3555  0.3999  0.2421
    4DOPE  H12A  393   3.389   2.554   7.006  2.9738 -1.2998  1.9881
    4DOPE  H12B  394   3.287   2.460   7.127 -1.8367  1.2659  0.8547
    4DOPE   C11  395   3.435   2.597   7.220  0.2597  0.0388  0.5507
    4DOPE  H11A  396   3.486   2.510   7.268 -1.2228 -1.5199 -0.5896
    4DOPE  H11B  397   3.374   2.641   7.302 -0.3679 -0.1715  0.1963
    4DOPE     P  398   3.619   2.772   7.258  0.2622  0.4643 -0.0980
    4DOPE   O13  399   3.585   2.739   7.401 -0.1777 -0.0105 -0.2237
    4DOPE   O14  400   3.603   2.913   7.217  0.2569 -0.5825  0.0391
    4DOPE   O11  401   3.760   2.712   7.218  0.3519  1.2044  0.1407
    4DOPE   O12  402   3.533   2.692   7.161  0.5446 -0.0747  0.1206
    4DOPE    C1  403   3.780   2.569   7.222 -0.2879  0.2138  0.3090
    4DOPE    HA  404   3.698   2.506   7.179 -0.9089 -0.5572  2.4956
    4DOPE    HB  405   3.785   2.533   7.327 -0.3301  0.2380  0.3196
    4DOPE    C2  406   3.917   2.527   7.158  0.3582 -0.4905  0.5721
    4DOPE    HS  407   3.989   2.609   7.178 -0.0471  0.6460 -2.1982
    4DOPE   O21  408   3.905   2.492   7.018 -0.3435 -0.5108  0.2913
    4DOPE   C21  409   3.870   2.603   6.953  0.1462  0.1258  0.5521
    4DOPE   O22  410   3.872   2.719   6.989  0.1360  0.4662 -0.5895
    4DOPE   C22  411   3.853   2.575   6.805  0.0511 -0.2606  0.2584
    4DOPE   H2R  412   3.843   2.466   6.787 -1.8785 -0.0202 -0.3690
    4DOPE   H2S  413   3.937   2.611   6.743 -1.6249  0.0631 -1.9273
    4DOPE    C3  414   3.975   2.398   7.225  0.7958  0.1123 -1.0172
    4DOPE    HX  415   3.911   2.315   7.188 -0.0035 -0.5818  1.7326
    4DOPE    HY  416   3.957   2.401   7.334 -0.4093  0.1045 -1.2057
    4DOPE   O31  417   4.116   2.376   7.196  0.1968 -0.1620  0.2313
    4DOPE   C31  418   4.148   2.298   7.095 -0.5262 -0.1955  0.1991
    4DOPE   O32  419   4.066   2.216   7.049 -0.2179 -0.0470  0.5445
    4DOPE   C32  420   4.299   2.310   7.065 -1.1673 -0.1019  0.3058
    4DOPE   H2X  421   4.348   2.329   7.162 -0.0545 -1.6446  0.0880
    4DOPE   H2Y  422   4.347   2.215   7.032  0.6212 -0.5877  3.8636
    4DOPE   C23  423   3.727   2.654   6.743  0.2971  0.4107  0.5476
    4DOPE   H3R  424   3.744   2.761   6.767 -0.0441  0.6243 -0.1203
    4DOPE   H3S  425   3.637   2.636   6.805 -1.1428  0.0779 -1.5170
    4DOPE   C24  426   3.695   2.635   6.591  0.2162 -0.0737 -0.0568
    4DOPE   H4R  427   3.673   2.529   6.567  0.7692  0.1568 -1.7121
    4DOPE   H4S  428   3.785   2.667   6.536  0.4412  0.2989  0.5248
    4DOPE   C25  429   3.574   2.728   6.550 -0.0293 -0.0114 -0.6060
    4DOPE   H5R  430   3.597   2.761   6.446  0.5712 -0.9097 -0.7722
    4DOPE   H5S  431   3.573   2.814   6.620 -0.8954  0.4644 -1.1768
    4DOPE   C26  432   3.444   2.651   6.552 -0.1560  0.7449 -0.0650
    4DOPE   H6R  433   3.444   2.576   6.635 -3.4233 -0.2758 -0.8402
    4DOPE   H6S  434   3.444   2.590   6.459 -0.1066 -0.2386  0.5605
    4DOPE   C27  435   3.313   2.722   6.568  0.4404 -0.2559  0.4113
    4DOPE   H7R  436   3.324   2.804   6.494  2.7189 -1.3417 -0.5543
    4DOPE   H7S  437   3.310   2.770   6.668 -0.1600 -0.0857  0.3182
    4DOPE   C28  438   3.185   2.639   6.542  0.1116  0.3958 -0.1140
    4DOPE   H8R  439   3.186   2.546   6.603 -0.4538  0.8701  0.6356
    4DOPE   H8S  440   3.184   2.610   6.435 -0.1055  0.6217 -0.1741
    4DOPE   C29  441   3.059   2.717   6.575 -0.2494 -0.0046  0.3745
    4DOPE   H9R  442   3.027   2.705   6.680 -1.3074 -1.5416 -0.0938
    4DOPE  C210  443   2.988   2.800   6.498 -1.0040 -0.0005  0.7660
    4DOPE  H10R  444   2.915   2.869   6.545  1.1468  1.0263  2.8013
    4DOPE  C211  445   3.015   2.833   6.352 -0.3705 -0.0420  0.4212
    4DOPE  H11R  446   2.920   2.823   6.295 -0.2585  0.7959  0.0766
    4DOPE  H11S  447   3.087   2.769   6.298 -1.2559  0.4146 -1.3955
    4DOPE  C212  448   3.052   2.979   6.320 -0.4212  0.4524  0.3278
    4DOPE  H12R  449   3.069   2.985   6.210 -2.0531 -0.6640 -0.0152
    4DOPE  H12S  450   3.153   3.006   6.357  0.1143  0.4353 -1.0787
    4DOPE  C213  451   2.957   3.087   6.356 -0.5975  0.0776  0.5529
    4DOPE  H13R  452   2.996   3.190   6.341 -1.9162  0.5577  0.2423
    4DOPE  H13S  453   2.920   3.080   6.461 -1.5294  2.2712  0.4216
    4DOPE  C214  454   2.821   3.095   6.269  0.0270 -0.3032 -0.3381
    4DOPE  H14R  455   2.762   3.184   6.298 -0.0781 -0.4057 -0.2340
    4DOPE  H14S  456   2.756   3.009   6.297  0.0950 -0.8596 -1.7862
    4DOPE  C215  457   2.846   3.090   6.120  0.9103  0.4320  0.2522
    4DOPE  H15R  458   2.871   2.989   6.081  1.5607  1.6029 -2.6666
    4DOPE  H15S  459   2.926   3.158   6.083 -1.7437  1.9556 -3.2849
    4DOPE  C216  460   2.719   3.137   6.045 -0.2063  0.0639  0.2882
    4DOPE  H16R  461   2.706   3.244   6.074  1.0231 -0.1587  1.8146
    4DOPE  H16S  462   2.631   3.079   6.079  0.6914 -1.9842 -0.7657
    4DOPE  C217  463   2.737   3.131   5.891  0.4063  0.1302 -0.1520
    4DOPE  H17R  464   2.747   3.031   5.844  2.3082  2.0803 -4.5429
    4DOPE  H17S  465   2.841   3.169   5.884  0.3115  0.4429  0.0843
    4DOPE  C218  466   2.641   3.219   5.801  1.1541 -0.0269  0.1501
    4DOPE  H18R  467   2.656   3.328   5.821 -0.7333  0.8703 -2.7480
    4DOPE  H18S  468   2.539   3.180   5.820  1.4119 -0.2810  1.0861
    4DOPE  H18T  469   2.670   3.196   5.697  1.1141 -1.1838  0.3844
    4DOPE   C33  470   4.322   2.434   6.982  0.0543  0.5785 -0.2347
    4DOPE   H3X  471   4.433   2.439   6.982  0.1208 -0.7752  0.4706
    4DOPE   H3Y  472   4.272   2.522   7.029  0.0361  0.8791 -0.7969
    4DOPE   C34  473   4.267   2.429   6.840  0.2163  0.1677 -1.0578
    4DOPE   H4X  474   4.304   2.335   6.793  1.5254  0.2632 -0.2570
    4DOPE   H4Y  475   4.156   2.427   6.844  0.2125  1.3738 -0.1794
    4DOPE   C35  476   4.321   2.559   6.767 -0.2003 -0.0689 -0.0541
    4DOPE   H5X  477   4.429   2.573   6.789 -0.3541  1.1267 -0.0053
    4DOPE   H5Y  478   4.265   2.640   6.818 -0.9471 -0.6386  0.0461
    4DOPE   C36  479   4.298   2.546   6.615 -0.1246 -0.3242 -0.0445
    4DOPE   H6X  480   4.193   2.509   6.606 -0.9226  1.6951  0.3489
    4DOPE   H6Y  481   4.370   2.470   6.579  0.8915  1.0937 -1.1235
    4DOPE   C37  482   4.313   2.677   6.538 -0.1284  0.8421 -0.2291
    4DOPE   H7X  483   4.233   2.751   6.557 -1.0197  0.2017 -1.3164
    4DOPE   H7Y  484   4.408   2.726   6.570 -0.6272  0.5220  1.8760
    4DOPE   C38  485   4.300   2.657   6.393  0.0544  0.0955  1.3876
    4DOPE   H8X  486   4.382   2.594   6.352  1.1687  1.6085  1.1997
    4DOPE   H8Y  487   4.318   2.748   6.333  0.3599 -1.1964 -0.5887
    4DOPE   C39  488   4.180   2.579   6.354  1.3149  0.1141  0.7521
    4DOPE   H9X  489   4.138   2.499   6.417 -0.4898 -0.8024 -1.4390
    4DOPE  C310  490   4.087   2.622   6.263 -0.5357  0.3389 -0.4538
    4DOPE  H10X  491   3.996   2.560   6.250 -1.0395  0.7918  0.7489
    4DOPE  C311  492   4.083   2.742   6.183 -0.1943 -0.3594  0.1109
    4DOPE  H11X  493   3.992   2.804   6.192 -0.7226 -0.5511 -2.8616
    4DOPE  H11Y  494   4.171   2.808   6.200 -0.0527  0.0838 -2.0122
    4DOPE  C312  495   4.093   2.709   6.035 -0.4477 -0.0128 -0.9253
    4DOPE  H12X  496   4.167   2.630   6.011 -0.6172  0.0954 -1.8442
    4DOPE  H12Y  497   4.127   2.806   5.994  0.8041  0.0645  0.2091
    4DOPE  C313  498   3.964   2.666   5.967 -0.4555 -0.0451 -0.0527
    4DOPE  H13X  499   3.944   2.559   5.991 -0.5841 -0.3909 -1.5945
    4DOPE  H13Y  500   3.877   2.716   6.014 -0.4151  1.9789 -1.9930
    4DOPE  C314  501   3.963   2.672   5.816 -0.1214 -0.9947 -0.1574
    4DOPE  H14X  502   4.023   2.757   5.776 -2.1424  0.9873  0.7945
    4DOPE  H14Y  503   3.859   2.706   5.793  0.7591  0.6207 -2.0661
    4DOPE  C315  504   3.994   2.544   5.749 -0.2839  0.4059 -0.1785
    4DOPE  H15X  505   3.925   2.464   5.784  0.3173  0.0815  0.2792
    4DOPE  H15Y  506   4.097   2.526   5.786  0.0180 -0.8512 -1.5249
    4DOPE  C316  507   3.999   2.546   5.593 -0.2916  0.3467  0.6340
    4DOPE  H16X  508   4.076   2.622   5.569 -0.9399  0.1001 -2.5636
    4DOPE  H16Y  509   3.901   2.580   5.553  0.3411  0.4341 -0.8968
    4DOPE  C317  510   4.031   2.401   5.545 -0.2567 -0.2104  0.3692
    4DOPE  H17X  511   4.107   2.356   5.612  1.3354  2.1887  0.2790
    4DOPE  H17Y  512   3.939   2.338   5.544  0.5265 -1.4826  2.3666
    4DOPE  C318  513   4.092   2.406   5.405 -0.4404  0.1944  0.2450
    4DOPE  H18X  514   4.188   2.461   5.416 -1.0772  1.0242  2.2431
    4DOPE  H18Y  515   4.120   2.305   5.369 -1.1416 -0.0550  0.3788
    4DOPE  H18Z  516   4.031   2.449   5.323 -0.4029 -1.0561 -0.4672
    5DOPE     N  517   1.377   4.935   7.329 -0.4572 -0.6220  0.2387
    5DOPE   HN1  518   1.383   4.960   7.228  0.9515 -0.0058  0.4409
    5DOPE   HN2  519   1.441   4.994   7.386 -0.1753 -0.3915 -0.3014
    5DOPE   HN3  520   1.405   4.835   7.330 -0.1021 -0.5210  1.1963
    5DOPE   C12  521   1.239   4.947   7.393 -0.5262  0.5460  0.0611
    5DOPE  H12A  522   1.195   5.042   7.355 -1.9899  0.7815  2.1524
    5DOPE  H12B  523   1.247   4.947   7.504 -2.0584  2.0431  0.2227
    5DOPE   C11  524   1.154   4.833   7.319 -0.5834  0.2116 -0.4643
    5DOPE  H11A  525   1.052   4.833   7.362 -0.4578  0.6358 -0.1570
    5DOPE  H11B  526   1.198   4.735   7.348 -2.6134  0.2036  3.1924
    5DOPE     P  527   1.053   4.726   7.092 -0.4054  0.1472 -0.2516
    5DOPE   O13  528   0.971   4.804   7.002  0.1595  0.4008  0.0699
    5DOPE   O14  529   0.980   4.634   7.186 -0.0969 -1.0501  0.2825
    5DOPE   O11  530   1.152   4.639   7.008 -0.2434  0.3881 -0.0465
    5DOPE   O12  531   1.142   4.832   7.173  0.3774 -0.1011 -0.0431
    5DOPE    C1  532   1.285   4.683   6.983  0.0160 -0.2462  0.2918
    5DOPE    HA  533   1.352   4.594   6.982  1.1476  0.5499  1.5559
    5DOPE    HB  534   1.334   4.749   7.059 -1.3541 -0.6176  1.5528
    5DOPE    C2  535   1.302   4.757   6.849  0.0872  0.3378  0.7689
    5DOPE    HS  536   1.271   4.862   6.865 -1.2966  0.0094  0.4096
    5DOPE   O21  537   1.213   4.688   6.759 -0.5078 -0.0418  0.4842
    5DOPE   C21  538   1.127   4.768   6.691  0.6826 -0.3554  0.2010
    5DOPE   O22  539   1.114   4.886   6.700 -0.5912  0.1861 -0.4523
    5DOPE   C22  540   1.036   4.683   6.607 -0.7162 -0.6702  0.6445
    5DOPE   H2R  541   1.034   4.575   6.634  1.0898 -0.9368 -0.1656
    5DOPE   H2S  542   1.081   4.687   6.506  0.1668  3.3330  1.0337
    5DOPE    C3  543   1.454   4.756   6.808  0.4230  0.1601  0.1330
    5DOPE    HX  544   1.494   4.653   6.800  0.2021 -0.0089  1.0467
    5DOPE    HY  545   1.515   4.792   6.894 -1.2612  1.7688  0.7278
    5DOPE   O31  546   1.479   4.829   6.685 -0.1390 -0.3018 -0.3272
    5DOPE   C31  547   1.494   4.959   6.686 -0.1436 -0.2571 -0.9125
    5DOPE   O32  548   1.485   5.031   6.785  0.2101 -0.1704  0.4274
    5DOPE   C32  549   1.536   5.015   6.554 -0.2381  0.6491  0.0281
    5DOPE   H2X  550   1.453   5.011   6.480  2.1086 -0.4093 -2.7240
    5DOPE   H2Y  551   1.573   5.120   6.563 -2.2169  1.2840  1.3217
    5DOPE   C23  552   0.885   4.736   6.593  0.2714 -0.0445  0.3302
    5DOPE   H3R  553   0.866   4.796   6.684  1.3356  1.4384 -0.3967
    5DOPE   H3S  554   0.810   4.655   6.609 -1.3953  0.8245 -2.3686
    5DOPE   C24  555   0.864   4.821   6.465 -0.7985  0.2751  0.0540
    5DOPE   H4R  556   0.754   4.824   6.445 -0.7830 -1.3590 -0.4233
    5DOPE   H4S  557   0.917   4.763   6.387 -0.6458 -0.6957  0.8617
    5DOPE   C25  558   0.912   4.969   6.479 -0.4245 -0.8744  0.0995
    5DOPE   H5R  559   1.021   4.973   6.503 -0.1553  0.1444 -1.1751
    5DOPE   H5S  560   0.864   5.027   6.560  0.6211  2.1524 -1.3069
    5DOPE   C26  561   0.884   5.037   6.342  0.2198  0.2354  0.6582
    5DOPE   H6R  562   0.775   5.059   6.334 -0.2443 -1.9916 -0.0969
    5DOPE   H6S  563   0.908   4.955   6.271 -1.7124  0.0602  0.1390
    5DOPE   C27  564   0.941   5.171   6.308 -0.0995  0.0832  0.7553
    5DOPE   H7R  565   0.888   5.251   6.364 -0.1673  0.6111 -0.0375
    5DOPE   H7S  566   0.920   5.197   6.202 -1.6015 -1.6310  0.5896
    5DOPE   C28  567   1.090   5.168   6.318 -0.3359 -0.5388 -0.4503
    5DOPE   H8R  568   1.124   5.074   6.268 -0.3311 -1.5530  1.3641
    5DOPE   H8S  569   1.130   5.158   6.421  2.8640 -0.1793 -1.5262
    5DOPE   C29  570   1.159   5.295   6.270 -0.0419  0.1810  0.6541
    5DOPE   H9R  571   1.092   5.382   6.274 -1.1072 -0.6669  1.9066
    5DOPE  C210  572   1.285   5.291   6.220 -0.0463  0.3139 -0.1730
    5DOPE  H10R  573   1.335   5.385   6.192  2.1086 -0.2863  1.4673
    5DOPE  C211  574   1.376   5.171   6.216  0.3181 -0.5246 -0.2504
    5DOPE  H11R  575   1.343   5.090   6.284  0.6583 -1.2506 -0.9398
    5DOPE  H11S  576   1.482   5.202   6.230  0.1278  1.0382 -1.8342
    5DOPE  C212  577   1.368   5.115   6.076  0.1640  0.0079 -0.4618
    5DOPE  H12R  578   1.369   5.201   6.006  0.8289  0.7593  0.4275
    5DOPE  H12S  579   1.275   5.055   6.072 -0.2786  0.7615 -2.2917
    5DOPE  C213  580   1.488   5.017   6.037  0.5078  0.0405 -0.2035
    5DOPE  H13R  581   1.485   4.933   6.109 -1.2139  1.2896  1.2957
    5DOPE  H13S  582   1.591   5.058   6.039  0.2785  0.6166  0.3393
    5DOPE  C214  583   1.463   4.957   5.897  0.1820 -0.2078 -0.3966
    5DOPE  H14R  584   1.466   5.026   5.810  0.0154 -0.2669 -0.4509
    5DOPE  H14S  585   1.360   4.916   5.891  0.5434 -1.0930 -0.7147
    5DOPE  C215  586   1.547   4.832   5.875  0.1976  0.2532 -0.6001
    5DOPE  H15R  587   1.547   4.779   5.973  1.7028 -1.4951 -1.4737
    5DOPE  H15S  588   1.657   4.842   5.865  0.6443 -2.1552  0.9328
    5DOPE  C216  589   1.491   4.731   5.769  0.7275  0.2582  0.4760
    5DOPE  H16R  590   1.384   4.714   5.794  0.3452  3.2393  1.2748
    5DOPE  H16S  591   1.546   4.638   5.796  0.0943 -0.2587  0.0111
    5DOPE  C217  592   1.511   4.777   5.625  0.6556 -0.2615  0.4979
    5DOPE  H17R  593   1.620   4.798   5.613  0.6608  1.6204  2.9117
    5DOPE  H17S  594   1.455   4.872   5.617 -0.1834 -0.6489  1.5085
    5DOPE  C218  595   1.449   4.671   5.531 -0.1275  0.0420 -0.3881
    5DOPE  H18R  596   1.482   4.676   5.425 -0.9563 -2.0063 -0.7861
    5DOPE  H18S  597   1.339   4.680   5.524 -0.2912 -0.7773  0.7897
    5DOPE  H18T  598   1.478   4.570   5.570 -0.4091 -0.2707 -0.9827
    5DOPE   C33  599   1.648   4.930   6.493 -0.4065 -0.6725  0.4644
    5DOPE   H3X  600   1.623   4.822   6.484  1.8123 -1.3920  1.9558
    5DOPE   H3Y  601   1.736   4.927   6.561  0.4195  0.8763 -0.4637
    5DOPE   C34  602   1.682   4.967   6.350 -0.0470 -0.2287 -0.2607
    5DOPE   H4X  603   1.598   4.929   6.288  1.3232 -0.0078 -2.3602
    5DOPE   H4Y  604   1.683   5.077   6.338  0.4349 -0.3139 -1.0365
    5DOPE   C35  605   1.819   4.908   6.301  0.0720 -0.5330  0.2122
    5DOPE   H5X  606   1.827   4.801   6.327  1.0200 -0.2136  1.3157
    5DOPE   H5Y  607   1.896   4.961   6.362 -0.8406  0.8198  0.2395
    5DOPE   C36  608   1.852   4.953   6.161  0.7302 -0.4234  0.8667
    5DOPE   H6X  609   1.809   5.053   6.139  2.0373 -0.2984 -1.4324
    5DOPE   H6Y  610   1.811   4.895   6.075 -0.9994  1.0233  0.6483
    5DOPE   C37  611   1.998   4.950   6.137 -0.1266  0.9779  0.6362
    5DOPE   H7X  612   2.044   4.999   6.226 -1.5850  1.3662  1.2237
    5DOPE   H7Y  613   2.038   4.847   6.147  1.9405  1.6419 -0.2786
    5DOPE   C38  614   2.040   5.016   6.011 -0.1477 -0.3087  0.7611
    5DOPE   H8X  615   2.151   5.020   6.000 -0.1846 -0.4121  0.3222
    5DOPE   H8Y  616   2.010   5.122   5.998  0.2031 -0.3801 -0.9573
    5DOPE   C39  617   1.997   4.934   5.893  0.5273  0.2345 -0.7149
    5DOPE   H9X  618   2.049   4.838   5.877 -0.2505 -0.3691  0.3192
    5DOPE  C310  619   1.904   4.959   5.800  0.7006  0.1045  0.5983
    5DOPE  H10X  620   1.876   4.882   5.727  0.2588 -0.9204  1.8154
    5DOPE  C311  621   1.826   5.091   5.807  0.0404  0.2676 -0.0468
    5DOPE  H11X  622   1.718   5.069   5.791 -0.0349  1.7863 -2.1405
    5DOPE  H11Y  623   1.842   5.149   5.900  0.3284  0.8384 -0.4412
    5DOPE  C312  624   1.860   5.187   5.695 -0.4669  0.7123  0.3483
    5DOPE  H12X  625   1.783   5.267   5.700 -0.0952  1.0185  1.5512
    5DOPE  H12Y  626   1.844   5.130   5.601 -0.3706  1.2431  0.0089
    5DOPE  C313  627   2.005   5.244   5.689 -0.3952 -0.6078  0.0054
    5DOPE  H13X  628   1.991   5.345   5.733 -0.3904 -0.8983  0.6831
    5DOPE  H13Y  629   2.078   5.186   5.750 -2.0071 -0.6417  1.9932
    5DOPE  C314  630   2.069   5.268   5.546 -0.0905 -0.0162 -0.3395
    5DOPE  H14X  631   2.097   5.169   5.506  4.2347  0.9733 -0.3282
    5DOPE  H14Y  632   2.173   5.305   5.558  0.6334 -2.7062  3.5295
    5DOPE  C315  633   1.968   5.338   5.450 -0.0743  0.1182 -0.0666
    5DOPE  H15X  634   1.925   5.428   5.498 -0.9574  0.1771 -0.9445
    5DOPE  H15Y  635   1.890   5.265   5.420 -0.5088 -0.2804  1.9388
    5DOPE  C316  636   2.042   5.393   5.325  0.2769  0.7598  0.5209
    5DOPE  H16X  637   2.102   5.306   5.291 -2.4508 -1.0331 -0.0940
    5DOPE  H16Y  638   2.107   5.478   5.352  1.5288  0.3947 -1.1752
    5DOPE  C317  639   1.935   5.434   5.228  0.4011 -0.0704  0.4391
    5DOPE  H17X  640   1.851   5.363   5.211 -2.0526  3.0002 -1.5577
    5DOPE  H17Y  641   1.891   5.520   5.283  2.4027  1.6490 -0.5143
    5DOPE  C318  642   1.997   5.484   5.096  0.1472  0.7302  0.1479
    5DOPE  H18X  643   1.912   5.503   5.027 -1.7237 -1.4257  1.7184
    5DOPE  H18Y  644   2.058   5.571   5.127 -0.1799  0.9418  0.1948
    5DOPE  H18Z  645   2.066   5.409   5.051 -0.5324  0.7644 -0.9933
    6DOPE     N  646   0.684   6.306   7.073 -0.2535 -0.2263  0.0013
    6DOPE   HN1  647   0.735   6.252   7.147 -0.5381 -0.4634  0.0279
    6DOPE   HN2  648   0.726   6.284   6.981 -0.8053  0.9956 -0.5755
    6DOPE   HN3  649   0.708   6.404   7.099  0.2244 -0.1905 -0.5685
    6DOPE   C12  650   0.541   6.279   7.055 -0.1525  0.8154  1.2323
    6DOPE  H12A  651   0.504   6.355   6.982  1.9581  0.6606 -0.0901
    6DOPE  H12B  652   0.501   6.291   7.158 -1.0858 -1.6247  1.2188
    6DOPE   C11  653   0.514   6.139   7.000  0.6783 -0.3987 -0.0265
    6DOPE  H11A  654   0.581   6.118   6.914  0.4761  1.0219 -0.5594
    6DOPE  H11B  655   0.411   6.138   6.958  1.0647 -2.8276 -1.0468
    6DOPE     P  656   0.483   5.885   7.059  0.4521 -0.4873 -0.4166
    6DOPE   O13  657   0.347   5.888   6.992  0.0796  0.2999 -0.1751
    6DOPE   O14  658   0.511   5.813   7.184  0.2216 -0.0615 -0.6607
    6DOPE   O11  659   0.587   5.845   6.946  0.3454  0.1526 -0.2074
    6DOPE   O12  660   0.525   6.036   7.096 -0.2492 -0.1457 -0.5289
    6DOPE    C1  661   0.724   5.890   6.965 -0.2075  0.5152  0.2095
    6DOPE    HA  662   0.748   5.901   7.073 -1.0672 -2.9243  0.8463
    6DOPE    HB  663   0.747   5.980   6.902 -0.9314 -0.3847 -1.3945
    6DOPE    C2  664   0.828   5.784   6.923  1.2865 -0.3407 -0.8376
    6DOPE    HS  665   0.929   5.827   6.940  0.6074  1.0463 -0.1590
    6DOPE   O21  666   0.805   5.721   6.793 -0.3396  0.2972 -0.5971
    6DOPE   C21  667   0.831   5.803   6.694 -0.4837 -0.4468 -0.4354
    6DOPE   O22  668   0.876   5.916   6.707  0.0561  0.1471 -0.4343
    6DOPE   C22  669   0.802   5.744   6.561  0.0361  0.4356 -0.2223
    6DOPE   H2R  670   0.697   5.769   6.532  0.0134  1.4530  0.6659
    6DOPE   H2S  671   0.816   5.634   6.558 -2.3640  0.0827 -2.3419
    6DOPE    C3  672   0.821   5.657   7.021  0.1616  0.1109 -0.8197
    6DOPE    HX  673   0.716   5.621   7.006  1.1445 -2.8113 -1.2828
    6DOPE    HY  674   0.836   5.683   7.128 -3.3567  1.8184 -0.5919
    6DOPE   O31  675   0.902   5.545   6.989  0.0067 -0.2690 -0.0803
    6DOPE   C31  676   1.035   5.554   7.017  0.0721 -0.0459 -0.1210
    6DOPE   O32  677   1.089   5.635   7.088  0.1943  0.2205 -0.1834
    6DOPE   C32  678   1.114   5.452   6.940 -0.2143  0.3111 -0.1015
    6DOPE   H2X  679   1.217   5.492   6.958  0.8203 -2.9694  2.0765
    6DOPE   H2Y  680   1.101   5.349   6.980 -3.5001 -0.0112 -1.7083
    6DOPE   C23  681   0.895   5.820   6.458  0.1654  0.2867 -0.3876
    6DOPE   H3R  682   0.996   5.776   6.467 -0.3124 -0.9217 -0.6867
    6DOPE   H3S  683   0.900   5.928   6.484 -3.2960  0.2770  0.9570
    6DOPE   C24  684   0.853   5.813   6.312 -0.3156 -0.4465 -0.2020
    6DOPE   H4R  685   0.925   5.870   6.250 -1.0613 -0.1920 -0.8486
    6DOPE   H4S  686   0.762   5.877   6.306  1.2736  2.1735  1.6847
    6DOPE   C25  687   0.839   5.667   6.260 -0.2303  0.2821  0.1116
    6DOPE   H5R  688   0.751   5.624   6.313 -0.6944 -2.0143 -2.2805
    6DOPE   H5S  689   0.934   5.617   6.287 -1.5262 -3.3510 -1.3540
    6DOPE   C26  690   0.807   5.643   6.105 -0.6788  0.0402 -0.1620
    6DOPE   H6R  691   0.708   5.677   6.068 -0.2644 -1.5275 -3.0591
    6DOPE   H6S  692   0.820   5.534   6.087  0.9605  0.2444 -0.4193
    6DOPE   C27  693   0.915   5.714   6.008  0.1937 -0.0864 -0.0118
    6DOPE   H7R  694   1.016   5.689   6.046  0.0945 -1.6238 -0.6712
    6DOPE   H7S  695   0.900   5.824   6.004 -1.9733 -0.3673 -1.5387
    6DOPE   C28  696   0.895   5.664   5.865 -0.5456 -0.3979  0.8136
    6DOPE   H8R  697   0.908   5.554   5.871  0.6265 -0.2042  2.4395
    6DOPE   H8S  698   0.971   5.702   5.794 -0.5755  0.3837  1.1954
    6DOPE   C29  699   0.770   5.686   5.791  0.1119  0.1850 -0.0436
    6DOPE   H9R  700   0.687   5.671   5.862  0.7213  0.3529  0.7247
    6DOPE  C210  701   0.749   5.686   5.661 -0.2242  0.3236 -0.3605
    6DOPE  H10R  702   0.643   5.690   5.632 -0.3881  0.1123  0.1910
    6DOPE  C211  703   0.850   5.667   5.548  0.8943 -0.3401  0.4324
    6DOPE  H11R  704   0.953   5.673   5.591  0.4568  3.2792  1.2986
    6DOPE  H11S  705   0.844   5.746   5.471  2.2751  0.6057  1.2468
    6DOPE  C212  706   0.833   5.529   5.473  0.2441 -0.3923  0.4823
    6DOPE  H12R  707   0.735   5.509   5.424  0.8357 -0.5609 -0.6389
    6DOPE  H12S  708   0.829   5.452   5.553 -0.4606  0.3093  1.1510
    6DOPE  C213  709   0.944   5.495   5.367 -0.4921 -0.2346  0.1316
    6DOPE  H13R  710   1.042   5.514   5.418 -0.7763  1.1743  0.2036
    6DOPE  H13S  711   0.932   5.575   5.291 -2.0395 -2.1130 -1.6695
    6DOPE  C214  712   0.938   5.358   5.298  0.3947 -0.7358  0.2362
    6DOPE  H14R  713   0.834   5.347   5.259  0.8033  1.2682 -1.6129
    6DOPE  H14S  714   0.961   5.284   5.378  1.5273  0.3014  0.8999
    6DOPE  C215  715   1.041   5.349   5.185  0.5899 -0.3270 -0.1869
    6DOPE  H15R  716   1.138   5.374   5.233 -1.1058  1.1063  2.8168
    6DOPE  H15S  717   1.018   5.441   5.127 -1.4652 -0.0399  1.0069
    6DOPE  C216  718   1.049   5.239   5.085 -0.0083  0.1601  0.8395
    6DOPE  H16R  719   0.950   5.227   5.035  0.9210  0.0962 -1.0496
    6DOPE  H16S  720   1.088   5.151   5.141  0.2140 -0.1463  0.2036
    6DOPE  C217  721   1.148   5.272   4.977 -0.4192 -0.4631  0.4757
    6DOPE  H17R  722   1.251   5.264   5.017  0.2882  1.1189 -0.9449
    6DOPE  H17S  723   1.139   5.378   4.946 -1.7282  1.2738  5.7680
    6DOPE  C218  724   1.130   5.189   4.858  0.1468  0.7300  0.2088
    6DOPE  H18R  725   1.187   5.226   4.770  1.0334 -3.3437 -1.1604
    6DOPE  H18S  726   1.027   5.174   4.819  1.4685 -1.1496 -3.0069
    6DOPE  H18T  727   1.170   5.086   4.865  0.2841  0.7687  0.0174
    6DOPE   C33  728   1.081   5.453   6.789  0.3941  0.0624  0.4076
    6DOPE   H3X  729   1.126   5.546   6.749  2.0210 -0.7677  0.2633
    6DOPE   H3Y  730   0.971   5.461   6.771  0.2610  0.2704  1.2953
    6DOPE   C34  731   1.133   5.331   6.708  0.0788  0.2110 -0.4975
    6DOPE   H4X  732   1.085   5.241   6.752  0.2424 -0.2803 -1.3030
    6DOPE   H4Y  733   1.114   5.340   6.599  0.6493 -0.6275 -0.6709
    6DOPE   C35  734   1.283   5.311   6.731 -0.0643  0.0882 -0.7218
    6DOPE   H5X  735   1.309   5.209   6.695  1.5055 -0.0449  0.7007
    6DOPE   H5Y  736   1.304   5.332   6.838 -2.9547  1.1126 -0.2638
    6DOPE   C36  737   1.364   5.411   6.645 -0.4666 -0.2979 -0.5575
    6DOPE   H6X  738   1.318   5.512   6.642 -0.0487 -0.1016 -0.4793
    6DOPE   H6Y  739   1.356   5.398   6.534 -0.0224  1.9631 -0.9074
    6DOPE   C37  740   1.508   5.425   6.699  0.7996  0.0126  0.0118
    6DOPE   H7X  741   1.504   5.448   6.807  2.0274  1.8652 -0.2916
    6DOPE   H7Y  742   1.565   5.332   6.679 -0.1547 -0.3493 -1.1749
    6DOPE   C38  743   1.587   5.537   6.632  0.4682 -0.7004  0.5264
    6DOPE   H8X  744   1.522   5.625   6.649  0.0772 -0.9665  0.4302
    6DOPE   H8Y  745   1.587   5.515   6.523 -1.6671 -0.7963  0.4955
    6DOPE   C39  746   1.725   5.553   6.684 -0.4686  0.4616 -0.4613
    6DOPE   H9X  747   1.736   5.565   6.793  0.3727  0.3474 -0.5270
    6DOPE  C310  748   1.837   5.553   6.607  0.9387 -0.1082  0.0573
    6DOPE  H10X  749   1.935   5.580   6.651  0.4222 -1.0217  1.8940
    6DOPE  C311  750   1.842   5.533   6.455 -0.1103 -0.0440 -0.4402
    6DOPE  H11X  751   1.806   5.436   6.416 -0.4352 -0.9247  1.8758
    6DOPE  H11Y  752   1.789   5.619   6.408  1.5427  2.2709  1.6483
    6DOPE  C312  753   1.977   5.561   6.385 -0.0789  0.7994  0.5143
    6DOPE  H12X  754   2.046   5.477   6.409 -0.7100  0.4265  1.0487
    6DOPE  H12Y  755   2.019   5.662   6.407  1.7660  0.0341  0.7391
    6DOPE  C313  756   1.965   5.578   6.234  0.5284  0.1993  0.3079
    6DOPE  H13X  757   1.891   5.656   6.205  0.2264 -0.9420 -2.3348
    6DOPE  H13Y  758   2.059   5.607   6.181  0.1580 -0.3341 -0.6727
    6DOPE  C314  759   1.912   5.450   6.158 -0.0887  0.3169 -0.2992
    6DOPE  H14X  760   1.816   5.421   6.204 -0.1811 -0.0292 -0.7058
    6DOPE  H14Y  761   1.986   5.370   6.179 -0.1299 -0.6056 -3.1820
    6DOPE  C315  762   1.907   5.478   6.012 -0.1355  0.2194  0.9854
    6DOPE  H15X  763   1.931   5.383   5.960  1.4425 -0.5749  3.0028
    6DOPE  H15Y  764   2.004   5.529   5.988  0.6277 -1.0075  1.3776
    6DOPE  C316  765   1.790   5.554   5.959 -0.0934  0.7848  0.4949
    6DOPE  H16X  766   1.811   5.660   5.988 -0.6244  0.6853  1.2679
    6DOPE  H16Y  767   1.704   5.521   6.021  2.1696 -1.1112  2.8555
    6DOPE  C317  768   1.764   5.556   5.809 -0.2338  0.1623 -0.6224
    6DOPE  H17X  769   1.764   5.451   5.773  2.1419 -0.1944  0.2608
    6DOPE  H17Y  770   1.664   5.601   5.789 -0.0493  0.5487 -0.6928
    6DOPE  C318  771   1.874   5.633   5.733  0.4156  0.0650 -0.5553
    6DOPE  H18X  772   1.875   5.738   5.768 -0.5891  0.2192 -0.9616
    6DOPE  H18Y  773   1.973   5.585   5.745  0.8000  0.5827 -1.5137
    6DOPE  H18Z  774   1.850   5.634   5.624  0.8255  0.6244 -0.6430
    7DOPE     N  775   4.297   7.306   6.782  0.0341  0.3728  0.3122
    7DOPE   HN1  776   4.216   7.366   6.758  0.1263 -0.5560 -2.7956
    7DOPE   HN2  777   4.381   7.358   6.748 -0.2988  0.4525 -0.4256
    7DOPE   HN3  778   4.283   7.225   6.719 -1.0148  1.0390 -0.3492
    7DOPE   C12  779   4.307   7.276   6.930  0.2086  0.0566 -0.4412
    7DOPE  H12A  780   4.373   7.355   6.972 -1.2195  1.5181 -0.8254
    7DOPE  H12B  781   4.362   7.180   6.938  0.0890 -0.3015 -3.0643
    7DOPE   C11  782   4.165   7.260   6.988 -0.3644  1.0116  0.4874
    7DOPE  H11A  783   4.164   7.234   7.097  0.2146 -2.2973 -0.1801
    7DOPE  H11B  784   4.138   7.164   6.939 -0.5767  0.8398  0.9371
    7DOPE     P  785   3.935   7.356   6.899 -0.1503 -0.2479  0.2470
    7DOPE   O13  786   3.899   7.475   6.820  0.4901  0.1919 -0.0753
    7DOPE   O14  787   3.848   7.323   7.011  0.1133 -0.2814 -0.0434
    7DOPE   O11  788   3.942   7.237   6.798 -0.0595 -0.2002  0.0215
    7DOPE   O12  789   4.080   7.374   6.942 -0.0417  0.4384 -0.7126
    7DOPE    C1  790   3.835   7.194   6.719 -0.1113  0.0291  0.1752
    7DOPE    HA  791   3.791   7.267   6.648 -1.6151 -0.5699  0.4688
    7DOPE    HB  792   3.751   7.169   6.786 -0.1690 -0.8018 -0.1936
    7DOPE    C2  793   3.870   7.075   6.624  0.3428  0.4942  1.0433
    7DOPE    HS  794   3.910   6.991   6.686  0.1930 -1.8132 -1.7881
    7DOPE   O21  795   3.947   7.121   6.516 -0.0781  0.0054 -0.0642
    7DOPE   C21  796   4.072   7.096   6.520 -0.0339  0.5853 -0.0453
    7DOPE   O22  797   4.137   7.049   6.611 -0.5528  0.4174  0.1433
    7DOPE   C22  798   4.134   7.129   6.380 -0.1458  0.0102 -0.2461
    7DOPE   H2R  799   4.069   7.087   6.300 -0.3654  0.6345 -0.3983
    7DOPE   H2S  800   4.238   7.090   6.380  0.2189  0.9624  0.1399
    7DOPE    C3  801   3.738   7.017   6.562  0.1407  0.1611  0.5276
    7DOPE    HX  802   3.691   7.098   6.503 -0.3587  0.8401  1.8034
    7DOPE    HY  803   3.668   6.993   6.645 -0.1347 -3.1667 -0.5055
    7DOPE   O31  804   3.775   6.896   6.478  0.5052  0.0891 -0.0049
    7DOPE   C31  805   3.761   6.767   6.538  0.3335  0.3420 -0.5877
    7DOPE   O32  806   3.718   6.758   6.652  0.8062 -0.0570  0.9180
    7DOPE   C32  807   3.807   6.662   6.441  0.1610 -0.0362 -0.5072
    7DOPE   H2X  808   3.883   6.610   6.503 -0.4582 -0.7069 -0.2886
    7DOPE   H2Y  809   3.729   6.583   6.438  0.8570 -0.7270 -0.8201
    7DOPE   C23  810   4.151   7.285   6.349  0.3036  0.2900  0.1867
    7DOPE   H3R  811   4.244   7.330   6.391  1.5779 -0.7159 -1.3842
    7DOPE   H3S  812   4.070   7.348   6.390  0.9921  0.6580  1.0054
    7DOPE   C24  813   4.153   7.314   6.197 -1.0832 -0.3933 -0.0230
    7DOPE   H4R  814   4.072   7.249   6.158 -1.5251 -0.1582  0.4837
    7DOPE   H4S  815   4.247   7.277   6.151  0.1515  0.0254  2.0054
    7DOPE   C25  816   4.118   7.461   6.168 -0.7586  0.0060 -0.0389
    7DOPE   H5R  817   4.175   7.529   6.234  0.8193 -2.6433  1.5118
    7DOPE   H5S  818   4.012   7.470   6.201 -0.5929 -0.3769  0.6368
    7DOPE   C26  819   4.144   7.497   6.022  0.1734 -0.2727  0.3972
    7DOPE   H6R  820   4.250   7.491   5.992  0.3145 -0.1583  0.8728
    7DOPE   H6S  821   4.116   7.604   6.005 -0.3630 -0.7407 -2.0607
    7DOPE   C27  822   4.057   7.410   5.927  0.3256 -0.2794 -0.7847
    7DOPE   H7R  823   3.981   7.360   5.991 -1.2419  2.3154 -0.4500
    7DOPE   H7S  824   4.123   7.326   5.896  1.9759 -0.1655  2.1165
    7DOPE   C28  825   4.007   7.494   5.809 -0.1674  0.1426 -0.2160
    7DOPE   H8R  826   3.957   7.418   5.745 -0.0894 -1.3618  1.4290
    7DOPE   H8S  827   4.085   7.532   5.739 -1.4145 -3.5338 -4.0064
    7DOPE   C29  828   3.906   7.609   5.841  0.3774  0.9489 -0.4442
    7DOPE   H9R  829   3.947   7.696   5.896 -1.0497  1.7441 -0.5875
    7DOPE  C210  830   3.780   7.624   5.804  0.3733  0.0897  0.3064
    7DOPE  H10R  831   3.726   7.720   5.813 -1.3174 -0.9325  1.8784
    7DOPE  C211  832   3.708   7.524   5.718 -0.1543 -0.0090 -0.2778
    7DOPE  H11R  833   3.776   7.450   5.671 -2.7335 -2.0771 -1.0332
    7DOPE  H11S  834   3.642   7.563   5.637  1.2886 -0.8180 -1.9116
    7DOPE  C212  835   3.611   7.447   5.817 -0.0368 -0.3711  0.2804
    7DOPE  H12R  836   3.550   7.524   5.869 -0.9131  0.1954 -1.5086
    7DOPE  H12S  837   3.670   7.389   5.891  0.2515  0.2879  0.5733
    7DOPE  C213  838   3.521   7.355   5.736 -0.0967 -0.0156  0.2185
    7DOPE  H13R  839   3.589   7.307   5.662  0.2163  1.2671 -0.3567
    7DOPE  H13S  840   3.451   7.415   5.675  1.6102  2.3815  0.5034
    7DOPE  C214  841   3.455   7.240   5.817  0.0884  0.5667 -0.3730
    7DOPE  H14R  842   3.409   7.286   5.907  0.5987  1.2760 -0.4657
    7DOPE  H14S  843   3.531   7.166   5.850 -0.7770 -0.4695 -0.6591
    7DOPE  C215  844   3.357   7.163   5.734  0.0689  0.1240  0.1059
    7DOPE  H15R  845   3.407   7.131   5.640  0.8213  3.9700 -0.9480
    7DOPE  H15S  846   3.279   7.238   5.713  0.4942  0.7169  0.5909
    7DOPE  C216  847   3.279   7.044   5.798 -0.3327  0.2938  0.0537
    7DOPE  H16R  848   3.223   7.067   5.891  0.8553  0.2159  0.8029
    7DOPE  H16S  849   3.355   6.967   5.823  1.1750  2.0526  1.0689
    7DOPE  C217  850   3.168   6.998   5.699  0.0145 -0.3008 -0.8067
    7DOPE  H17R  851   3.220   6.964   5.607  2.0382 -0.2881  0.2742
    7DOPE  H17S  852   3.106   7.088   5.682  1.0484  0.4926 -0.4639
    7DOPE  C218  853   3.074   6.894   5.758  0.6833  0.0091  0.0013
    7DOPE  H18R  854   3.006   6.927   5.840  1.2557  0.2997  0.3625
    7DOPE  H18S  855   3.131   6.806   5.794 -1.1129 -0.1873  2.6476
    7DOPE  H18T  856   3.007   6.860   5.676  1.9614  0.9074 -1.4634
    7DOPE   C33  857   3.870   6.702   6.307 -0.2222  0.1378 -0.2568
    7DOPE   H3X  858   3.944   6.782   6.326 -0.6182  0.6595 -0.8625
    7DOPE   H3Y  859   3.789   6.735   6.238  0.1422  0.3289 -0.5955
    7DOPE   C34  860   3.942   6.589   6.239  0.1735 -0.3544  0.6524
    7DOPE   H4X  861   4.035   6.558   6.291  2.7215 -0.9248 -3.7673
    7DOPE   H4Y  862   3.874   6.500   6.242 -0.0338 -0.3085 -1.2913
    7DOPE   C35  863   3.955   6.613   6.088 -0.0791  1.0412 -0.2957
    7DOPE   H5X  864   4.039   6.682   6.063  1.9046 -2.2050 -3.5856
    7DOPE   H5Y  865   3.859   6.649   6.045  0.1287  0.9258 -0.8731
    7DOPE   C36  866   3.977   6.486   6.003 -0.3124  0.5214  0.3223
    7DOPE   H6X  867   3.984   6.512   5.895 -0.7586  0.9106  0.3879
    7DOPE   H6Y  868   3.881   6.434   6.022  0.7635 -1.0211  1.7745
    7DOPE   C37  869   4.099   6.402   6.048  0.2732  0.8568 -0.5270
    7DOPE   H7X  870   4.104   6.396   6.159  0.5173  0.3103 -0.5604
    7DOPE   H7Y  871   4.093   6.301   6.002  0.6940  0.8058 -0.4715
    7DOPE   C38  872   4.242   6.445   5.999 -0.4590  0.2850  0.1268
    7DOPE   H8X  873   4.306   6.379   6.062 -0.7386 -1.0784 -0.9654
    7DOPE   H8Y  874   4.264   6.551   6.022  0.7409  0.8026 -2.8861
    7DOPE   C39  875   4.246   6.417   5.850  0.1406 -0.4648  0.2237
    7DOPE   H9X  876   4.246   6.309   5.827  1.5013 -0.3720 -0.2821
    7DOPE  C310  877   4.241   6.507   5.751 -0.1117  0.6362 -0.3708
    7DOPE  H10X  878   4.232   6.474   5.646 -0.9115 -0.3888  0.0056
    7DOPE  C311  879   4.226   6.656   5.778  0.2767 -0.3005 -0.5576
    7DOPE  H11X  880   4.133   6.676   5.835  0.9899 -0.0490  0.5617
    7DOPE  H11Y  881   4.302   6.694   5.850  0.1484 -1.0811  0.0078
    7DOPE  C312  882   4.231   6.739   5.650 -0.1329 -0.0551 -0.3470
    7DOPE  H12X  883   4.225   6.845   5.684  1.5365  0.1388 -0.5718
    7DOPE  H12Y  884   4.145   6.730   5.580 -0.0791  0.2869 -0.4626
    7DOPE  C313  885   4.371   6.712   5.581 -0.2223 -0.1234  0.4168
    7DOPE  H13X  886   4.446   6.752   5.652 -1.2898 -0.7377  1.9294
    7DOPE  H13Y  887   4.387   6.604   5.557 -3.7991 -0.6180 -0.2433
    7DOPE  C314  888   4.384   6.793   5.448  0.5097 -0.5677  0.6650
    7DOPE  H14X  889   4.479   6.766   5.397 -0.0262 -3.5408  1.0638
    7DOPE  H14Y  890   4.381   6.902   5.469  0.9370 -0.7702  1.8710
    7DOPE  C315  891   4.272   6.752   5.339 -0.1371  0.4326 -0.8097
    7DOPE  H15X  892   4.177   6.790   5.383 -0.9615 -2.1932 -0.1217
    7DOPE  H15Y  893   4.264   6.642   5.324 -0.5641  0.1854  0.9924
    7DOPE  C316  894   4.299   6.829   5.209  0.4690 -0.6277 -0.3137
    7DOPE  H16X  895   4.406   6.816   5.184  0.2697  0.0595 -1.6283
    7DOPE  H16Y  896   4.278   6.938   5.220  1.9907 -0.1732 -1.5576
    7DOPE  C317  897   4.199   6.788   5.093 -0.3094  0.3858  0.1918
    7DOPE  H17X  898   4.242   6.698   5.043 -0.4736  0.2132  0.3586
    7DOPE  H17Y  899   4.104   6.762   5.143 -1.4875 -0.4743 -2.3225
    7DOPE  C318  900   4.185   6.893   4.987 -0.2170  0.1219 -0.0466
    7DOPE  H18X  901   4.108   6.867   4.912 -1.0036  0.3894  0.6553
    7DOPE  H18Y  902   4.151   6.994   5.019  0.4744  1.0402 -2.0519
    7DOPE  H18Z  903   4.285   6.918   4.944 -0.1866  0.4153  0.1890
    8DOPE     N  904   5.515   5.536   7.003  0.0700 -0.4330 -0.0578
    8DOPE   HN1  905   5.609   5.580   6.993 -0.6885  1.0962 -0.6879
    8DOPE   HN2  906   5.497   5.529   7.105 -1.2776  1.1449 -0.1538
    8DOPE   HN3  907   5.519   5.438   6.966  0.8252 -0.8265  1.0151
    8DOPE   C12  908   5.415   5.629   6.943 -0.6168  0.2347  1.0063
    8DOPE  H12A  909   5.314   5.585   6.954 -1.5443  2.4584  1.9447
    8DOPE  H12B  910   5.439   5.632   6.834  0.0846  0.2056  1.1552
    8DOPE   C11  911   5.426   5.776   6.992  0.0814 -0.0159  0.4238
    8DOPE  H11A  912   5.366   5.797   7.083 -2.1160  2.5068 -1.4548
    8DOPE  H11B  913   5.376   5.831   6.910  0.1976 -0.7992 -0.1759
    8DOPE     P  914   5.604   5.979   7.025  0.2110 -0.2372 -0.2487
    8DOPE   O13  915   5.753   5.986   7.040  0.1807  0.0855 -0.0328
    8DOPE   O14  916   5.522   6.045   7.128  0.5122 -0.9029  0.0940
    8DOPE   O11  917   5.581   6.040   6.885  0.7910  0.0037  0.0846
    8DOPE   O12  918   5.562   5.826   7.013 -0.1043 -0.0858 -0.8858
    8DOPE    C1  919   5.597   5.955   6.769 -0.0691  0.7911  0.2225
    8DOPE    HA  920   5.567   5.850   6.789  0.4857  0.6924  0.5483
    8DOPE    HB  921   5.703   5.945   6.739  0.2264 -1.0072  1.6423
    8DOPE    C2  922   5.508   6.008   6.655 -0.3054 -0.0819 -0.3215
    8DOPE    HS  923   5.506   5.931   6.574  2.1913 -1.8605  1.1628
    8DOPE   O21  924   5.551   6.138   6.613 -0.2710 -0.2404 -1.3076
    8DOPE   C21  925   5.654   6.142   6.529 -0.3432 -0.3525  0.4177
    8DOPE   O22  926   5.707   6.046   6.475 -0.8555  0.2318 -1.2785
    8DOPE   C22  927   5.708   6.282   6.532  0.5832 -0.8855  0.0433
    8DOPE   H2R  928   5.809   6.297   6.489 -0.3440  1.1230 -1.6156
    8DOPE   H2S  929   5.700   6.317   6.637 -1.0379  1.3812 -0.7512
    8DOPE    C3  930   5.363   6.034   6.690 -0.2311 -1.0072  0.9353
    8DOPE    HX  931   5.362   6.075   6.793 -0.3411 -0.8117  0.8577
    8DOPE    HY  932   5.322   5.932   6.700  2.5370 -2.2332  0.6148
    8DOPE   O31  933   5.283   6.106   6.589  0.3145 -0.6416 -0.0629
    8DOPE   C31  934   5.261   6.232   6.598 -0.0242 -0.2925  0.1484
    8DOPE   O32  935   5.291   6.309   6.686  0.5524 -0.3063 -0.0338
    8DOPE   C32  936   5.207   6.279   6.464  0.2000 -0.3479 -0.4488
    8DOPE   H2X  937   5.098   6.299   6.467  0.5809  2.5294 -2.0549
    8DOPE   H2Y  938   5.249   6.382   6.459  0.7827 -0.6189 -1.8007
    8DOPE   C23  939   5.609   6.383   6.457  0.4868 -0.0108 -0.9843
    8DOPE   H3R  940   5.613   6.488   6.494  2.1499 -0.0433 -1.0161
    8DOPE   H3S  941   5.501   6.363   6.478  0.6317  1.7969  2.1448
    8DOPE   C24  942   5.650   6.391   6.311  0.1626  0.1635  0.5370
    8DOPE   H4R  943   5.605   6.309   6.252 -0.3599 -1.0330  2.5138
    8DOPE   H4S  944   5.760   6.393   6.299 -0.0598 -0.5197 -2.4563
    8DOPE   C25  945   5.599   6.513   6.239 -0.0890  0.2262 -0.3722
    8DOPE   H5R  946   5.624   6.597   6.308 -0.5246 -0.2927  0.4360
    8DOPE   H5S  947   5.488   6.525   6.234 -0.5265 -2.0601  1.7626
    8DOPE   C26  948   5.673   6.541   6.107  0.6823 -0.2428 -0.5904
    8DOPE   H6R  949   5.646   6.461   6.034  2.4611 -2.7429  1.3094
    8DOPE   H6S  950   5.784   6.538   6.112  0.6712 -1.3049 -0.6398
    8DOPE   C27  951   5.623   6.672   6.044  0.0992 -0.1573  0.2656
    8DOPE   H7R  952   5.663   6.758   6.102  2.6056  1.4223 -3.4562
    8DOPE   H7S  953   5.512   6.679   6.033  0.1318  0.0579  0.0649
    8DOPE   C28  954   5.671   6.683   5.897  0.4485  0.0950  0.2693
    8DOPE   H8R  955   5.603   6.619   5.837  0.3513  1.7625 -1.4997
    8DOPE   H8S  956   5.770   6.633   5.885 -0.7002 -1.8722 -2.1727
    8DOPE   C29  957   5.686   6.819   5.833  0.5018  0.0057 -0.1914
    8DOPE   H9R  958   5.648   6.901   5.896 -1.9514 -0.3339 -1.1197
    8DOPE  C210  959   5.737   6.851   5.714  0.6100  0.2268 -0.3455
    8DOPE  H10R  960   5.753   6.958   5.691 -0.1672  0.5930  0.7622
    8DOPE  C211  961   5.796   6.755   5.614  0.0992 -0.0698 -0.7994
    8DOPE  H11R  962   5.831   6.659   5.657  0.2175  0.1110 -0.4805
    8DOPE  H11S  963   5.879   6.803   5.558 -0.6803  1.6467 -0.5477
    8DOPE  C212  964   5.683   6.714   5.513 -0.6594  0.6082 -0.3345
    8DOPE  H12R  965   5.600   6.673   5.574 -0.9418  0.4738 -0.8041
    8DOPE  H12S  966   5.724   6.633   5.449  1.6033  1.8932 -0.6292
    8DOPE  C213  967   5.628   6.821   5.420  0.1875  0.2242 -0.1586
    8DOPE  H13R  968   5.710   6.887   5.384  1.0028 -0.1895  0.8809
    8DOPE  H13S  969   5.564   6.886   5.483 -0.0387 -1.1708  1.1278
    8DOPE  C214  970   5.535   6.763   5.315  0.6415 -0.0258  0.5880
    8DOPE  H14R  971   5.452   6.710   5.367  0.0289  1.6515  1.4132
    8DOPE  H14S  972   5.576   6.694   5.239 -0.1731  1.9230 -1.7426
    8DOPE  C215  973   5.450   6.858   5.230  0.0470 -0.1741  0.7015
    8DOPE  H15R  974   5.470   6.964   5.254 -0.3713  0.8109 -2.6876
    8DOPE  H15S  975   5.343   6.843   5.256 -0.6222  1.2606 -1.0047
    8DOPE  C216  976   5.471   6.843   5.076  0.1622 -0.3919 -0.4851
    8DOPE  H16R  977   5.574   6.866   5.042  0.4732 -2.4392 -1.1017
    8DOPE  H16S  978   5.396   6.914   5.035 -1.6848 -1.4908  0.8115
    8DOPE  C217  979   5.445   6.705   5.015 -0.7242 -0.3530 -0.0651
    8DOPE  H17R  980   5.521   6.637   5.059  0.3140  1.5544  1.2556
    8DOPE  H17S  981   5.454   6.703   4.905  2.7008  1.1420  0.0560
    8DOPE  C218  982   5.306   6.654   5.050 -0.0623 -0.0294  0.1145
    8DOPE  H18R  983   5.298   6.639   5.160 -2.9338 -1.7410 -0.2231
    8DOPE  H18S  984   5.275   6.560   4.999  0.2262  1.7540 -3.6265
    8DOPE  H18T  985   5.236   6.737   5.027  0.0419 -0.1050 -0.4824
    8DOPE   C33  986   5.249   6.193   6.342 -0.0483  0.4315  0.1857
    8DOPE   H3X  987   5.245   6.083   6.354 -1.3847 -0.0333 -3.2968
    8DOPE   H3Y  988   5.354   6.221   6.319 -0.7089  0.8759 -2.7013
    8DOPE   C34  989   5.199   6.233   6.202  0.6191  0.1960 -0.3075
    8DOPE   H4X  990   5.233   6.163   6.124  2.2613  1.5379 -0.8593
    8DOPE   H4Y  991   5.087   6.235   6.202  0.5478  0.8393  2.6392
    8DOPE   C35  992   5.253   6.364   6.151  0.5260  0.2206 -0.5494
    8DOPE   H5X  993   5.364   6.357   6.146  0.4941 -0.8754  0.0885
    8DOPE   H5Y  994   5.225   6.438   6.229  1.1902 -1.2020  1.0936
    8DOPE   C36  995   5.196   6.421   6.021  0.3738  0.6398 -0.3372
    8DOPE   H6X  996   5.088   6.438   6.040  0.3901 -1.3992  2.3520
    8DOPE   H6Y  997   5.206   6.351   5.936  0.5841 -0.0124  0.2113
    8DOPE   C37  998   5.254   6.557   5.988 -0.0575 -0.1100 -0.0077
    8DOPE   H7X  999   5.228   6.626   6.072 -2.2809  1.4583 -1.8664
    8DOPE   H7Y 1000   5.363   6.547   5.972 -0.2781 -0.8595 -1.1405
    8DOPE   C38 1001   5.194   6.626   5.864 -0.5057  0.0607  0.1670
    8DOPE   H8X 1002   5.187   6.735   5.886  1.0097  0.1482  0.3211
    8DOPE   H8Y 1003   5.087   6.600   5.855 -0.7687 -0.3431  3.3490
    8DOPE   C39 1004   5.259   6.593   5.729 -0.9878  0.4171 -0.3048
    8DOPE   H9X 1005   5.354   6.645   5.709 -0.7396  0.6294  1.2405
    8DOPE  C310 1006   5.213   6.515   5.629  0.5444  0.0718  0.5634
    8DOPE  H10X 1007   5.268   6.502   5.535 -0.3295  2.4702 -0.3421
    8DOPE  C311 1008   5.082   6.442   5.638 -0.0581 -0.0454  0.3802
    8DOPE  H11X 1009   5.095   6.333   5.620  1.1040  0.1383  0.0211
    8DOPE  H11Y 1010   5.051   6.452   5.744  0.3082  0.4687  0.4416
    8DOPE  C312 1011   4.970   6.495   5.552  0.2192 -1.2198 -0.0134
    8DOPE  H12X 1012   4.960   6.604   5.568 -1.2321 -1.4777  1.0813
    8DOPE  H12Y 1013   4.874   6.445   5.578  0.0358 -0.0563  1.6602
    8DOPE  C313 1014   5.003   6.481   5.403 -0.0292  0.0725 -0.3946
    8DOPE  H13X 1015   4.933   6.549   5.350  1.5485  1.5339 -0.6939
    8DOPE  H13Y 1016   5.101   6.515   5.363 -0.8215  1.5658 -1.1469
    8DOPE  C314 1017   4.968   6.339   5.348 -0.7308 -0.0803 -0.0277
    8DOPE  H14X 1018   4.861   6.312   5.359 -0.9055 -0.0287 -1.4690
    8DOPE  H14Y 1019   5.029   6.264   5.404  0.5036  0.4659 -0.6014
    8DOPE  C315 1020   5.003   6.320   5.198  0.1609  0.5393 -0.5642
    8DOPE  H15X 1021   4.955   6.403   5.142 -1.2679  0.1425  0.0334
    8DOPE  H15Y 1022   4.949   6.235   5.151 -1.7353  0.2851  1.8641
    8DOPE  C316 1023   5.148   6.299   5.172  0.5341  0.9837 -0.4940
    8DOPE  H16X 1024   5.174   6.196   5.204  0.5991  1.2846  0.4488
    8DOPE  H16Y 1025   5.209   6.373   5.227  0.9785 -0.2349  0.7179
    8DOPE  C317 1026   5.173   6.305   5.024  0.4628 -0.2842 -0.2106
    8DOPE  H17X 1027   5.123   6.386   4.968 -1.5382 -1.6419 -0.4761
    8DOPE  H17Y 1028   5.281   6.332   5.026  0.6491 -0.9696  1.8364
    8DOPE  C318 1029   5.160   6.174   4.947 -0.1683 -0.2537 -0.1369
    8DOPE  H18X 1030   5.189   6.189   4.841 -1.8792 -1.4406 -0.8361
    8DOPE  H18Y 1031   5.054   6.139   4.944 -0.2723  0.1148 -1.4041
    8DOPE  H18Z 1032   5.235   6.103   4.987  1.8011  1.0090 -1.3907
    9DOPE     N 1033   7.264   4.638   7.030 -0.2455 -0.4620 -0.2039
    9DOPE   HN1 1034   7.214   4.550   7.005 -0.1605 -1.6613  3.2713
    9DOPE   HN2 1035   7.357   4.638   6.983  0.4745 -0.5052  1.1657
    9DOPE   HN3 1036   7.274   4.637   7.134 -1.9157  0.6039  0.0069
    9DOPE   C12 1037   7.187   4.754   6.983  0.0771 -0.8826  0.2651
    9DOPE  H12A 1038   7.081   4.729   7.005 -0.5313 -1.6746 -2.9818
    9DOPE  H12B 1039   7.208   4.752   6.874 -1.1417 -0.2530  0.0021
    9DOPE   C11 1040   7.224   4.892   7.042 -0.1328  0.5916  0.1605
    9DOPE  H11A 1041   7.191   4.897   7.148  1.7906  0.8410  0.7849
    9DOPE  H11B 1042   7.161   4.972   6.996 -1.9999  0.3099  2.0557
    9DOPE     P 1043   7.414   5.067   7.115 -0.0322 -0.1572  0.2504
    9DOPE   O13 1044   7.511   5.018   7.212 -0.1306 -0.1399  0.3552
    9DOPE   O14 1045   7.292   5.151   7.156 -0.5182 -0.0551 -0.0512
    9DOPE   O11 1046   7.489   5.144   6.997 -0.0156  0.3241 -0.2630
    9DOPE   O12 1047   7.362   4.933   7.042  0.2385  0.1821 -0.2014
    9DOPE    C1 1048   7.622   5.100   6.960  0.5349  0.3304 -0.5024
    9DOPE    HA 1049   7.664   5.017   7.020 -1.5817 -2.5545 -2.7060
    9DOPE    HB 1050   7.680   5.192   6.982 -0.5967  0.8458  0.4228
    9DOPE    C2 1051   7.638   5.063   6.813  0.0830  1.0821 -0.5215
    9DOPE    HS 1052   7.737   5.015   6.798 -0.9532 -0.9672 -1.2344
    9DOPE   O21 1053   7.630   5.176   6.728  0.3882 -0.4473 -0.4248
    9DOPE   C21 1054   7.740   5.242   6.717 -0.1287 -0.4555  0.2618
    9DOPE   O22 1055   7.834   5.238   6.790 -0.2802  0.4049 -0.4162
    9DOPE   C22 1056   7.713   5.356   6.615 -0.6513  0.6557 -0.4765
    9DOPE   H2R 1057   7.645   5.427   6.667 -0.9567 -1.6069  2.5478
    9DOPE   H2S 1058   7.660   5.309   6.529 -0.7472  1.0130 -0.6115
    9DOPE    C3 1059   7.541   4.957   6.766  0.4264  0.5736  0.3680
    9DOPE    HX 1060   7.436   4.970   6.801 -0.8692 -0.8633 -2.5881
    9DOPE    HY 1061   7.564   4.858   6.812 -2.8084 -0.0533  0.9216
    9DOPE   O31 1062   7.535   4.940   6.624  0.0736  0.4501 -0.1185
    9DOPE   C31 1063   7.634   4.873   6.564 -0.5686  0.7721 -0.0380
    9DOPE   O32 1064   7.733   4.825   6.616 -0.2941  0.4837  0.6012
    9DOPE   C32 1065   7.608   4.870   6.417  0.4977 -1.0433  0.0648
    9DOPE   H2X 1066   7.543   4.957   6.394 -0.8343 -2.0424 -0.0594
    9DOPE   H2Y 1067   7.708   4.873   6.369  0.1291  0.4604 -0.6773
    9DOPE   C23 1068   7.839   5.430   6.572 -0.7131 -0.5325  0.3713
    9DOPE   H3R 1069   7.907   5.349   6.539 -0.9491 -2.2343  3.6081
    9DOPE   H3S 1070   7.890   5.473   6.661 -0.7583 -0.5044  0.3836
    9DOPE   C24 1071   7.814   5.552   6.475  0.3173  0.8703  0.3324
    9DOPE   H4R 1072   7.910   5.604   6.455  1.9331 -1.3145  1.9331
    9DOPE   H4S 1073   7.754   5.628   6.530  2.5658  1.8720  1.5231
    9DOPE   C25 1074   7.748   5.505   6.345 -0.3744  0.0922 -0.4581
    9DOPE   H5R 1075   7.659   5.449   6.382  0.4921  0.1755  1.9412
    9DOPE   H5S 1076   7.812   5.428   6.296 -2.0403 -0.5908 -1.6716
    9DOPE   C26 1077   7.724   5.632   6.256  0.3511 -0.3604 -0.5441
    9DOPE   H6R 1078   7.817   5.676   6.214  0.8422  1.3154  2.0418
    9DOPE   H6S 1079   7.692   5.718   6.318 -1.6587  0.6711 -2.8452
    9DOPE   C27 1080   7.605   5.615   6.156 -0.1354 -0.0007 -0.3772
    9DOPE   H7R 1081   7.602   5.707   6.095  1.0482  0.3639  0.0826
    9DOPE   H7S 1082   7.514   5.596   6.216  1.5309 -1.8104  1.7802
    9DOPE   C28 1083   7.622   5.500   6.054 -0.5668  0.5807  0.5173
    9DOPE   H8R 1084   7.529   5.488   5.995  1.1071 -0.6166 -2.0379
    9DOPE   H8S 1085   7.633   5.405   6.112 -2.7000 -0.0764 -0.0596
    9DOPE   C29 1086   7.729   5.525   5.944  0.0921 -0.0754 -0.2020
    9DOPE   H9R 1087   7.822   5.573   5.978  0.0524 -0.6235  0.7356
    9DOPE  C210 1088   7.719   5.479   5.822  0.2497  0.0146 -0.5135
    9DOPE  H10R 1089   7.800   5.504   5.751  0.5941  1.8511  0.4785
    9DOPE  C211 1090   7.612   5.389   5.761 -0.6721 -0.0578 -0.5159
    9DOPE  H11R 1091   7.509   5.421   5.789 -0.3000 -0.3518  1.3311
    9DOPE  H11S 1092   7.623   5.284   5.797  1.3389  0.8882  1.9209
    9DOPE  C212 1093   7.605   5.377   5.606 -0.4294 -1.1145  0.0193
    9DOPE  H12R 1094   7.698   5.380   5.546  1.1203  0.2309  2.3599
    9DOPE  H12S 1095   7.559   5.474   5.579 -0.1245 -1.1386 -0.6047
    9DOPE  C213 1096   7.521   5.267   5.539 -0.1709  0.1283  0.2758
    9DOPE  H13R 1097   7.418   5.290   5.574 -0.9315  0.2184 -1.9017
    9DOPE  H13S 1098   7.542   5.164   5.574  0.8545  0.3236  0.2600
    9DOPE  C214 1099   7.502   5.271   5.384 -0.6932 -0.4914  0.1269
    9DOPE  H14R 1100   7.487   5.379   5.365  0.4600 -0.6096 -1.7785
    9DOPE  H14S 1101   7.406   5.224   5.353 -1.3037  0.2438  0.8808
    9DOPE  C215 1102   7.626   5.230   5.307 -0.5328 -0.4526  0.4920
    9DOPE  H15R 1103   7.677   5.147   5.361 -1.6858 -0.7335  1.1901
    9DOPE  H15S 1104   7.697   5.315   5.321 -1.1505 -0.0187  1.0839
    9DOPE  C216 1105   7.593   5.192   5.167 -0.3961 -0.3100 -0.4840
    9DOPE  H16R 1106   7.561   5.279   5.106  0.7940  2.3514  2.3620
    9DOPE  H16S 1107   7.514   5.114   5.162 -1.5448  0.7546  0.4072
    9DOPE  C217 1108   7.717   5.136   5.092  0.4520 -0.8080  0.0509
    9DOPE  H17R 1109   7.764   5.058   5.156  0.8711  0.4478  1.3111
    9DOPE  H17S 1110   7.796   5.212   5.075 -1.8794  1.9347  0.6883
    9DOPE  C218 1111   7.688   5.076   4.957  0.2917 -0.5045  0.0760
    9DOPE  H18R 1112   7.779   5.029   4.914 -1.1844 -2.2837 -1.3287
    9DOPE  H18S 1113   7.639   5.151   4.891 -0.6953 -0.4625  0.8319
    9DOPE  H18T 1114   7.611   4.998   4.974  0.4064 -0.2127  2.1439
    9DOPE   C33 1115   7.543   4.737   6.379 -0.2541  0.2696  0.3478
    9DOPE   H3X 1116   7.444   4.714   6.424 -1.2952 -0.6302 -2.1942
    9DOPE   H3Y 1117   7.597   4.640   6.394  1.4593  1.3602  1.5941
    9DOPE   C34 1118   7.511   4.735   6.229  0.2863  0.0009  0.8922
    9DOPE   H4X 1119   7.423   4.670   6.212  0.6295 -0.6713  1.6473
    9DOPE   H4Y 1120   7.508   4.842   6.196  1.7921 -0.1549  0.1370
    9DOPE   C35 1121   7.630   4.677   6.149 -0.0557 -0.1868 -0.0731
    9DOPE   H5X 1122   7.629   4.568   6.165 -0.3203 -0.0193  1.1261
    9DOPE   H5Y 1123   7.732   4.713   6.173  1.3378 -0.2164 -4.8276
    9DOPE   C36 1124   7.603   4.707   5.998  0.7318  0.5973 -0.1369
    9DOPE   H6X 1125   7.683   4.668   5.931  0.3999 -0.8029  0.2583
    9DOPE   H6Y 1126   7.585   4.814   5.975 -0.9620  0.2744 -0.4666
    9DOPE   C37 1127   7.474   4.634   5.952  0.1120 -0.0518 -0.2702
    9DOPE   H7X 1128   7.477   4.530   5.990 -2.0489 -0.1143 -0.1176
    9DOPE   H7Y 1129   7.394   4.688   6.007  1.3131  2.3685 -0.7530
    9DOPE   C38 1130   7.451   4.634   5.806  0.9103  0.0914 -0.9081
    9DOPE   H8X 1131   7.426   4.737   5.773  2.1763  0.3276 -1.1689
    9DOPE   H8Y 1132   7.364   4.568   5.785  0.8616 -1.0197  2.2748
    9DOPE   C39 1133   7.568   4.579   5.730 -0.3872 -0.3119  0.5943
    9DOPE   H9X 1134   7.591   4.480   5.772  0.8839  0.0921  0.9061
    9DOPE  C310 1135   7.622   4.629   5.620 -0.0530 -0.6784  0.1706
    9DOPE  H10X 1136   7.695   4.575   5.559 -0.5971 -0.6822 -0.4940
    9DOPE  C311 1137   7.571   4.754   5.557  0.2818  0.2887  0.5754
    9DOPE  H11X 1138   7.612   4.756   5.454  3.2958 -2.6294  1.5382
    9DOPE  H11Y 1139   7.460   4.753   5.562  0.2668 -2.1923  1.0305
    9DOPE  C312 1140   7.623   4.889   5.614  0.2929 -0.1494 -0.3540
    9DOPE  H12X 1141   7.573   4.906   5.711  0.2889  1.2768 -0.5737
    9DOPE  H12Y 1142   7.583   4.966   5.544 -0.3677 -2.1431 -2.2543
    9DOPE  C313 1143   7.775   4.903   5.605  0.2038  0.3109  0.4117
    9DOPE  H13X 1144   7.823   4.820   5.660  1.5590  0.6399 -0.2296
    9DOPE  H13Y 1145   7.798   4.898   5.496  0.3111  3.2759  0.2145
    9DOPE  C314 1146   7.833   5.038   5.657  0.3051  0.0165  0.5134
    9DOPE  H14X 1147   7.813   5.127   5.594 -0.9613 -1.1704 -0.8466
    9DOPE  H14Y 1148   7.944   5.030   5.661  0.3455  0.8453  1.3986
    9DOPE  C315 1149   7.786   5.076   5.799 -0.1551  0.6686 -1.2704
    9DOPE  H15X 1150   7.677   5.089   5.811 -0.0669 -0.3574  1.2892
    9DOPE  H15Y 1151   7.843   5.167   5.828  1.3293 -0.8761  1.0081
    9DOPE  C316 1152   7.826   4.975   5.910  0.0994  0.3221 -0.1807
    9DOPE  H16X 1153   7.935   4.966   5.927  0.0887 -3.1793 -1.1028
    9DOPE  H16Y 1154   7.804   4.870   5.881  0.5812 -0.0417  0.7187
    9DOPE  C317 1155   7.770   5.009   6.054  1.2187  0.2389 -0.3559
    9DOPE  H17X 1156   7.663   4.978   6.056  1.4384 -0.5365 -0.0949
    9DOPE  H17Y 1157   7.821   4.949   6.133 -0.1794 -1.2916 -0.5653
    9DOPE  C318 1158   7.776   5.153   6.108  0.2433  0.0217 -0.1185
    9DOPE  H18X 1159   7.886   5.163   6.115  0.8573 -2.7563 -3.2346
    9DOPE  H18Y 1160   7.741   5.227   6.034 -1.5882 -0.9564 -0.3085
    9DOPE  H18Z 1161   7.727   5.171   6.206  0.2982  1.9808 -0.4120
   10DOPE     N 1162   1.253   6.447   7.376 -0.0406  0.2536 -0.1317
   10DOPE   HN1 1163   1.194   6.412   7.454  1.1836 -0.6783  0.4129
   10DOPE   HN2 1164   1.301   6.360   7.346 -0.9715  0.1556 -1.4231
   10DOPE   HN3 1165   1.330   6.505   7.414  0.5363 -0.8257  0.3954
   10DOPE   C12 1166   1.164   6.480   7.262  0.1241 -0.4069 -0.2660
   10DOPE  H12A 1167   1.123   6.579   7.290 -0.1846 -0.6545  0.1656
   10DOPE  H12B 1168   1.072   6.417   7.266 -1.3863  1.7755  2.3135
   10DOPE   C11 1169   1.242   6.487   7.128  0.2942 -0.8947 -0.2395
   10DOPE  H11A 1170   1.342   6.534   7.129  0.4119 -1.1535  0.3461
   10DOPE  H11B 1171   1.186   6.548   7.053  0.5360  0.1574  0.4168
   10DOPE     P 1172   1.372   6.269   7.071  0.1579 -0.3445 -0.1548
   10DOPE   O13 1173   1.423   6.266   7.209 -0.1801  0.3152  0.5684
   10DOPE   O14 1174   1.468   6.315   6.971  0.1046  0.4710 -0.6411
   10DOPE   O11 1175   1.329   6.120   7.027 -0.3174  1.2145  0.2500
   10DOPE   O12 1176   1.242   6.357   7.070  0.3165 -0.4903  0.2363
   10DOPE    C1 1177   1.194   6.076   7.015  0.0520 -0.2102 -0.1409
   10DOPE    HA 1178   1.130   6.128   7.089  1.1448  1.2277 -0.1479
   10DOPE    HB 1179   1.179   5.968   7.037  0.9123 -0.3311 -0.1069
   10DOPE    C2 1180   1.132   6.104   6.873 -0.0917 -0.4860  0.3090
   10DOPE    HS 1181   1.034   6.051   6.869  0.3295 -1.2808  0.1956
   10DOPE   O21 1182   1.215   6.042   6.774  0.2763  0.1420  0.0815
   10DOPE   C21 1183   1.230   5.907   6.765 -0.3065  0.2479  0.3199
   10DOPE   O22 1184   1.176   5.825   6.835  0.1471 -0.2326  0.2693
   10DOPE   C22 1185   1.327   5.885   6.640  0.2564 -0.3452 -0.0276
   10DOPE   H2R 1186   1.404   5.814   6.677 -1.3067 -1.5033  1.1474
   10DOPE   H2S 1187   1.360   5.988   6.614 -1.5902  0.0029 -1.1367
   10DOPE    C3 1188   1.105   6.256   6.829  0.5423 -0.0866 -0.1781
   10DOPE    HX 1189   1.210   6.285   6.808  0.0066  1.9594 -0.2474
   10DOPE    HY 1190   1.074   6.320   6.915  0.8918  0.6307 -0.5731
   10DOPE   O31 1191   1.017   6.254   6.714 -0.1983 -0.6147 -0.7904
   10DOPE   C31 1192   0.890   6.247   6.749  0.2526  0.2253 -0.2822
   10DOPE   O32 1193   0.834   6.251   6.856  0.2327 -0.0272 -0.0518
   10DOPE   C32 1194   0.805   6.230   6.630  0.2269 -0.0778 -0.2852
   10DOPE   H2X 1195   0.747   6.136   6.625 -0.8796  0.6430 -1.9923
   10DOPE   H2Y 1196   0.730   6.312   6.631 -0.0514 -0.2483  2.9907
   10DOPE   C23 1197   1.250   5.826   6.520  0.1955  0.5696 -0.2979
   10DOPE   H3R 1198   1.159   5.884   6.494 -0.1596  0.5871  0.9100
   10DOPE   H3S 1199   1.208   5.733   6.566 -0.1498  2.6537  4.1387
   10DOPE   C24 1200   1.355   5.805   6.405 -0.3396 -0.2483  0.0246
   10DOPE   H4R 1201   1.438   5.748   6.454 -1.3000 -1.7808 -0.0854
   10DOPE   H4S 1202   1.403   5.901   6.374 -0.0365 -0.0038  1.1940
   10DOPE   C25 1203   1.286   5.733   6.290 -0.0744 -0.0019  0.2127
   10DOPE   H5R 1204   1.195   5.792   6.271  0.7368  1.6292  1.1750
   10DOPE   H5S 1205   1.260   5.629   6.318 -1.6204  0.1667 -0.4915
   10DOPE   C26 1206   1.379   5.736   6.173  0.0123 -0.1222  0.0176
   10DOPE   H6R 1207   1.472   5.679   6.195  0.1723 -0.6208 -1.8423
   10DOPE   H6S 1208   1.426   5.835   6.155 -1.9414  0.9400  0.4370
   10DOPE   C27 1209   1.315   5.682   6.047  0.3729 -0.9741  0.0974
   10DOPE   H7R 1210   1.236   5.754   6.018  1.8658  0.5374 -0.4128
   10DOPE   H7S 1211   1.275   5.585   6.082 -1.5755  0.1209  1.0747
   10DOPE   C28 1212   1.425   5.664   5.936  0.1978 -0.1526 -0.1282
   10DOPE   H8R 1213   1.480   5.568   5.944  0.7011  0.1886  0.5462
   10DOPE   H8S 1214   1.510   5.732   5.956 -0.8933  0.6707  2.1400
   10DOPE   C29 1215   1.367   5.688   5.797 -0.5850 -0.2884  0.0820
   10DOPE   H9R 1216   1.352   5.795   5.777  0.6860  0.0744  0.9095
   10DOPE  C210 1217   1.321   5.602   5.711  0.4516  0.4879 -0.2404
   10DOPE  H10R 1218   1.281   5.635   5.614  0.6268 -0.4036 -0.6301
   10DOPE  C211 1219   1.314   5.454   5.737  0.7306 -0.0134 -0.2091
   10DOPE  H11R 1220   1.215   5.412   5.708  0.6681 -0.0114  0.0038
   10DOPE  H11S 1221   1.339   5.425   5.840  3.1083  0.0027 -0.7357
   10DOPE  C212 1222   1.417   5.372   5.653  0.6224 -0.1608  0.1062
   10DOPE  H12R 1223   1.402   5.266   5.683 -0.4638  0.3141  1.3406
   10DOPE  H12S 1224   1.518   5.405   5.683 -0.8241  4.3413  0.8084
   10DOPE  C213 1225   1.393   5.392   5.503 -0.2236  0.1683  0.5813
   10DOPE  H13R 1226   1.438   5.488   5.469 -2.4901  1.5583  1.3097
   10DOPE  H13S 1227   1.284   5.399   5.484 -0.7563 -1.6633  2.5351
   10DOPE  C214 1228   1.455   5.275   5.427 -0.2226  0.1680  0.1315
   10DOPE  H14R 1229   1.406   5.186   5.472  0.6665 -0.7960 -0.7527
   10DOPE  H14S 1230   1.561   5.269   5.460 -0.6878 -1.0353  1.5329
   10DOPE  C215 1231   1.435   5.276   5.276 -0.3966 -0.1393 -0.3467
   10DOPE  H15R 1232   1.481   5.372   5.243 -1.1151  1.5421  3.1585
   10DOPE  H15S 1233   1.325   5.283   5.262 -0.7129  4.0685  2.4266
   10DOPE  C216 1234   1.499   5.152   5.208 -0.7407  0.3637 -0.0277
   10DOPE  H16R 1235   1.607   5.143   5.234 -0.2092  0.9617 -1.8849
   10DOPE  H16S 1236   1.500   5.161   5.098 -0.2329 -1.2604 -0.1770
   10DOPE  C217 1237   1.434   5.022   5.249  0.3217 -0.5167 -0.0620
   10DOPE  H17R 1238   1.328   5.034   5.217  0.2887 -2.0261 -0.5913
   10DOPE  H17S 1239   1.446   5.006   5.358  0.8391  1.2272  0.1663
   10DOPE  C218 1240   1.490   4.902   5.173 -0.0122  0.6352  0.1512
   10DOPE  H18R 1241   1.485   4.906   5.062 -0.6818 -0.9363  0.0923
   10DOPE  H18S 1242   1.439   4.810   5.209  1.5809  0.0580  1.0202
   10DOPE  H18T 1243   1.598   4.893   5.198  0.8795 -0.5762 -3.3754
   10DOPE   C33 1244   0.881   6.229   6.492 -0.1851 -0.1424 -0.1831
   10DOPE   H3X 1245   0.965   6.156   6.493  0.2868  0.3839  0.5915
   10DOPE   H3Y 1246   0.916   6.330   6.461 -0.7438  0.3571  0.7600
   10DOPE   C34 1247   0.778   6.207   6.381 -0.2557  0.8028 -0.3485
   10DOPE   H4X 1248   0.732   6.108   6.401  0.0696  0.5419 -0.8596
   10DOPE   H4Y 1249   0.693   6.278   6.378 -0.6996  0.4364  1.9355
   10DOPE   C35 1250   0.826   6.197   6.241 -0.3085 -0.1334  0.6509
   10DOPE   H5X 1251   0.899   6.114   6.227  0.4737 -0.1119  3.9131
   10DOPE   H5Y 1252   0.878   6.293   6.221  0.6532 -0.2931  2.2142
   10DOPE   C36 1253   0.717   6.183   6.133  0.3766  0.9279  0.4624
   10DOPE   H6X 1254   0.653   6.272   6.113 -2.1528 -0.5217  1.5919
   10DOPE   H6Y 1255   0.646   6.113   6.183  0.3332  0.2522 -0.5137
   10DOPE   C37 1256   0.769   6.114   6.004 -0.4200 -0.2257  0.1359
   10DOPE   H7X 1257   0.817   6.015   6.024 -0.9193 -0.5828 -0.3869
   10DOPE   H7Y 1258   0.674   6.084   5.954 -2.6518  0.0357  3.8288
   10DOPE   C38 1259   0.851   6.207   5.919  0.4608  0.5948 -0.4525
   10DOPE   H8X 1260   0.919   6.254   5.993 -1.4819  0.5734  1.4548
   10DOPE   H8Y 1261   0.793   6.290   5.873  1.5854  1.2446 -0.7189
   10DOPE   C39 1262   0.918   6.120   5.821 -0.3152  0.0270  0.1285
   10DOPE   H9X 1263   0.959   6.031   5.870  0.1465  0.2420  0.1352
   10DOPE  C310 1264   0.923   6.138   5.688 -0.4614  0.0717 -0.2645
   10DOPE  H10X 1265   0.969   6.051   5.637 -1.2510 -1.1624  1.0654
   10DOPE  C311 1266   0.864   6.249   5.605  0.0029  0.0038  0.4162
   10DOPE  H11X 1267   0.807   6.320   5.668  0.7486  1.0345 -0.0336
   10DOPE  H11Y 1268   0.938   6.308   5.547 -1.9149  2.3872  0.2308
   10DOPE  C312 1269   0.769   6.191   5.496  0.8971  0.0161 -0.2107
   10DOPE  H12X 1270   0.806   6.103   5.439 -1.1372  1.0061 -3.3308
   10DOPE  H12Y 1271   0.775   6.268   5.416  2.1422 -0.3400 -0.4891
   10DOPE  C313 1272   0.626   6.163   5.541  0.3622 -0.0442 -0.4446
   10DOPE  H13X 1273   0.640   6.077   5.610 -0.7553  0.2433  0.1696
   10DOPE  H13Y 1274   0.576   6.247   5.594  2.0397  0.8764 -0.2556
   10DOPE  C314 1275   0.536   6.110   5.430  0.0785  0.2177  0.1472
   10DOPE  H14X 1276   0.452   6.062   5.484 -0.1206  0.8552  0.4146
   10DOPE  H14Y 1277   0.595   6.046   5.361  1.2219  1.8345 -0.4439
   10DOPE  C315 1278   0.483   6.234   5.344  0.3496 -0.1760 -0.0485
   10DOPE  H15X 1279   0.416   6.190   5.267 -2.1753  2.3178  0.5428
   10DOPE  H15Y 1280   0.567   6.281   5.289 -1.2016  1.0631 -1.4478
   10DOPE  C316 1281   0.388   6.337   5.414 -0.0789 -0.5356  0.3706
   10DOPE  H16X 1282   0.361   6.427   5.355  1.0958 -0.2532  0.2426
   10DOPE  H16Y 1283   0.434   6.378   5.506 -0.0434  1.8860 -0.6429
   10DOPE  C317 1284   0.255   6.283   5.464 -0.0921 -0.1253  0.3218
   10DOPE  H17X 1285   0.272   6.208   5.544  1.8747  0.3447  0.3986
   10DOPE  H17Y 1286   0.212   6.371   5.516  0.0657  0.4866 -0.5570
   10DOPE  C318 1287   0.154   6.241   5.353  0.3375 -0.3926 -0.2949
   10DOPE  H18X 1288   0.155   6.313   5.269  1.6447 -1.6858 -1.4317
   10DOPE  H18Y 1289   0.193   6.147   5.309  2.0060 -0.6870  1.6601
   10DOPE  H18Z 1290   0.048   6.234   5.385 -0.2147  3.2829 -0.8091
   11DOPE     N 1291   0.697   3.767   6.553  0.2300  0.6613  0.6998
   11DOPE   HN1 1292   0.643   3.707   6.618  0.7301 -0.9032 -0.2713
   11DOPE   HN2 1293   0.702   3.864   6.590 -2.6076  1.1336  0.0699
   11DOPE   HN3 1294   0.650   3.786   6.462 -0.3631 -1.2284  0.5636
   11DOPE   C12 1295   0.833   3.695   6.525  0.3909 -0.6370 -0.2139
   11DOPE  H12A 1296   0.893   3.767   6.465 -1.0262  0.5777 -0.2169
   11DOPE  H12B 1297   0.815   3.607   6.461 -0.1924  0.1609 -1.1694
   11DOPE   C11 1298   0.900   3.653   6.656 -0.2923  0.0255 -0.3321
   11DOPE  H11A 1299   0.953   3.745   6.689 -0.7187  0.2128 -0.1511
   11DOPE  H11B 1300   0.971   3.577   6.619 -0.0884 -0.2157  0.5430
   11DOPE     P 1301   0.833   3.574   6.894 -0.0333  0.3675  0.2490
   11DOPE   O13 1302   0.711   3.515   6.956  0.8237 -0.0259  0.2593
   11DOPE   O14 1303   0.889   3.697   6.961 -0.8828  0.8360  0.8171
   11DOPE   O11 1304   0.949   3.464   6.888  0.4711  0.0615 -0.3064
   11DOPE   O12 1305   0.804   3.610   6.746  0.0856 -0.2252  0.3486
   11DOPE    C1 1306   0.919   3.335   6.846 -0.0335  0.3848 -0.1190
   11DOPE    HA 1307   0.869   3.344   6.748  0.4710 -1.3972 -0.5736
   11DOPE    HB 1308   0.851   3.279   6.914 -0.2915  0.0250 -0.6741
   11DOPE    C2 1309   1.043   3.236   6.837  0.0033  0.6515  0.4638
   11DOPE    HS 1310   1.088   3.242   6.939 -1.1943  0.5677  1.0188
   11DOPE   O21 1311   1.130   3.298   6.741 -0.5938 -0.5874  0.1198
   11DOPE   C21 1312   1.255   3.251   6.741  0.2025  0.5504 -0.7324
   11DOPE   O22 1313   1.296   3.171   6.826 -0.5172  0.5758 -0.0062
   11DOPE   C22 1314   1.337   3.311   6.627 -0.0937  0.1545 -0.0991
   11DOPE   H2R 1315   1.442   3.287   6.653  0.1969  1.3693 -0.0786
   11DOPE   H2S 1316   1.323   3.421   6.632  1.1704  0.2899  2.5729
   11DOPE    C3 1317   0.997   3.088   6.791 -0.4696  0.3257  0.0998
   11DOPE    HX 1318   0.938   3.045   6.875 -1.3890 -0.7714 -1.0602
   11DOPE    HY 1319   1.085   3.020   6.783  0.9433  2.1655 -0.5836
   11DOPE   O31 1320   0.932   3.083   6.665 -0.0067 -0.0039  0.6735
   11DOPE   C31 1321   0.798   3.077   6.671 -1.1195  0.6139  0.0587
   11DOPE   O32 1322   0.736   3.088   6.774 -0.0214 -0.0937 -0.3179
   11DOPE   C32 1323   0.741   3.044   6.534 -0.4657 -0.1212 -0.6383
   11DOPE   H2X 1324   0.810   2.977   6.478  1.7925  1.5546 -0.0080
   11DOPE   H2Y 1325   0.644   2.992   6.550  1.1979 -2.9263  1.0277
   11DOPE   C23 1326   1.301   3.267   6.487  0.2814  0.6739  0.1237
   11DOPE   H3R 1327   1.194   3.290   6.469 -0.0164 -0.4123  0.4151
   11DOPE   H3S 1328   1.321   3.158   6.477 -1.1036  0.2906  1.1641
   11DOPE   C24 1329   1.354   3.348   6.373 -0.2417  0.0394  0.6956
   11DOPE   H4R 1330   1.461   3.378   6.376 -0.0793 -0.3986 -0.2407
   11DOPE   H4S 1331   1.296   3.443   6.373  0.8615  0.7850  2.8567
   11DOPE   C25 1332   1.346   3.282   6.241 -0.0350  0.5031  0.6293
   11DOPE   H5R 1333   1.240   3.248   6.231  0.0606 -0.0736  1.4908
   11DOPE   H5S 1334   1.411   3.192   6.242 -0.0530  0.4721 -0.0777
   11DOPE   C26 1335   1.390   3.368   6.123 -0.8541  0.5633 -0.3814
   11DOPE   H6R 1336   1.495   3.397   6.145 -0.9481  2.0997 -1.7744
   11DOPE   H6S 1337   1.342   3.468   6.115  0.8392  1.2391 -3.4301
   11DOPE   C27 1338   1.368   3.293   5.996  0.4002 -0.2718  0.0418
   11DOPE   H7R 1339   1.260   3.298   5.968  0.0877  0.2546  1.2693
   11DOPE   H7S 1340   1.412   3.192   5.996  2.4567  0.5743  0.4416
   11DOPE   C28 1341   1.448   3.368   5.890 -0.8580 -0.3385 -0.1587
   11DOPE   H8R 1342   1.551   3.358   5.930 -0.6776 -2.0581 -0.9714
   11DOPE   H8S 1343   1.412   3.474   5.889  0.8197  0.2929 -2.4362
   11DOPE   C29 1344   1.427   3.292   5.762  0.2686  0.6317 -0.0242
   11DOPE   H9R 1345   1.496   3.208   5.741 -1.7939 -1.8274  2.2667
   11DOPE  C210 1346   1.321   3.301   5.673 -0.3889  0.1500 -0.4532
   11DOPE  H10R 1347   1.326   3.239   5.582  0.0872  0.6922 -0.7992
   11DOPE  C211 1348   1.194   3.391   5.684  0.1050 -0.5230 -0.0365
   11DOPE  H11R 1349   1.218   3.482   5.625  0.8207 -0.9426 -0.4127
   11DOPE  H11S 1350   1.168   3.410   5.790 -2.0436 -0.9496 -0.4307
   11DOPE  C212 1351   1.054   3.334   5.648  0.2404  0.0982 -0.3819
   11DOPE  H12R 1352   1.045   3.232   5.691 -2.3908  1.3835  2.5190
   11DOPE  H12S 1353   1.037   3.328   5.538  0.2432 -0.0137 -0.3767
   11DOPE  C213 1354   0.929   3.397   5.722 -0.2759  0.4540 -0.1603
   11DOPE  H13R 1355   0.940   3.504   5.693  3.0423 -0.3427 -2.4190
   11DOPE  H13S 1356   0.954   3.372   5.827 -0.1462 -1.9586 -0.7142
   11DOPE  C214 1357   0.798   3.338   5.662 -0.7578  0.2578 -0.0343
   11DOPE  H14R 1358   0.781   3.368   5.556 -0.8174 -0.8152 -0.3428
   11DOPE  H14S 1359   0.722   3.378   5.731  0.9882  2.0062  0.9751
   11DOPE  C215 1360   0.792   3.185   5.665 -0.2991  0.1812  0.2264
   11DOPE  H15R 1361   0.843   3.140   5.752  0.9742 -0.2601 -0.7205
   11DOPE  H15S 1362   0.855   3.145   5.582 -2.8692 -0.7004 -1.4267
   11DOPE  C216 1363   0.651   3.126   5.660 -0.5345 -0.1849 -0.4778
   11DOPE  H16R 1364   0.656   3.045   5.584  0.9716  0.1989 -0.8361
   11DOPE  H16S 1365   0.569   3.192   5.627 -1.4617 -0.6041  0.9199
   11DOPE  C217 1366   0.619   3.074   5.800  0.4609  0.5037 -0.3156
   11DOPE  H17R 1367   0.603   3.163   5.864 -0.9954 -0.8095  1.2385
   11DOPE  H17S 1368   0.700   3.017   5.850 -1.9638 -2.6683  0.3176
   11DOPE  C218 1369   0.492   2.992   5.792  0.2846  0.0407  0.8411
   11DOPE  H18R 1370   0.403   3.049   5.757  0.3965 -0.9247 -1.1752
   11DOPE  H18S 1371   0.471   2.945   5.890  0.1413 -1.6308  0.0462
   11DOPE  H18T 1372   0.490   2.914   5.713 -2.5514  2.4587 -1.7249
   11DOPE   C33 1373   0.723   3.169   6.446 -0.0306  0.4743  0.2933
   11DOPE   H3X 1374   0.651   3.243   6.487 -0.0344 -0.6847  2.5322
   11DOPE   H3Y 1375   0.676   3.136   6.351 -0.2914  2.7821 -0.4522
   11DOPE   C34 1376   0.855   3.227   6.413  0.3499 -0.5483 -0.0444
   11DOPE   H4X 1377   0.908   3.275   6.499 -0.7202  2.1211 -0.7932
   11DOPE   H4Y 1378   0.919   3.145   6.374  0.1818  0.9363 -3.8725
   11DOPE   C35 1379   0.840   3.345   6.315  0.2684 -0.1321  0.2645
   11DOPE   H5X 1380   0.762   3.416   6.352 -0.6066 -0.5242 -0.7821
   11DOPE   H5Y 1381   0.796   3.311   6.219 -0.9050  2.1213 -0.0817
   11DOPE   C36 1382   0.970   3.430   6.293  0.0013 -0.2118 -0.4426
   11DOPE   H6X 1383   1.055   3.365   6.262  0.8704  0.6102  0.1566
   11DOPE   H6Y 1384   1.006   3.472   6.389  0.4200 -1.7128  0.0799
   11DOPE   C37 1385   0.955   3.548   6.203 -0.2418  0.1260 -0.2873
   11DOPE   H7X 1386   0.943   3.506   6.101 -0.7268 -1.0920  0.2407
   11DOPE   H7Y 1387   0.870   3.611   6.234  0.2953  0.5058  0.4517
   11DOPE   C38 1388   1.088   3.626   6.188  0.5107 -0.3389 -0.3760
   11DOPE   H8X 1389   1.147   3.577   6.107  1.0320  0.2950 -0.3796
   11DOPE   H8Y 1390   1.131   3.621   6.290 -1.2569  0.0065  0.4269
   11DOPE   C39 1391   1.063   3.771   6.166  0.7019  0.2976  0.4898
   11DOPE   H9X 1392   1.041   3.822   6.261  0.5256 -0.8794  1.1056
   11DOPE  C310 1393   1.036   3.840   6.053 -1.1016 -0.5282 -0.5017
   11DOPE  H10X 1394   1.032   3.950   6.049  0.6714 -0.4517 -2.0628
   11DOPE  C311 1395   1.034   3.785   5.915 -0.1958 -0.2270 -0.2730
   11DOPE  H11X 1396   1.052   3.675   5.915  1.8900  0.0806  0.7631
   11DOPE  H11Y 1397   0.932   3.804   5.876 -0.7995 -0.4228  1.1549
   11DOPE  C312 1398   1.127   3.859   5.816 -0.1889  0.0429  0.0955
   11DOPE  H12X 1399   1.226   3.839   5.861 -0.4579 -1.8610 -0.0602
   11DOPE  H12Y 1400   1.111   3.969   5.819 -0.7218  0.1212 -2.6414
   11DOPE  C313 1401   1.131   3.819   5.673  0.3465  0.2663 -0.4796
   11DOPE  H13X 1402   1.169   3.715   5.670 -3.4909 -1.3204 -0.8570
   11DOPE  H13Y 1403   1.029   3.815   5.628 -0.4680  2.6545  0.9627
   11DOPE  C314 1404   1.221   3.908   5.593  0.1590 -0.4872 -1.0686
   11DOPE  H14X 1405   1.325   3.892   5.632 -0.7555 -0.2638  1.6885
   11DOPE  H14Y 1406   1.180   4.010   5.604 -1.5253 -1.2406  0.1467
   11DOPE  C315 1407   1.217   3.874   5.450  0.3034  0.4330  0.6403
   11DOPE  H15X 1408   1.116   3.903   5.416  1.0002  1.3923 -0.7170
   11DOPE  H15Y 1409   1.229   3.765   5.435 -0.9598 -0.0504  2.7660
   11DOPE  C316 1410   1.323   3.940   5.356  0.1387 -0.4174  0.2275
   11DOPE  H16X 1411   1.323   3.898   5.253  0.9211 -0.6380  0.3161
   11DOPE  H16Y 1412   1.421   3.923   5.404  0.1294 -1.9378 -0.2645
   11DOPE  C317 1413   1.297   4.091   5.349 -0.1209 -0.1360 -0.1488
   11DOPE  H17X 1414   1.293   4.141   5.448 -2.4335 -1.5859  0.5554
   11DOPE  H17Y 1415   1.385   4.138   5.300 -0.3946  1.5745  0.9109
   11DOPE  C318 1416   1.184   4.132   5.263 -0.4106 -0.2690 -0.2151
   11DOPE  H18X 1417   1.199   4.241   5.242  1.8842 -0.3900  0.4627
   11DOPE  H18Y 1418   1.179   4.085   5.163  0.2648 -3.6165  1.1898
   11DOPE  H18Z 1419   1.088   4.124   5.318 -0.9379  0.4805 -1.0103
   12DOPE     N 1420   3.326   0.151   6.796 -0.0413 -0.2081  0.0077
   12DOPE   HN1 1421   3.355   0.063   6.748  3.1424 -0.3257  1.8205
   12DOPE   HN2 1422   3.410   0.213   6.796  0.6290 -1.0914 -0.1744
   12DOPE   HN3 1423   3.314   0.124   6.896  0.7252  1.3439  0.5437
   12DOPE   C12 1424   3.198   0.214   6.769  0.8345 -0.2829 -0.5119
   12DOPE  H12A 1425   3.202   0.258   6.667  0.3523 -0.5291 -0.6413
   12DOPE  H12B 1426   3.178   0.289   6.849 -1.5891  0.4449 -1.7100
   12DOPE   C11 1427   3.087   0.106   6.777 -0.5631  1.0235  0.3940
   12DOPE  H11A 1428   3.131   0.028   6.710 -1.7510  1.5841 -1.0885
   12DOPE  H11B 1429   2.998   0.149   6.726 -1.0171  0.3789  0.6207
   12DOPE     P 1430   2.955  -0.027   6.951 -0.0928  0.1857  0.2448
   12DOPE   O13 1431   2.836   0.047   6.911 -0.1933  0.0670  0.3550
   12DOPE   O14 1432   2.975  -0.054   7.093  0.1876  0.1365 -0.1632
   12DOPE   O11 1433   2.964  -0.160   6.871  0.1953 -0.2899 -0.2322
   12DOPE   O12 1434   3.078   0.060   6.909 -0.0441  0.4648  0.3421
   12DOPE    C1 1435   3.070  -0.254   6.892  0.6958  0.0822 -0.2135
   12DOPE    HA 1436   3.025  -0.355   6.905  1.5231 -0.0612  2.0370
   12DOPE    HB 1437   3.137  -0.229   6.977  0.5939  2.4014 -0.7398
   12DOPE    C2 1438   3.162  -0.262   6.774 -0.5425  0.1246 -0.1329
   12DOPE    HS 1439   3.164  -0.159   6.733 -1.3944  0.2028 -0.0029
   12DOPE   O21 1440   3.104  -0.353   6.678 -0.4029 -0.0526 -0.2861
   12DOPE   C21 1441   3.144  -0.348   6.557  0.1576  0.3930  0.3709
   12DOPE   O22 1442   3.219  -0.264   6.514 -0.2028 -0.0730  0.1542
   12DOPE   C22 1443   3.081  -0.456   6.477  0.3988 -0.8227 -0.3606
   12DOPE   H2R 1444   2.972  -0.457   6.499  0.5218 -0.2049  0.3026
   12DOPE   H2S 1445   3.121  -0.556   6.504  0.4598 -0.8479 -0.5435
   12DOPE    C3 1446   3.306  -0.297   6.823 -0.1287 -0.2614 -0.3959
   12DOPE    HX 1447   3.290  -0.392   6.878 -3.7335 -0.2085 -1.0683
   12DOPE    HY 1448   3.340  -0.215   6.890  1.8952 -1.7645  0.5107
   12DOPE   O31 1449   3.404  -0.315   6.715  0.4658  0.0266  0.1784
   12DOPE   C31 1450   3.454  -0.198   6.665  0.4753  0.4014  0.3659
   12DOPE   O32 1451   3.404  -0.089   6.695  0.8970 -0.2376  0.7684
   12DOPE   C32 1452   3.556  -0.232   6.565  0.2698 -0.3231 -0.7695
   12DOPE   H2X 1453   3.659  -0.227   6.608 -0.7062 -1.2069  1.8879
   12DOPE   H2Y 1454   3.540  -0.336   6.529  1.1547 -0.5832 -0.4504
   12DOPE   C23 1455   3.096  -0.428   6.328 -0.3653  0.6512 -0.3524
   12DOPE   H3R 1456   3.203  -0.420   6.301  0.0670 -1.7496  0.3725
   12DOPE   H3S 1457   3.048  -0.330   6.305  3.1097  2.6948  0.4540
   12DOPE   C24 1458   3.042  -0.543   6.251 -0.0854 -0.2400  0.2889
   12DOPE   H4R 1459   2.943  -0.572   6.290 -0.0350 -2.1849 -0.9239
   12DOPE   H4S 1460   3.105  -0.632   6.271  1.3169  0.2381 -1.6277
   12DOPE   C25 1461   3.043  -0.510   6.098 -0.0190  0.1675  0.4311
   12DOPE   H5R 1462   2.988  -0.584   6.035  1.0951  0.0006 -0.3670
   12DOPE   H5S 1463   3.148  -0.533   6.072  0.1976 -0.0404  1.4524
   12DOPE   C26 1464   2.995  -0.371   6.050  0.5149 -0.3531 -0.1719
   12DOPE   H6R 1465   3.034  -0.289   6.114 -1.1843 -0.4481  1.0651
   12DOPE   H6S 1466   2.884  -0.363   6.049  0.5834  1.1080 -1.7221
   12DOPE   C27 1467   3.045  -0.349   5.909  0.0227 -0.3348 -0.2812
   12DOPE   H7R 1468   2.991  -0.423   5.845 -0.2254 -1.7616  1.4954
   12DOPE   H7S 1469   3.152  -0.374   5.898 -0.2645 -1.1836 -1.4445
   12DOPE   C28 1470   3.025  -0.207   5.866  0.2486  0.7321  0.2643
   12DOPE   H8R 1471   3.085  -0.146   5.937  1.5995 -0.0251 -0.1832
   12DOPE   H8S 1472   2.919  -0.178   5.881  0.9638  3.0078  1.3390
   12DOPE   C29 1473   3.073  -0.177   5.728  0.4934  0.6081  0.1004
   12DOPE   H9R 1474   3.141  -0.256   5.694 -0.7699 -0.6026  0.2974
   12DOPE  C210 1475   3.024  -0.073   5.646  0.4837  0.4550 -0.4037
   12DOPE  H10R 1476   3.044  -0.068   5.538 -0.9710  0.1488 -0.7104
   12DOPE  C211 1477   2.915   0.026   5.675  0.2510 -0.8780  0.1926
   12DOPE  H11R 1478   2.938   0.104   5.751  1.5733  0.4819 -1.5209
   12DOPE  H11S 1479   2.829  -0.025   5.724 -0.5467  0.7962  0.6158
   12DOPE  C212 1480   2.846   0.080   5.545 -0.4550  0.1080  0.6203
   12DOPE  H12R 1481   2.753   0.138   5.561 -1.5148 -0.1282 -3.4635
   12DOPE  H12S 1482   2.802  -0.011   5.499 -1.3267  0.9942 -0.3763
   12DOPE  C213 1483   2.934   0.151   5.439 -0.1970 -0.2113  0.5125
   12DOPE  H13R 1484   3.013   0.078   5.409 -0.4562 -0.6217  0.8178
   12DOPE  H13S 1485   2.988   0.234   5.490 -0.0292  1.8821 -2.8178
   12DOPE  C214 1486   2.843   0.207   5.325  0.3123 -0.3806 -0.2699
   12DOPE  H14R 1487   2.901   0.273   5.258 -0.6379 -0.0606 -0.7855
   12DOPE  H14S 1488   2.768   0.270   5.377  0.5998 -0.1060 -0.1885
   12DOPE  C215 1489   2.772   0.106   5.228 -0.1523  0.4788  0.1444
   12DOPE  H15R 1490   2.727   0.164   5.144  2.4735  1.3671 -0.7608
   12DOPE  H15S 1491   2.692   0.047   5.278 -1.2311 -0.3642 -2.3663
   12DOPE  C216 1492   2.882   0.021   5.157  0.9063  0.0571 -0.7022
   12DOPE  H16R 1493   2.956  -0.020   5.229 -0.4604  0.0214  0.7374
   12DOPE  H16S 1494   2.938   0.094   5.095  0.4937  2.0286  1.1354
   12DOPE  C217 1495   2.825  -0.098   5.081 -0.2345 -0.2527 -0.9385
   12DOPE  H17R 1496   2.901  -0.167   5.040  1.2725  0.8636 -0.1050
   12DOPE  H17S 1497   2.773  -0.048   4.996  2.1689  0.7233 -1.9288
   12DOPE  C218 1498   2.722  -0.176   5.163 -0.1322 -0.6485  0.3183
   12DOPE  H18R 1499   2.623  -0.126   5.151 -0.8486 -1.7361  1.4181
   12DOPE  H18S 1500   2.754  -0.190   5.268  1.1227  0.0298  0.0493
   12DOPE  H18T 1501   2.712  -0.272   5.108  0.4512  0.2418 -1.4274
   12DOPE   C33 1502   3.554  -0.138   6.443 -0.5350 -0.7512 -0.2370
   12DOPE   H3X 1503   3.576  -0.036   6.482 -0.8835 -0.1857 -1.4602
   12DOPE   H3Y 1504   3.458  -0.137   6.387 -1.0483 -0.4945  0.6194
   12DOPE   C34 1505   3.654  -0.185   6.337 -0.8588  0.1481  0.1892
   12DOPE   H4X 1506   3.661  -0.107   6.258  0.0294 -2.1844 -2.2091
   12DOPE   H4Y 1507   3.756  -0.196   6.379 -0.4746  1.6745 -0.2649
   12DOPE   C35 1508   3.622  -0.331   6.279  0.1122  0.0917  0.2833
   12DOPE   H5X 1509   3.524  -0.319   6.227 -0.4527 -0.9961  1.0582
   12DOPE   H5Y 1510   3.609  -0.408   6.358  0.0548 -0.7199 -0.5076
   12DOPE   C36 1511   3.737  -0.386   6.201 -1.0346 -0.1975 -0.5837
   12DOPE   H6X 1512   3.828  -0.380   6.265 -0.9160 -0.2462 -0.7499
   12DOPE   H6Y 1513   3.764  -0.323   6.115 -1.6693  1.2852  0.2653
   12DOPE   C37 1514   3.712  -0.531   6.148 -0.1186  0.2452 -0.1511
   12DOPE   H7X 1515   3.675  -0.602   6.225  2.2833 -1.7614 -0.6943
   12DOPE   H7Y 1516   3.636  -0.523   6.067  2.3681  0.5197 -2.6062
   12DOPE   C38 1517   3.838  -0.603   6.105 -0.2509  0.5467 -0.2292
   12DOPE   H8X 1518   3.891  -0.634   6.198 -1.1486  0.2819  0.2109
   12DOPE   H8Y 1519   3.907  -0.544   6.042  0.8703  1.4756  1.7573
   12DOPE   C39 1520   3.791  -0.732   6.051 -0.6632 -0.3820 -0.0860
   12DOPE   H9X 1521   3.722  -0.779   6.123 -0.8610 -0.0366 -0.0467
   12DOPE  C310 1522   3.824  -0.779   5.935 -0.0299 -0.0714  0.4243
   12DOPE  H10X 1523   3.798  -0.882   5.907 -1.6520  0.8581 -1.8101
   12DOPE  C311 1524   3.919  -0.717   5.828 -0.3510 -0.7914 -0.0407
   12DOPE  H11X 1525   3.986  -0.635   5.859  2.0685 -2.5956 -0.2270
   12DOPE  H11Y 1526   3.985  -0.796   5.787 -1.0230 -2.1177  1.3558
   12DOPE  C312 1527   3.840  -0.672   5.702  0.6448  0.1862  0.8611
   12DOPE  H12X 1528   3.901  -0.602   5.641 -0.4324  0.5101  0.1424
   12DOPE  H12Y 1529   3.751  -0.613   5.731  1.2768  2.5374 -1.6220
   12DOPE  C313 1530   3.797  -0.792   5.613  0.0804  0.1696 -0.1425
   12DOPE  H13X 1531   3.884  -0.832   5.557 -0.5611  0.0493 -1.0796
   12DOPE  H13Y 1532   3.751  -0.871   5.677 -0.2569  1.1251  0.8388
   12DOPE  C314 1533   3.697  -0.743   5.505  0.2611  0.4853 -0.1507
   12DOPE  H14X 1534   3.755  -0.674   5.440  0.3471  0.2047 -0.3729
   12DOPE  H14Y 1535   3.607  -0.704   5.558  1.7097  2.3058  1.1163
   12DOPE  C315 1536   3.653  -0.861   5.419  0.0301 -0.4332 -0.6002
   12DOPE  H15X 1537   3.604  -0.940   5.479 -1.7267  1.8109  1.0705
   12DOPE  H15Y 1538   3.747  -0.897   5.372  1.4551  0.8750  1.0997
   12DOPE  C316 1539   3.550  -0.826   5.306  0.1822  0.3843 -0.0362
   12DOPE  H16X 1540   3.543  -0.915   5.240  4.9570 -3.3019  3.6500
   12DOPE  H16Y 1541   3.590  -0.745   5.241 -0.4016 -0.7850 -1.9258
   12DOPE  C317 1542   3.412  -0.803   5.348  0.0725  0.8374  0.2762
   12DOPE  H17X 1543   3.397  -0.721   5.421 -0.8663 -1.6408  3.0410
   12DOPE  H17Y 1544   3.353  -0.793   5.254  0.2317 -0.9023 -0.0529
   12DOPE  C318 1545   3.355  -0.913   5.434 -0.4945 -0.2974  0.0907
   12DOPE  H18X 1546   3.391  -0.902   5.539 -0.5385 -1.1489  0.2108
   12DOPE  H18Y 1547   3.244  -0.920   5.428 -0.5601  0.9248 -0.1553
   12DOPE  H18Z 1548   3.400  -1.010   5.404 -2.2695 -0.9057 -0.7760
   13DOPE     N 1549   2.163   1.614   7.178  0.0575 -0.1023  0.8158
   13DOPE   HN1 1550   2.157   1.678   7.260  2.2574 -0.0631  0.9841
   13DOPE   HN2 1551   2.074   1.608   7.125  1.1099 -0.0169 -1.0098
   13DOPE   HN3 1552   2.184   1.521   7.220 -0.4770 -0.8802 -0.5749
   13DOPE   C12 1553   2.265   1.654   7.076 -0.4316 -0.8349 -0.2190
   13DOPE  H12A 1554   2.356   1.680   7.135 -1.0057  1.3678 -0.2368
   13DOPE  H12B 1555   2.218   1.737   7.020  0.3576  0.0198  0.3600
   13DOPE   C11 1556   2.299   1.542   6.982 -0.3888 -0.1248 -0.3675
   13DOPE  H11A 1557   2.360   1.583   6.899 -0.5056  1.4295  0.2819
   13DOPE  H11B 1558   2.208   1.502   6.932 -0.4649  0.5531 -0.7869
   13DOPE     P 1559   2.482   1.355   6.975 -0.2398  0.0504  0.6973
   13DOPE   O13 1560   2.510   1.232   7.046 -0.1515  0.4531  0.1638
   13DOPE   O14 1561   2.600   1.440   6.955  0.5983  0.0165 -0.2007
   13DOPE   O11 1562   2.427   1.316   6.828 -0.3266 -0.3540 -0.3058
   13DOPE   O12 1563   2.368   1.435   7.051 -0.4312 -0.3788  0.1680
   13DOPE    C1 1564   2.300   1.265   6.801  1.0844  0.6967  0.4096
   13DOPE    HA 1565   2.248   1.340   6.737 -0.7081  1.1201  2.2564
   13DOPE    HB 1566   2.238   1.258   6.892 -0.5967 -0.6757 -0.7726
   13DOPE    C2 1567   2.311   1.128   6.740 -0.2087 -0.2585 -0.2878
   13DOPE    HS 1568   2.403   1.084   6.783 -1.2024 -1.7677  0.3920
   13DOPE   O21 1569   2.330   1.145   6.598  0.4004  0.3999  0.1842
   13DOPE   C21 1570   2.378   1.041   6.533  0.0116  0.5260 -0.0294
   13DOPE   O22 1571   2.424   0.947   6.595 -0.0869 -0.6298 -0.3870
   13DOPE   C22 1572   2.357   1.047   6.380  0.4208  0.2401  0.0084
   13DOPE   H2R 1573   2.380   1.148   6.339  0.5007  0.2898  0.1750
   13DOPE   H2S 1574   2.247   1.038   6.365  0.3494 -0.1368  0.7116
   13DOPE    C3 1575   2.187   1.041   6.765  0.3426 -0.3076 -0.6013
   13DOPE    HX 1576   2.179   1.033   6.875 -0.0637 -1.5530 -0.7055
   13DOPE    HY 1577   2.197   0.935   6.732 -2.2323 -0.7323 -0.2184
   13DOPE   O31 1578   2.063   1.101   6.733 -0.0387  0.3818  0.0416
   13DOPE   C31 1579   2.026   1.089   6.608 -0.8420  0.1263  0.9665
   13DOPE   O32 1580   2.083   1.013   6.527  0.2496 -0.1935 -0.6438
   13DOPE   C32 1581   1.918   1.202   6.578 -0.3481 -0.4463  0.2349
   13DOPE   H2X 1582   1.828   1.177   6.638 -0.4874  2.7625  1.5681
   13DOPE   H2Y 1583   1.959   1.293   6.627 -0.1490 -0.7411  0.6270
   13DOPE   C23 1584   2.440   0.944   6.300 -0.4444  0.9527  0.1004
   13DOPE   H3R 1585   2.428   0.844   6.347 -0.6678  0.1428 -1.5941
   13DOPE   H3S 1586   2.550   0.953   6.316 -0.4596  1.3050  0.0135
   13DOPE   C24 1587   2.396   0.922   6.165 -0.6479 -0.3921 -0.0904
   13DOPE   H4R 1588   2.378   1.015   6.107  0.9541  0.7141  1.0907
   13DOPE   H4S 1589   2.296   0.872   6.159 -0.3953 -0.8509 -0.5988
   13DOPE   C25 1590   2.480   0.825   6.084 -0.2390 -0.3260 -0.3538
   13DOPE   H5R 1591   2.517   0.729   6.127 -0.2795  0.4828  1.5959
   13DOPE   H5S 1592   2.576   0.880   6.069 -1.3999  1.7433 -0.5362
   13DOPE   C26 1593   2.430   0.793   5.944 -0.2248  0.4131 -0.1813
   13DOPE   H6R 1594   2.403   0.885   5.888 -2.1736  0.0859  0.1801
   13DOPE   H6S 1595   2.335   0.736   5.953 -0.5689  1.1871  1.3635
   13DOPE   C27 1596   2.523   0.691   5.856  1.4127 -0.3991  0.3265
   13DOPE   H7R 1597   2.458   0.677   5.767  1.2835 -0.8542  0.4932
   13DOPE   H7S 1598   2.523   0.590   5.900  1.7570 -0.3784  0.3760
   13DOPE   C28 1599   2.655   0.755   5.822  0.0182  1.3555  0.7556
   13DOPE   H8R 1600   2.719   0.752   5.912  0.1990 -0.0789  0.6042
   13DOPE   H8S 1601   2.644   0.865   5.806  0.4400  1.3178  0.1497
   13DOPE   C29 1602   2.721   0.693   5.700  0.2821 -0.8161  0.1968
   13DOPE   H9R 1603   2.676   0.726   5.606 -1.8238 -1.8211  0.7982
   13DOPE  C210 1604   2.820   0.600   5.682 -0.1284 -0.2553  0.1124
   13DOPE  H10R 1605   2.864   0.586   5.583 -0.5811 -1.8631  0.1174
   13DOPE  C211 1606   2.893   0.537   5.800  0.2410  0.2383  0.6317
   13DOPE  H11R 1607   2.891   0.617   5.878 -1.0467  1.4158 -0.5485
   13DOPE  H11S 1608   2.994   0.513   5.760 -1.3014 -1.9290 -2.3526
   13DOPE  C212 1609   2.827   0.413   5.857 -0.1261  0.3318  0.6342
   13DOPE  H12R 1610   2.814   0.348   5.768  1.5066  1.3686 -0.4152
   13DOPE  H12S 1611   2.726   0.443   5.894 -0.3777 -0.5481  0.6808
   13DOPE  C213 1612   2.896   0.335   5.966 -1.2046 -0.8661  0.1204
   13DOPE  H13R 1613   2.988   0.291   5.922  0.1899  0.9356  1.0722
   13DOPE  H13S 1614   2.838   0.246   5.997 -1.5158 -0.6411  0.1912
   13DOPE  C214 1615   2.915   0.416   6.093 -0.2392  0.1529 -0.3581
   13DOPE  H14R 1616   2.922   0.342   6.175  4.4590 -1.6347 -2.0500
   13DOPE  H14S 1617   2.832   0.487   6.115  0.4818  0.9329 -0.0785
   13DOPE  C215 1618   3.042   0.487   6.102  0.0307  0.0387 -0.9451
   13DOPE  H15R 1619   3.060   0.564   6.024 -0.4881  1.3556  0.2074
   13DOPE  H15S 1620   3.121   0.409   6.109  0.9029  0.6568 -2.9935
   13DOPE  C216 1621   3.048   0.574   6.234  0.0597 -0.0020 -0.0305
   13DOPE  H16R 1622   3.155   0.578   6.265  0.2251  0.3297 -0.6349
   13DOPE  H16S 1623   3.017   0.520   6.326 -1.6125 -3.6156 -2.4741
   13DOPE  C217 1624   2.996   0.718   6.211  0.6303  0.1808  0.0401
   13DOPE  H17R 1625   2.888   0.734   6.191  0.5356 -0.6094 -0.1145
   13DOPE  H17S 1626   3.043   0.764   6.121 -0.7557  0.8904 -0.3514
   13DOPE  C218 1627   3.020   0.808   6.331 -0.2884 -0.3428  0.4202
   13DOPE  H18R 1628   3.122   0.785   6.368 -0.1898  0.2909  0.5638
   13DOPE  H18S 1629   2.941   0.793   6.408 -1.5953  3.7849  0.1482
   13DOPE  H18T 1630   3.010   0.917   6.309  0.3331  0.0145  1.8004
   13DOPE   C33 1631   1.885   1.232   6.430 -0.1460 -0.4193  0.2290
   13DOPE   H3X 1632   1.888   1.131   6.385  0.0968 -0.6539  0.7556
   13DOPE   H3Y 1633   1.967   1.288   6.381 -1.4388  1.4113  0.0545
   13DOPE   C34 1634   1.756   1.307   6.426  0.5027  0.6713 -0.8965
   13DOPE   H4X 1635   1.678   1.242   6.470 -0.4460  2.4477  0.1502
   13DOPE   H4Y 1636   1.768   1.401   6.484  0.9195  1.0810 -1.6268
   13DOPE   C35 1637   1.697   1.353   6.291 -0.4118 -1.0362 -0.3382
   13DOPE   H5X 1638   1.755   1.444   6.263  2.2860 -2.0827  1.5210
   13DOPE   H5Y 1639   1.591   1.379   6.313  0.3199  0.5110  1.6544
   13DOPE   C36 1640   1.691   1.256   6.169  0.0476 -0.1055  0.1906
   13DOPE   H6X 1641   1.667   1.152   6.199 -0.8320 -0.4608 -1.6591
   13DOPE   H6Y 1642   1.788   1.247   6.116 -1.3256 -2.9539 -2.0979
   13DOPE   C37 1643   1.579   1.295   6.060  0.1008 -0.2069 -0.7445
   13DOPE   H7X 1644   1.548   1.202   6.006 -2.4544 -1.4356  2.5017
   13DOPE   H7Y 1645   1.482   1.327   6.103 -0.0024 -0.9664 -0.4018
   13DOPE   C38 1646   1.621   1.408   5.962 -0.0266 -0.2968  0.1055
   13DOPE   H8X 1647   1.653   1.496   6.023 -2.2035  0.8661 -0.3190
   13DOPE   H8Y 1648   1.535   1.428   5.894  0.3081 -2.0478 -0.8648
   13DOPE   C39 1649   1.743   1.375   5.879 -0.5131  0.4276 -0.4660
   13DOPE   H9X 1650   1.744   1.274   5.836 -0.6742 -0.0786  0.6794
   13DOPE  C310 1651   1.842   1.454   5.834 -0.2702  0.2274 -0.3815
   13DOPE  H10X 1652   1.920   1.413   5.769 -0.0561  0.3040 -0.1727
   13DOPE  C311 1653   1.849   1.602   5.875  0.3122 -0.2914 -0.6233
   13DOPE  H11X 1654   1.747   1.642   5.857  0.2079 -0.2382  0.0568
   13DOPE  H11Y 1655   1.880   1.616   5.981  0.4921 -0.3704 -0.6636
   13DOPE  C312 1656   1.947   1.682   5.789  0.0798 -0.0427  0.0173
   13DOPE  H12X 1657   1.927   1.788   5.818  0.3018 -0.4260  1.7078
   13DOPE  H12Y 1658   1.912   1.675   5.684  0.8418  1.6269 -0.3918
   13DOPE  C313 1659   2.097   1.651   5.821 -0.1673 -0.1885 -0.1095
   13DOPE  H13X 1660   2.119   1.691   5.922  1.3405 -1.0037 -0.0821
   13DOPE  H13Y 1661   2.113   1.541   5.831 -3.6019 -0.7687  0.3198
   13DOPE  C314 1662   2.202   1.714   5.726 -0.4531 -0.0701  0.5784
   13DOPE  H14X 1663   2.191   1.671   5.625 -0.6287  0.5719  0.3190
   13DOPE  H14Y 1664   2.306   1.687   5.756  0.7434  0.1223 -2.9220
   13DOPE  C315 1665   2.209   1.868   5.731 -0.4418  0.2197  0.7153
   13DOPE  H15X 1666   2.255   1.897   5.828 -0.3385  0.1165  0.6968
   13DOPE  H15Y 1667   2.107   1.913   5.726 -0.1980  0.8599  1.3921
   13DOPE  C316 1668   2.307   1.912   5.624  0.1515  0.1412 -0.0938
   13DOPE  H16X 1669   2.391   1.841   5.640  0.4626  0.9437  2.1266
   13DOPE  H16Y 1670   2.330   2.019   5.642  0.0932  0.0569  0.5019
   13DOPE  C317 1671   2.243   1.895   5.486  0.2111 -0.3671 -0.0209
   13DOPE  H17X 1672   2.219   1.789   5.462  1.4972 -0.5799 -0.4630
   13DOPE  H17Y 1673   2.158   1.966   5.483 -0.2644 -0.8880  0.7577
   13DOPE  C318 1674   2.334   1.928   5.363 -0.1869  0.1017  0.6449
   13DOPE  H18X 1675   2.428   1.869   5.375  1.1768  0.7439 -4.4112
   13DOPE  H18Y 1676   2.285   1.895   5.269  1.5649  0.2734 -0.3751
   13DOPE  H18Z 1677   2.363   2.035   5.350 -1.5428  0.2955 -0.9800
   14DOPE     N 1678   5.863   5.255   6.756 -0.3017 -0.2116 -0.0603
   14DOPE   HN1 1679   5.877   5.222   6.854 -0.2776  3.9665  1.5438
   14DOPE   HN2 1680   5.825   5.347   6.784  0.3412 -0.5343  2.0073
   14DOPE   HN3 1681   5.794   5.196   6.704 -2.4077  0.1967  2.1096
   14DOPE   C12 1682   5.993   5.254   6.684 -0.3369 -0.1366 -0.2213
   14DOPE  H12A 1683   5.981   5.335   6.608  1.4621  0.0194 -0.3983
   14DOPE  H12B 1684   6.006   5.154   6.637 -1.6439 -2.0504  3.1789
   14DOPE   C11 1685   6.119   5.284   6.765 -0.6040  1.0602  0.0268
   14DOPE  H11A 1686   6.111   5.382   6.817 -0.9364 -0.0075  2.1106
   14DOPE  H11B 1687   6.203   5.282   6.692 -1.6712  0.2150 -1.2089
   14DOPE     P 1688   6.269   5.158   6.945  0.8063 -0.4676  0.0917
   14DOPE   O13 1689   6.244   5.067   7.060  0.2724  0.0325  0.0681
   14DOPE   O14 1690   6.327   5.282   6.991  0.2097 -0.6283 -0.0043
   14DOPE   O11 1691   6.356   5.084   6.839  0.1378 -0.0045 -0.5513
   14DOPE   O12 1692   6.135   5.185   6.863  0.3938  0.1604  0.3946
   14DOPE    C1 1693   6.306   4.952   6.798  0.8097  0.0862  0.1474
   14DOPE    HA 1694   6.217   4.922   6.857 -0.4316  3.0862 -0.0171
   14DOPE    HB 1695   6.386   4.876   6.817  0.3212 -0.7010 -0.8841
   14DOPE    C2 1696   6.265   4.938   6.646 -0.7520  0.5420 -0.6149
   14DOPE    HS 1697   6.161   4.977   6.645 -1.9608 -2.3899  0.0135
   14DOPE   O21 1698   6.283   4.798   6.604  0.4705 -0.0586  0.1158
   14DOPE   C21 1699   6.189   4.715   6.634  0.2201  0.7670 -0.2371
   14DOPE   O22 1700   6.093   4.738   6.706 -0.1394  0.1837 -0.5595
   14DOPE   C22 1701   6.217   4.570   6.591 -0.2014 -0.6845  0.7894
   14DOPE   H2R 1702   6.117   4.540   6.554 -1.2959 -0.3716  3.2779
   14DOPE   H2S 1703   6.237   4.517   6.687 -1.1209  1.4588  2.2419
   14DOPE    C3 1704   6.361   5.024   6.558  0.3827 -0.5929  1.0030
   14DOPE    HX 1705   6.469   4.994   6.558  0.0320 -2.1503 -1.0230
   14DOPE    HY 1706   6.366   5.130   6.591 -1.3963 -0.3664  0.6268
   14DOPE   O31 1707   6.320   5.013   6.422 -0.9518 -0.2476  0.6639
   14DOPE   C31 1708   6.225   5.090   6.382  0.1369 -0.0744  0.2932
   14DOPE   O32 1709   6.152   5.162   6.451 -0.0558  0.2689  0.4493
   14DOPE   C32 1710   6.209   5.066   6.232  0.3526  0.8579 -0.1388
   14DOPE   H2X 1711   6.306   5.035   6.190  0.4020 -0.4260  0.8672
   14DOPE   H2Y 1712   6.145   4.977   6.214  1.1796  0.1420  0.4272
   14DOPE   C23 1713   6.340   4.550   6.499  0.3225  0.2921  0.5383
   14DOPE   H3R 1714   6.413   4.632   6.514  0.8003 -0.1425  0.6034
   14DOPE   H3S 1715   6.311   4.562   6.393  2.2715 -1.8429 -0.3108
   14DOPE   C24 1716   6.408   4.414   6.504 -0.1596 -0.1062  0.0645
   14DOPE   H4R 1717   6.445   4.409   6.609  2.3316  1.5535 -0.6469
   14DOPE   H4S 1718   6.499   4.422   6.441 -0.7771  1.9146 -0.6431
   14DOPE   C25 1719   6.305   4.298   6.475  0.0964 -0.2632  0.5359
   14DOPE   H5R 1720   6.229   4.296   6.556  0.3422 -1.0656  0.7514
   14DOPE   H5S 1721   6.360   4.201   6.477  0.3857 -0.1431 -0.8806
   14DOPE   C26 1722   6.231   4.312   6.345 -0.5237  0.1028  0.1002
   14DOPE   H6R 1723   6.300   4.300   6.259 -1.6411 -2.0271 -0.5763
   14DOPE   H6S 1724   6.188   4.415   6.340 -1.1434 -0.1801 -0.5189
   14DOPE   C27 1725   6.106   4.218   6.329  0.5943 -0.1481 -0.1739
   14DOPE   H7R 1726   6.036   4.229   6.414 -0.9548 -2.4238 -1.0897
   14DOPE   H7S 1727   6.136   4.111   6.326  0.4264 -0.2567  1.3206
   14DOPE   C28 1728   6.022   4.243   6.204  0.3953 -0.2061 -0.0555
   14DOPE   H8R 1729   6.016   4.353   6.187  1.4159 -0.1718 -0.2298
   14DOPE   H8S 1730   5.918   4.204   6.214  0.5766 -0.8827 -0.7458
   14DOPE   C29 1731   6.061   4.175   6.079  0.1188 -0.4963 -0.0352
   14DOPE   H9R 1732   6.156   4.121   6.085 -0.9058 -2.2296  2.7590
   14DOPE  C210 1733   6.000   4.175   5.956 -0.0887  0.2730  0.0705
   14DOPE  H10R 1734   6.057   4.117   5.882 -0.5728  0.7408 -0.6754
   14DOPE  C211 1735   5.866   4.250   5.912 -0.6880  0.0260  0.1446
   14DOPE  H11R 1736   5.827   4.311   5.996 -0.0521  1.1955 -0.3907
   14DOPE  H11S 1737   5.790   4.177   5.878  0.4269 -1.5483  0.8740
   14DOPE  C212 1738   5.897   4.362   5.803  0.2768 -0.0689  0.6557
   14DOPE  H12R 1739   5.981   4.424   5.842  2.0262 -1.3290 -0.9696
   14DOPE  H12S 1740   5.812   4.428   5.774  0.7580 -0.4271 -1.7369
   14DOPE  C213 1741   5.942   4.314   5.664  0.3973  0.2240  0.2216
   14DOPE  H13R 1742   5.858   4.269   5.607 -1.8388 -0.2067  3.6012
   14DOPE  H13S 1743   6.018   4.234   5.679 -0.3672 -0.2972  1.4689
   14DOPE  C214 1744   6.007   4.432   5.582 -0.4145 -0.4228 -0.6064
   14DOPE  H14R 1745   6.060   4.385   5.496  1.1688  0.4247 -0.1353
   14DOPE  H14S 1746   6.090   4.478   5.639  0.5226 -0.8639 -1.5851
   14DOPE  C215 1747   5.893   4.522   5.523 -0.2565 -0.3100 -0.0775
   14DOPE  H15R 1748   5.837   4.572   5.605 -1.0759 -0.1405 -0.7359
   14DOPE  H15S 1749   5.820   4.451   5.479 -1.7611  0.9698  0.2858
   14DOPE  C216 1750   5.942   4.623   5.414  0.1208  0.5806 -0.8938
   14DOPE  H16R 1751   6.023   4.570   5.360 -0.2618 -0.5583 -0.3815
   14DOPE  H16S 1752   5.983   4.718   5.455  0.4676  0.9473 -2.0405
   14DOPE  C217 1753   5.840   4.672   5.319 -0.1255  0.0398  0.2268
   14DOPE  H17R 1754   5.901   4.724   5.242 -0.5030  0.3797  0.1540
   14DOPE  H17S 1755   5.783   4.758   5.360 -1.6310 -0.0117 -1.6100
   14DOPE  C218 1756   5.747   4.568   5.251  0.2826 -0.4240 -0.3640
   14DOPE  H18R 1757   5.813   4.481   5.230  2.9493  1.4392 -0.1143
   14DOPE  H18S 1758   5.708   4.601   5.152  0.5288  0.4112 -0.1816
   14DOPE  H18T 1759   5.670   4.530   5.321  0.1950  0.4307  0.0146
   14DOPE   C33 1760   6.158   5.188   6.161  0.1234 -0.0142  0.5498
   14DOPE   H3X 1761   6.217   5.274   6.199  0.8689  0.5056 -1.6379
   14DOPE   H3Y 1762   6.050   5.198   6.186 -0.0997  0.0421 -0.4042
   14DOPE   C34 1763   6.173   5.185   6.011 -0.1568  0.5544  0.5516
   14DOPE   H4X 1764   6.269   5.131   5.996 -0.5330  0.1104 -0.3485
   14DOPE   H4Y 1765   6.106   5.102   5.979  2.2700 -3.2695  4.2693
   14DOPE   C35 1766   6.178   5.331   5.945  0.5485 -0.2009 -0.7380
   14DOPE   H5X 1767   6.247   5.400   5.999 -1.7339  2.5303 -1.1448
   14DOPE   H5Y 1768   6.081   5.383   5.958  0.9957  0.5116 -0.1539
   14DOPE   C36 1769   6.214   5.321   5.796 -0.4004  0.0852  0.3146
   14DOPE   H6X 1770   6.159   5.236   5.749 -0.4323  1.0257 -1.4633
   14DOPE   H6Y 1771   6.324   5.312   5.782 -0.2472  0.8228  0.9568
   14DOPE   C37 1772   6.188   5.450   5.712 -0.0375 -0.0890  0.1256
   14DOPE   H7X 1773   6.080   5.468   5.734 -0.3286 -3.3598  1.9365
   14DOPE   H7Y 1774   6.242   5.541   5.745 -3.3196  1.4616  1.6549
   14DOPE   C38 1775   6.201   5.428   5.561  0.5658  0.1147 -0.4614
   14DOPE   H8X 1776   6.154   5.515   5.509  1.5107  0.8883 -0.0683
   14DOPE   H8Y 1777   6.127   5.351   5.532 -0.0793  1.4260 -2.5751
   14DOPE   C39 1778   6.342   5.408   5.520  0.0480 -0.1061  0.0470
   14DOPE   H9X 1779   6.410   5.492   5.541 -0.6909  0.0773  1.7945
   14DOPE  C310 1780   6.389   5.293   5.457 -0.4364 -0.1237  0.5587
   14DOPE  H10X 1781   6.493   5.289   5.420  0.0046  1.0167  1.5786
   14DOPE  C311 1782   6.308   5.172   5.416  0.4002 -0.1554 -0.0033
   14DOPE  H11X 1783   6.199   5.173   5.437 -0.2893 -2.4120 -2.9110
   14DOPE  H11Y 1784   6.326   5.168   5.307 -1.8395  2.0507 -0.5649
   14DOPE  C312 1785   6.352   5.038   5.483  0.8743  0.1332  0.0496
   14DOPE  H12X 1786   6.462   5.024   5.486  0.6706 -1.6608  0.2658
   14DOPE  H12Y 1787   6.310   4.955   5.422 -1.7701  1.7141 -0.4865
   14DOPE  C313 1788   6.297   5.006   5.622 -0.1091 -0.1534 -0.5365
   14DOPE  H13X 1789   6.372   5.054   5.687  0.8881 -0.6845 -1.2737
   14DOPE  H13Y 1790   6.201   5.061   5.633  0.1332  0.5519 -1.7375
   14DOPE  C314 1791   6.279   4.859   5.661  0.1100 -1.0623 -0.2863
   14DOPE  H14X 1792   6.373   4.806   5.634 -0.4823 -1.0113 -2.6852
   14DOPE  H14Y 1793   6.215   4.813   5.583  1.6910 -1.9392 -1.1155
   14DOPE  C315 1794   6.231   4.860   5.813  0.2799 -0.1663 -0.5815
   14DOPE  H15X 1795   6.135   4.915   5.818  1.2321  1.4479  2.7843
   14DOPE  H15Y 1796   6.299   4.916   5.881  0.1468 -1.8054  0.9801
   14DOPE  C316 1797   6.214   4.714   5.867 -0.2629  0.2994  0.7371
   14DOPE  H16X 1798   6.311   4.663   5.852 -0.5326 -0.4853  1.5503
   14DOPE  H16Y 1799   6.130   4.663   5.815  1.2291 -2.3039  0.6916
   14DOPE  C317 1800   6.189   4.718   6.018 -0.3019 -0.3997  0.7261
   14DOPE  H17X 1801   6.289   4.733   6.065 -0.3067  1.0147  0.3456
   14DOPE  H17Y 1802   6.128   4.810   6.029  1.2226  1.1635 -2.5522
   14DOPE  C318 1803   6.127   4.586   6.061 -0.0194  0.4419  0.0041
   14DOPE  H18X 1804   6.124   4.578   6.172 -1.5495 -0.4460 -0.0852
   14DOPE  H18Y 1805   6.025   4.582   6.017 -1.7172  1.7613  3.4253
   14DOPE  H18Z 1806   6.184   4.499   6.023  0.0445  0.8392 -0.8193
   15DOPE     N 1807   0.424   1.613   6.947 -0.2595  0.1171 -0.0255
   15DOPE   HN1 1808   0.447   1.669   6.863 -0.0362  0.9551  0.5726
   15DOPE   HN2 1809   0.320   1.610   6.959 -0.1133 -1.0946  1.1489
   15DOPE   HN3 1810   0.454   1.666   7.032 -0.0024  0.1973 -0.1646
   15DOPE   C12 1811   0.488   1.477   6.947 -0.2722 -0.6006  0.3289
   15DOPE  H12A 1812   0.431   1.423   6.869  0.7371 -1.2261  0.0020
   15DOPE  H12B 1813   0.466   1.421   7.041 -1.6048  0.0801  0.4522
   15DOPE   C11 1814   0.638   1.489   6.906  0.3691  0.0007 -0.0447
   15DOPE  H11A 1815   0.632   1.522   6.800  0.6915 -0.6862 -0.2805
   15DOPE  H11B 1816   0.673   1.384   6.898  0.0200 -0.0804 -0.5312
   15DOPE     P 1817   0.849   1.518   7.057  0.0435  0.1895 -0.1678
   15DOPE   O13 1818   0.797   1.406   7.141 -0.3470  0.7229  0.0153
   15DOPE   O14 1819   0.932   1.620   7.124  0.1797 -0.0728 -0.0517
   15DOPE   O11 1820   0.913   1.444   6.942  0.0604  0.1991 -0.5230
   15DOPE   O12 1821   0.721   1.583   6.985 -0.0348  0.1800  0.5175
   15DOPE    C1 1822   1.023   1.493   6.869  0.5947 -0.3458  0.2134
   15DOPE    HA 1823   1.116   1.450   6.912  0.5717 -2.8778 -2.0213
   15DOPE    HB 1824   1.030   1.603   6.886 -3.2195 -0.0098  0.4535
   15DOPE    C2 1825   1.004   1.483   6.711 -0.7385  0.6264  0.1565
   15DOPE    HS 1826   1.101   1.498   6.659  0.9166 -2.0251  2.2435
   15DOPE   O21 1827   0.900   1.567   6.661 -0.3108 -0.0396  0.4267
   15DOPE   C21 1828   0.917   1.696   6.660 -0.5002  0.2583  0.1260
   15DOPE   O22 1829   1.012   1.757   6.690 -0.3472 -0.4423  0.6902
   15DOPE   C22 1830   0.781   1.765   6.634  0.8861 -0.0850  0.2036
   15DOPE   H2R 1831   0.792   1.876   6.640  0.3955 -0.0465  0.3655
   15DOPE   H2S 1832   0.709   1.726   6.708  0.5281 -1.0156 -0.6101
   15DOPE    C3 1833   0.973   1.340   6.668  0.4570  0.7126 -0.7077
   15DOPE    HX 1834   0.866   1.324   6.693  0.5985 -0.4178 -0.7941
   15DOPE    HY 1835   1.037   1.276   6.733 -0.3770  1.8814  1.3687
   15DOPE   O31 1836   1.002   1.318   6.528  0.1865  0.2691 -0.3313
   15DOPE   C31 1837   0.951   1.205   6.487 -0.2311 -0.6151 -0.6329
   15DOPE   O32 1838   0.906   1.120   6.560  0.0414 -0.0501 -0.1884
   15DOPE   C32 1839   0.974   1.175   6.339 -0.4241 -0.4934 -0.3693
   15DOPE   H2X 1840   1.083   1.193   6.327 -0.0915 -1.3970  1.1808
   15DOPE   H2Y 1841   0.934   1.077   6.305 -0.7599  0.1355 -1.8875
   15DOPE   C23 1842   0.723   1.735   6.487 -0.4901 -0.6285 -0.0906
   15DOPE   H3R 1843   0.619   1.774   6.481 -0.4151 -0.6326 -2.3960
   15DOPE   H3S 1844   0.707   1.626   6.472  0.7820 -0.8353 -0.0246
   15DOPE   C24 1845   0.801   1.801   6.374 -0.3317 -0.3254 -0.4786
   15DOPE   H4R 1846   0.902   1.758   6.358  0.6482  1.2356  1.1003
   15DOPE   H4S 1847   0.804   1.908   6.403 -0.5564 -0.2951 -0.5593
   15DOPE   C25 1848   0.738   1.786   6.236 -0.3350 -0.7860  0.1073
   15DOPE   H5R 1849   0.653   1.858   6.228 -0.8047 -1.0972  1.8286
   15DOPE   H5S 1850   0.698   1.682   6.225  2.1646 -1.8242  0.1175
   15DOPE   C26 1851   0.847   1.804   6.128 -0.5661 -0.5726  0.1554
   15DOPE   H6R 1852   0.917   1.719   6.118 -0.7458 -0.6334 -0.6457
   15DOPE   H6S 1853   0.911   1.893   6.145 -0.2169 -0.6413 -0.7670
   15DOPE   C27 1854   0.784   1.823   5.994  0.3807 -0.2832  0.0248
   15DOPE   H7R 1855   0.727   1.919   6.000  2.3770  1.0688 -1.4922
   15DOPE   H7S 1856   0.708   1.744   5.974 -0.5026  0.5285  0.0798
   15DOPE   C28 1857   0.884   1.828   5.874  0.1903  0.7942  0.2609
   15DOPE   H8R 1858   0.969   1.899   5.887  1.1202 -0.0824 -0.7740
   15DOPE   H8S 1859   0.823   1.861   5.787 -0.1999  0.2590  0.3275
   15DOPE   C29 1860   0.927   1.684   5.858 -0.6651 -0.0077 -0.6560
   15DOPE   H9R 1861   0.909   1.610   5.937  1.2514 -1.1084 -1.1871
   15DOPE  C210 1862   0.999   1.636   5.751  0.0148  0.1115  0.4686
   15DOPE  H10R 1863   1.027   1.530   5.743 -0.7781 -0.1300  0.7287
   15DOPE  C211 1864   1.044   1.716   5.627  0.3759 -0.7873 -0.0572
   15DOPE  H11R 1865   1.153   1.698   5.621  0.3845 -0.2408 -2.0634
   15DOPE  H11S 1866   1.029   1.826   5.633 -0.1387 -0.8763  0.4670
   15DOPE  C212 1867   0.965   1.677   5.503  0.2691 -0.3097 -0.4022
   15DOPE  H12R 1868   1.015   1.745   5.431  0.3417  0.0261 -0.0412
   15DOPE  H12S 1869   0.854   1.688   5.507  0.3043  0.0605 -0.3813
   15DOPE  C213 1870   1.007   1.541   5.458 -0.4693  0.1811 -0.3559
   15DOPE  H13R 1871   0.962   1.456   5.514  1.9370  0.9891  3.1171
   15DOPE  H13S 1872   1.117   1.538   5.468 -0.5011  2.8864  2.0976
   15DOPE  C214 1873   0.967   1.526   5.311 -0.0167  0.1051  0.0912
   15DOPE  H14R 1874   0.993   1.611   5.244 -0.5552  0.3467  0.1798
   15DOPE  H14S 1875   0.856   1.522   5.309 -0.0264  0.4919 -0.3883
   15DOPE  C215 1876   1.021   1.399   5.236  0.3616 -0.3496 -0.1337
   15DOPE  H15R 1877   0.985   1.414   5.132  0.8547  1.9333 -0.0347
   15DOPE  H15S 1878   0.960   1.313   5.271 -2.1385  0.7875 -1.3832
   15DOPE  C216 1879   1.171   1.368   5.247  0.4757 -0.2823  0.7691
   15DOPE  H16R 1880   1.182   1.346   5.356 -0.0121  0.6004  1.0095
   15DOPE  H16S 1881   1.227   1.457   5.211 -1.1358  0.1948 -0.6828
   15DOPE  C217 1882   1.208   1.237   5.176  0.3724  0.1483 -0.5893
   15DOPE  H17R 1883   1.191   1.248   5.067 -2.0402  3.1423 -0.0376
   15DOPE  H17S 1884   1.144   1.156   5.215  0.3209  0.2866 -0.3848
   15DOPE  C218 1885   1.347   1.211   5.211  0.2584  0.0674  0.4350
   15DOPE  H18R 1886   1.354   1.187   5.320  3.0424 -1.3531  0.0411
   15DOPE  H18S 1887   1.410   1.301   5.190 -1.7238  0.9402 -2.1820
   15DOPE  H18T 1888   1.393   1.125   5.158 -1.3366 -0.6187  0.1101
   15DOPE   C33 1889   0.908   1.280   6.244  0.6597 -0.0344 -0.7609
   15DOPE   H3X 1890   0.928   1.387   6.268  0.6991 -0.0143 -0.8826
   15DOPE   H3Y 1891   0.799   1.261   6.258  0.7210  0.0333 -0.1258
   15DOPE   C34 1892   0.948   1.268   6.100 -0.4259 -0.6047  0.3335
   15DOPE   H4X 1893   0.921   1.168   6.060 -1.1091 -0.0758 -0.5582
   15DOPE   H4Y 1894   0.892   1.340   6.036 -0.2758 -0.8883 -0.1169
   15DOPE   C35 1895   1.101   1.294   6.072  0.3875  0.4289 -0.3989
   15DOPE   H5X 1896   1.170   1.234   6.135 -0.1071 -0.5171 -0.7339
   15DOPE   H5Y 1897   1.120   1.399   6.104 -1.0398  0.4394  0.4974
   15DOPE   C36 1898   1.116   1.266   5.926  0.8334 -0.5126  0.2684
   15DOPE   H6X 1899   1.018   1.285   5.877  1.7435 -0.4563 -1.6252
   15DOPE   H6Y 1900   1.126   1.156   5.915 -2.1646 -0.7965 -0.6807
   15DOPE   C37 1901   1.228   1.335   5.852  0.1240 -0.0103 -0.2994
   15DOPE   H7X 1902   1.205   1.443   5.859 -1.4713 -0.3621  0.2432
   15DOPE   H7Y 1903   1.326   1.327   5.904 -0.5359  0.2391  0.9977
   15DOPE   C38 1904   1.244   1.288   5.705 -0.0193 -0.0630  0.2621
   15DOPE   H8X 1905   1.144   1.302   5.660  0.0619  2.6529  0.7860
   15DOPE   H8Y 1906   1.268   1.179   5.706 -0.2079 -0.1046  0.9569
   15DOPE   C39 1907   1.352   1.380   5.652 -0.4898  0.4518  0.2956
   15DOPE   H9X 1908   1.312   1.481   5.635 -1.1181  0.0484 -0.6945
   15DOPE  C310 1909   1.478   1.344   5.608  0.0900  0.0602 -0.1854
   15DOPE  H10X 1910   1.541   1.417   5.555 -1.3614  0.1727 -1.8856
   15DOPE  C311 1911   1.525   1.201   5.606 -0.2230  0.5742  0.1835
   15DOPE  H11X 1912   1.575   1.172   5.701  0.2698 -0.7077 -0.4530
   15DOPE  H11Y 1913   1.439   1.136   5.579  0.4258 -0.5091  0.6821
   15DOPE  C312 1914   1.634   1.172   5.499 -0.0793 -0.2475 -0.1785
   15DOPE  H12X 1915   1.598   1.205   5.399  2.2309  0.6217 -0.8001
   15DOPE  H12Y 1916   1.648   1.061   5.497  0.0733 -0.2352  0.1994
   15DOPE  C313 1917   1.766   1.239   5.531  0.7937 -0.0754  0.8844
   15DOPE  H13X 1918   1.756   1.349   5.544 -0.7162  0.0177 -0.7113
   15DOPE  H13Y 1919   1.802   1.202   5.629  0.3112  0.5291  1.2965
   15DOPE  C314 1920   1.870   1.214   5.416 -0.5157 -0.1432  0.1406
   15DOPE  H14X 1921   1.829   1.236   5.315  2.6378  1.4989 -0.9271
   15DOPE  H14Y 1922   1.907   1.110   5.404  1.8059  0.6350 -0.0316
   15DOPE  C315 1923   1.997   1.301   5.429  0.1442 -0.5374  0.1712
   15DOPE  H15X 1924   2.051   1.277   5.523  1.7708 -0.3719 -0.6713
   15DOPE  H15Y 1925   1.987   1.412   5.425  1.5717 -0.4133 -1.4775
   15DOPE  C316 1926   2.093   1.277   5.306 -0.6720 -1.2096  0.0142
   15DOPE  H16X 1927   2.071   1.350   5.225  1.2217  1.0469  1.4046
   15DOPE  H16Y 1928   2.079   1.173   5.271 -0.6814 -1.9865  2.1863
   15DOPE  C317 1929   2.248   1.288   5.342  0.2296  0.1654  0.4403
   15DOPE  H17X 1930   2.280   1.215   5.419  0.2586 -0.3927 -0.0966
   15DOPE  H17Y 1931   2.299   1.265   5.246  1.4264  0.1679  1.0650
   15DOPE  C318 1932   2.298   1.423   5.392  0.1207  0.0399 -0.4555
   15DOPE  H18X 1933   2.260   1.458   5.490  1.8844  0.2510  0.1877
   15DOPE  H18Y 1934   2.408   1.413   5.395  0.4899  2.4065 -2.5124
   15DOPE  H18Z 1935   2.269   1.504   5.322  2.4526 -0.4252 -2.0800
   16DOPE     N 1936   1.005   4.229   6.973  0.6417  0.2175  0.2518
   16DOPE   HN1 1937   1.069   4.289   6.918  0.4639 -1.6852 -2.1814
   16DOPE   HN2 1938   1.046   4.180   7.055 -1.3709 -0.9089  0.6423
   16DOPE   HN3 1939   0.964   4.162   6.905 -0.2200  0.1691  0.7974
   16DOPE   C12 1940   0.890   4.309   7.027  0.0478 -0.6911 -0.0293
   16DOPE  H12A 1941   0.900   4.405   6.972 -0.5303 -0.4233  0.3328
   16DOPE  H12B 1942   0.907   4.317   7.136  2.5921  2.7952 -0.4953
   16DOPE   C11 1943   0.761   4.234   6.980  0.0623 -0.6758 -0.3208
   16DOPE  H11A 1944   0.674   4.301   6.999  0.2307 -0.6451  0.3531
   16DOPE  H11B 1945   0.750   4.146   7.046  2.6340 -0.2428  0.8000
   16DOPE     P 1946   0.647   4.091   6.787 -0.1482  0.5968  0.0477
   16DOPE   O13 1947   0.580   4.037   6.909 -0.3336  0.3544 -0.1649
   16DOPE   O14 1948   0.700   3.993   6.693 -0.5199  0.0666 -0.0952
   16DOPE   O11 1949   0.542   4.177   6.715  0.3300 -0.3356  0.3522
   16DOPE   O12 1950   0.765   4.191   6.840  0.5264  0.5630  0.1526
   16DOPE    C1 1951   0.579   4.287   6.628  0.0767 -0.5420 -0.9888
   16DOPE    HA 1952   0.654   4.354   6.677  0.0161 -0.6103 -0.8030
   16DOPE    HB 1953   0.490   4.348   6.600 -1.8356 -2.3731  0.8261
   16DOPE    C2 1954   0.639   4.240   6.499 -0.5653 -0.0307  0.0740
   16DOPE    HS 1955   0.729   4.178   6.518 -0.6153  0.1515  0.9062
   16DOPE   O21 1956   0.662   4.354   6.410 -0.0953  0.5008  0.3745
   16DOPE   C21 1957   0.780   4.399   6.413  0.6363 -0.8619  0.2868
   16DOPE   O22 1958   0.867   4.368   6.489 -0.2879  0.0175  0.8895
   16DOPE   C22 1959   0.789   4.508   6.299 -0.4132 -0.2135  0.3743
   16DOPE   H2R 1960   0.890   4.555   6.301 -0.1064 -0.6145 -2.5073
   16DOPE   H2S 1961   0.715   4.589   6.319  0.6946  0.5698  1.4774
   16DOPE    C3 1962   0.545   4.141   6.422  0.1872 -1.3499  0.1534
   16DOPE    HX 1963   0.443   4.185   6.434  0.5690 -0.5002  0.3381
   16DOPE    HY 1964   0.541   4.054   6.491 -0.1080  0.0365  1.9609
   16DOPE   O31 1965   0.578   4.120   6.283  0.6050  0.1252 -0.5992
   16DOPE   C31 1966   0.642   4.008   6.262  0.6556 -0.7701  0.2305
   16DOPE   O32 1967   0.666   3.928   6.347  0.9240 -0.1995 -0.0215
   16DOPE   C32 1968   0.687   3.997   6.118  0.3795 -0.0505  0.3613
   16DOPE   H2X 1969   0.622   4.063   6.057  1.7488  1.1075  0.1007
   16DOPE   H2Y 1970   0.789   4.039   6.104  0.0696  0.9076  0.8749
   16DOPE   C23 1971   0.749   4.467   6.154 -0.7045  0.2286 -0.2024
   16DOPE   H3R 1972   0.733   4.555   6.088 -0.3433  0.1290 -0.4249
   16DOPE   H3S 1973   0.657   4.405   6.156 -0.6663  0.1781  0.0183
   16DOPE   C24 1974   0.850   4.367   6.085  0.1007 -0.2735 -0.0379
   16DOPE   H4R 1975   0.869   4.275   6.145  3.2545  1.0698  1.2471
   16DOPE   H4S 1976   0.952   4.410   6.098  0.4893 -1.0824 -0.3100
   16DOPE   C25 1977   0.831   4.359   5.933  0.3238  0.1943  0.4078
   16DOPE   H5R 1978   0.850   4.450   5.872 -1.6281 -0.1836 -0.8220
   16DOPE   H5S 1979   0.720   4.354   5.930  0.3382 -0.1417  0.3973
   16DOPE   C26 1980   0.895   4.236   5.874 -0.6497 -0.1324 -0.0948
   16DOPE   H6R 1981   0.831   4.146   5.888 -2.7655  0.9466 -2.0870
   16DOPE   H6S 1982   0.991   4.232   5.929 -1.2942  1.8298  1.2848
   16DOPE   C27 1983   0.924   4.258   5.723 -0.2991  0.2804  0.0887
   16DOPE   H7R 1984   1.035   4.266   5.714 -0.2051 -0.6416  0.2766
   16DOPE   H7S 1985   0.857   4.341   5.693 -1.0335 -0.1534  0.4948
   16DOPE   C28 1986   0.883   4.136   5.628 -0.2525  0.3109 -0.2337
   16DOPE   H8R 1987   0.939   4.049   5.667 -0.1847  0.9046  1.0335
   16DOPE   H8S 1988   0.930   4.162   5.530  1.4121 -0.2116  0.3932
   16DOPE   C29 1989   0.735   4.111   5.616  0.6762  0.2814  0.5531
   16DOPE   H9R 1990   0.667   4.197   5.612 -0.7404 -0.7947  0.5252
   16DOPE  C210 1991   0.675   3.989   5.616 -0.1829  0.2005  0.3347
   16DOPE  H10R 1992   0.567   3.981   5.596 -0.0740 -2.4923  0.4261
   16DOPE  C211 1993   0.747   3.865   5.632 -0.3100  0.0796 -0.1750
   16DOPE  H11R 1994   0.680   3.794   5.687  0.0341 -0.6256 -0.6514
   16DOPE  H11S 1995   0.835   3.874   5.700 -0.1937 -1.5627 -0.0726
   16DOPE  C212 1996   0.768   3.794   5.497  0.3785  0.6249  0.1066
   16DOPE  H12R 1997   0.824   3.701   5.518  1.5459  0.6433 -2.4626
   16DOPE  H12S 1998   0.842   3.840   5.427 -1.2431  0.5368 -1.7582
   16DOPE  C213 1999   0.644   3.760   5.412 -0.2684 -0.4121  0.2657
   16DOPE  H13R 2000   0.673   3.728   5.310  0.9469 -2.0871  1.0703
   16DOPE  H13S 2001   0.597   3.860   5.409  1.0391  0.3769  2.9556
   16DOPE  C214 2002   0.554   3.649   5.479  0.1407  0.3716 -0.0867
   16DOPE  H14R 2003   0.567   3.646   5.589 -1.6643  1.5284  0.2028
   16DOPE  H14S 2004   0.596   3.556   5.435 -0.3457  0.9076 -1.7308
   16DOPE  C215 2005   0.404   3.634   5.452 -0.6272  0.2335 -0.1691
   16DOPE  H15R 2006   0.392   3.631   5.342  0.5816 -0.8401 -0.3018
   16DOPE  H15S 2007   0.344   3.721   5.487  0.2623  1.4376 -1.5338
   16DOPE  C216 2008   0.345   3.503   5.506  0.0604 -0.0364 -0.5542
   16DOPE  H16R 2009   0.370   3.417   5.439 -0.6357 -0.3471 -0.4219
   16DOPE  H16S 2010   0.236   3.523   5.505  0.1098  0.2765  0.0236
   16DOPE  C217 2011   0.387   3.473   5.655 -0.0859 -0.8330  0.0097
   16DOPE  H17R 2012   0.375   3.559   5.725  0.6075  1.5514 -2.6391
   16DOPE  H17S 2013   0.497   3.458   5.645 -0.1159 -0.3243 -1.2191
   16DOPE  C218 2014   0.310   3.352   5.707  0.2626  0.0422 -0.2362
   16DOPE  H18R 2015   0.202   3.375   5.708  0.1264 -0.5144  1.4233
   16DOPE  H18S 2016   0.342   3.321   5.809  0.1632  4.4452  1.3467
   16DOPE  H18T 2017   0.319   3.259   5.646 -1.7329  0.0127 -0.5568
   16DOPE   C33 2018   0.655   3.862   6.053  0.1431 -0.1150  0.5183
   16DOPE   H3X 2019   0.674   3.777   6.121  2.5159 -0.4446 -0.4768
   16DOPE   H3Y 2020   0.717   3.844   5.963 -1.9190  0.5869 -1.1402
   16DOPE   C34 2021   0.507   3.854   6.002  0.9101  0.6806 -0.3264
   16DOPE   H4X 2022   0.442   3.885   6.086 -0.3804  1.7801 -1.6866
   16DOPE   H4Y 2023   0.500   3.918   5.911  2.2582  0.8180 -0.3530
   16DOPE   C35 2024   0.457   3.716   5.949 -0.3202  0.0793 -0.2642
   16DOPE   H5X 2025   0.515   3.697   5.856  0.5539 -1.5487  0.5780
   16DOPE   H5Y 2026   0.352   3.733   5.915 -1.1617  1.1557  2.5817
   16DOPE   C36 2027   0.453   3.603   6.047 -0.3654  0.6769 -0.0520
   16DOPE   H6X 2028   0.550   3.550   6.059 -0.4343  0.7627  0.9416
   16DOPE   H6Y 2029   0.386   3.522   6.011  0.7238  0.2703 -1.2746
   16DOPE   C37 2030   0.390   3.637   6.185 -0.8671  0.3952 -0.5322
   16DOPE   H7X 2031   0.397   3.548   6.252  1.3260  2.0587  1.5961
   16DOPE   H7Y 2032   0.447   3.712   6.242  1.6317 -0.5129 -1.6993
   16DOPE   C38 2033   0.240   3.674   6.190 -0.0514  0.2804  0.3976
   16DOPE   H8X 2034   0.186   3.582   6.161 -1.9683  1.5394 -0.1826
   16DOPE   H8Y 2035   0.211   3.742   6.107 -1.3307 -0.2288  0.4206
   16DOPE   C39 2036   0.174   3.724   6.316  0.1235  0.3356 -0.1675
   16DOPE   H9X 2037   0.157   3.645   6.391  0.7268 -0.7413 -1.1263
   16DOPE  C310 2038   0.152   3.850   6.355  0.2101 -0.1390  0.5281
   16DOPE  H10X 2039   0.109   3.876   6.453 -0.8162 -0.4567  0.1726
   16DOPE  C311 2040   0.193   3.969   6.268 -1.3867  0.1695  0.8468
   16DOPE  H11X 2041   0.243   4.038   6.339 -2.0255 -1.2588  2.7586
   16DOPE  H11Y 2042   0.277   3.945   6.199 -0.6532  3.2981  0.5345
   16DOPE  C312 2043   0.084   4.047   6.200 -0.1739  0.1988 -0.4069
   16DOPE  H12X 2044   0.125   4.142   6.160 -1.1863  1.7208  2.0104
   16DOPE  H12Y 2045   0.003   4.072   6.271  0.0945  0.5105 -0.2090
   16DOPE  C313 2046   0.033   3.972   6.076  0.0972  0.1092  0.7208
   16DOPE  H13X 2047   0.122   3.932   6.024  0.1497  0.2663  0.6920
   16DOPE  H13Y 2048  -0.024   3.883   6.112 -0.0620 -0.5259 -1.0371
   16DOPE  C314 2049  -0.057   4.063   5.997  0.2897  0.3556  0.3232
   16DOPE  H14X 2050  -0.010   4.161   5.973  1.2171 -0.3303 -0.7098
   16DOPE  H14Y 2051  -0.149   4.084   6.057 -1.7888 -3.7668 -1.0738
   16DOPE  C315 2052  -0.101   4.004   5.870  0.1860 -0.0531  0.1398
   16DOPE  H15X 2053  -0.149   3.905   5.887 -1.2811  0.3589 -1.2621
   16DOPE  H15Y 2054  -0.016   3.989   5.800 -0.5785 -1.6496 -0.4911
   16DOPE  C316 2055  -0.205   4.095   5.805 -0.1764  0.9897 -0.3602
   16DOPE  H16X 2056  -0.280   4.140   5.873  0.8774  0.1343  1.4396
   16DOPE  H16Y 2057  -0.250   4.017   5.740  1.6934 -1.3482  0.9862
   16DOPE  C317 2058  -0.133   4.200   5.718  0.3940 -0.2779  0.1019
   16DOPE  H17X 2059  -0.089   4.278   5.783 -0.4204  0.9040 -0.7281
   16DOPE  H17Y 2060  -0.055   4.139   5.668 -1.4217 -0.2934 -2.9072
   16DOPE  C318 2061  -0.229   4.246   5.606  1.2336 -0.1702  0.2728
   16DOPE  H18X 2062  -0.311   4.306   5.651  1.5641 -0.3139  1.0848
   16DOPE  H18Y 2063  -0.170   4.293   5.525  0.3357  0.8865  0.2033
   16DOPE  H18Z 2064  -0.285   4.160   5.563 -0.8386  1.6207 -0.8233
   17DOPE     N 2065   2.572   7.615   7.256  0.0598 -0.2398 -0.4905
   17DOPE   HN1 2066   2.497   7.669   7.304  0.7637 -1.1345  1.7610
   17DOPE   HN2 2067   2.581   7.516   7.285  0.6267  0.0153  0.2246
   17DOPE   HN3 2068   2.663   7.651   7.290  1.1057 -2.4470 -0.7658
   17DOPE   C12 2069   2.577   7.619   7.108 -0.3619 -0.3001  0.1314
   17DOPE  H12A 2070   2.680   7.643   7.074 -0.2109 -2.9449 -1.5603
   17DOPE  H12B 2071   2.518   7.710   7.082 -0.1605 -0.9019 -2.7734
   17DOPE   C11 2072   2.537   7.484   7.038 -0.2434  0.5502  0.0700
   17DOPE  H11A 2073   2.537   7.497   6.928 -2.7661 -0.9518 -0.1746
   17DOPE  H11B 2074   2.431   7.476   7.071 -0.7431 -1.2045 -1.8200
   17DOPE     P 2075   2.552   7.230   7.043  0.0687 -0.1954 -0.1333
   17DOPE   O13 2076   2.412   7.228   7.086  0.6229  0.5845 -0.5185
   17DOPE   O14 2077   2.636   7.120   7.098 -0.4746  0.3619  0.3190
   17DOPE   O11 2078   2.565   7.227   6.886  0.4350 -0.1847 -0.2258
   17DOPE   O12 2079   2.613   7.375   7.091  0.0206  0.3564 -0.0643
   17DOPE    C1 2080   2.676   7.274   6.814 -0.0153 -0.5809 -0.0903
   17DOPE    HA 2081   2.757   7.199   6.799 -0.8526 -1.4854 -0.1572
   17DOPE    HB 2082   2.723   7.356   6.873  0.5631 -0.1928 -1.0689
   17DOPE    C2 2083   2.641   7.339   6.675 -0.0804 -0.6696  0.2347
   17DOPE    HS 2084   2.568   7.419   6.704  0.8954  0.0565  0.7464
   17DOPE   O21 2085   2.580   7.240   6.588 -0.5045 -0.4864  0.1831
   17DOPE   C21 2086   2.484   7.281   6.501 -0.4403  0.1134  0.1249
   17DOPE   O22 2087   2.439   7.395   6.501 -0.0241  0.1047  0.2847
   17DOPE   C22 2088   2.468   7.156   6.415  0.1880 -0.2726 -0.3912
   17DOPE   H2R 2089   2.424   7.079   6.483 -2.2940  0.0082 -1.5500
   17DOPE   H2S 2090   2.566   7.119   6.378  1.8234  3.1257  0.1823
   17DOPE    C3 2091   2.763   7.407   6.613  0.0989  0.3307  0.4055
   17DOPE    HX 2092   2.850   7.338   6.605 -0.1857  0.0745 -0.7510
   17DOPE    HY 2093   2.792   7.489   6.681  3.1667 -0.9961  0.8533
   17DOPE   O31 2094   2.736   7.449   6.477 -0.1812 -0.6830 -0.0333
   17DOPE   C31 2095   2.721   7.577   6.462 -0.1416 -0.7803 -0.0233
   17DOPE   O32 2096   2.716   7.659   6.554  0.3380 -0.0836  0.1083
   17DOPE   C32 2097   2.717   7.609   6.310  0.2675 -0.0442 -0.7693
   17DOPE   H2X 2098   2.643   7.547   6.255  0.4433 -0.6792 -0.2998
   17DOPE   H2Y 2099   2.694   7.717   6.297  1.5721  0.3677  0.0488
   17DOPE   C23 2100   2.357   7.181   6.308  0.2421 -0.1061 -0.8988
   17DOPE   H3R 2101   2.267   7.233   6.347 -0.4993 -2.4072  0.6200
   17DOPE   H3S 2102   2.312   7.091   6.262 -0.5509 -1.2320  1.8608
   17DOPE   C24 2103   2.415   7.271   6.195 -0.7928 -1.0232 -0.1200
   17DOPE   H4R 2104   2.446   7.363   6.250 -1.2718 -0.7067 -0.3661
   17DOPE   H4S 2105   2.337   7.287   6.117  0.3819 -1.0376 -1.3338
   17DOPE   C25 2106   2.538   7.203   6.125 -0.0766  0.3884 -0.5360
   17DOPE   H5R 2107   2.530   7.093   6.129 -1.2475  0.3607 -2.4754
   17DOPE   H5S 2108   2.630   7.242   6.174 -0.1671 -0.8418  0.6698
   17DOPE   C26 2109   2.536   7.224   5.971  0.6332  0.2941 -0.5989
   17DOPE   H6R 2110   2.511   7.330   5.948  1.2632  0.2304 -1.6612
   17DOPE   H6S 2111   2.456   7.156   5.934  1.1799 -1.8839  1.9801
   17DOPE   C27 2112   2.662   7.180   5.888 -0.3406  0.1906 -0.7862
   17DOPE   H7R 2113   2.676   7.088   5.948 -1.0961 -0.0071 -0.8978
   17DOPE   H7S 2114   2.747   7.251   5.899  0.8513 -1.2640 -0.3739
   17DOPE   C28 2115   2.631   7.160   5.739  0.1773 -0.4447 -0.2684
   17DOPE   H8R 2116   2.548   7.087   5.732 -0.0686 -0.0872 -1.3567
   17DOPE   H8S 2117   2.728   7.118   5.706  0.8757  0.9401 -0.0890
   17DOPE   C29 2118   2.621   7.279   5.652  0.2830 -0.8623  0.2696
   17DOPE   H9R 2119   2.712   7.338   5.633 -1.2484  1.4707 -0.3145
   17DOPE  C210 2120   2.505   7.323   5.591  0.0402  0.1329 -0.7021
   17DOPE  H10R 2121   2.501   7.414   5.529 -2.0812 -1.1529 -2.5970
   17DOPE  C211 2122   2.374   7.258   5.606  0.3697 -0.1451 -0.1661
   17DOPE  H11R 2123   2.364   7.164   5.664 -1.8005  0.3934  0.4295
   17DOPE  H11S 2124   2.335   7.225   5.508 -1.4900 -0.4565  0.6403
   17DOPE  C212 2125   2.264   7.360   5.646 -0.3860  0.4255  0.1279
   17DOPE  H12R 2126   2.171   7.304   5.622 -0.2280 -0.2368  1.0204
   17DOPE  H12S 2127   2.268   7.456   5.590  0.9274 -0.5705 -1.5587
   17DOPE  C213 2128   2.259   7.390   5.798  0.3621  0.2286  0.3132
   17DOPE  H13R 2129   2.340   7.465   5.815  1.4094 -0.5769 -0.9478
   17DOPE  H13S 2130   2.281   7.294   5.848  2.8229  0.7523  0.3532
   17DOPE  C214 2131   2.122   7.434   5.840  0.0935 -0.2125 -0.7109
   17DOPE  H14R 2132   2.032   7.380   5.804 -0.7048  0.8950 -0.4537
   17DOPE  H14S 2133   2.108   7.539   5.807  2.7219  0.9327  1.4554
   17DOPE  C215 2134   2.117   7.460   5.996 -0.6004 -0.0569  0.4988
   17DOPE  H15R 2135   2.108   7.364   6.052 -2.5191 -0.4785 -0.4420
   17DOPE  H15S 2136   2.031   7.525   6.022 -1.5728 -1.7896  1.8826
   17DOPE  C216 2137   2.230   7.554   6.047  0.4748 -0.0769 -0.2341
   17DOPE  H16R 2138   2.219   7.650   5.992 -2.7074  1.4275  2.6476
   17DOPE  H16S 2139   2.331   7.511   6.025  1.3022  1.1633  0.9472
   17DOPE  C217 2140   2.218   7.583   6.199 -0.6334  0.0897 -0.2102
   17DOPE  H17R 2141   2.225   7.481   6.243  0.1411  0.6589  1.0266
   17DOPE  H17S 2142   2.120   7.631   6.217 -0.5082 -0.7620  3.3311
   17DOPE  C218 2143   2.342   7.665   6.245 -0.0021 -0.4645  0.6346
   17DOPE  H18R 2144   2.425   7.622   6.185 -1.5447 -0.6194 -1.4605
   17DOPE  H18S 2145   2.365   7.673   6.354 -0.7175  2.4902  0.6544
   17DOPE  H18T 2146   2.342   7.771   6.213 -0.3062 -0.4659  0.6334
   17DOPE   C33 2147   2.855   7.589   6.230  0.3130  0.0014  0.5377
   17DOPE   H3X 2148   2.811   7.602   6.129  0.4971  1.7824  0.6465
   17DOPE   H3Y 2149   2.886   7.484   6.245 -1.4209 -0.7259 -0.6834
   17DOPE   C34 2150   2.962   7.694   6.267 -0.4982 -0.1438 -0.1655
   17DOPE   H4X 2151   2.921   7.797   6.253 -0.9370 -0.3955 -0.7777
   17DOPE   H4Y 2152   2.981   7.676   6.375 -1.6416 -0.4850 -0.0077
   17DOPE   C35 2153   3.097   7.675   6.194 -0.3121  0.1598  0.7436
   17DOPE   H5X 2154   3.091   7.688   6.084 -1.5987 -1.1933  0.6162
   17DOPE   H5Y 2155   3.115   7.566   6.210 -1.0030 -0.3557 -1.5161
   17DOPE   C36 2156   3.212   7.765   6.253 -0.5881 -0.9391  0.2798
   17DOPE   H6X 2157   3.245   7.719   6.348  1.0724  1.0267  0.7289
   17DOPE   H6Y 2158   3.178   7.871   6.256 -2.3441 -1.4351 -0.5778
   17DOPE   C37 2159   3.340   7.769   6.165  0.8818 -0.4774 -0.0016
   17DOPE   H7X 2160   3.433   7.784   6.225  1.5579 -0.2123 -1.0893
   17DOPE   H7Y 2161   3.337   7.670   6.115  0.6536 -1.0668  1.1355
   17DOPE   C38 2162   3.329   7.879   6.058 -0.7305 -0.6452  0.6862
   17DOPE   H8X 2163   3.326   7.981   6.102 -1.3697 -1.4437  2.5949
   17DOPE   H8Y 2164   3.234   7.864   6.002  1.2089  0.5884 -3.3278
   17DOPE   C39 2165   3.443   7.870   5.956  0.1250  0.1644  0.4951
   17DOPE   H9X 2166   3.539   7.890   6.005  0.2664 -0.3304  0.4318
   17DOPE  C310 2167   3.441   7.846   5.821  0.0115  0.1580 -0.7202
   17DOPE  H10X 2168   3.537   7.856   5.767 -0.3034 -1.3161 -1.6141
   17DOPE  C311 2169   3.321   7.812   5.738  0.5061 -0.8407  0.1771
   17DOPE  H11X 2170   3.339   7.749   5.648 -2.0430 -0.2628 -0.8416
   17DOPE  H11Y 2171   3.256   7.749   5.803 -4.2053  2.6073 -0.6212
   17DOPE  C312 2172   3.236   7.937   5.707  0.4030  0.6602 -0.4623
   17DOPE  H12X 2173   3.217   7.993   5.802 -1.5075  1.0924 -1.0570
   17DOPE  H12Y 2174   3.141   7.903   5.662 -0.9773  3.7810 -0.1789
   17DOPE  C313 2175   3.310   8.016   5.603  0.3146  0.1735  0.0927
   17DOPE  H13X 2176   3.397   8.069   5.647 -0.6662 -0.8046  3.5715
   17DOPE  H13Y 2177   3.357   7.944   5.533  0.5919  0.2360  0.2129
   17DOPE  C314 2178   3.218   8.109   5.528 -0.1315  0.3354  0.5064
   17DOPE  H14X 2179   3.252   8.214   5.539 -0.3905  0.5776 -0.8374
   17DOPE  H14Y 2180   3.118   8.112   5.577 -0.2891 -4.6089  0.9872
   17DOPE  C315 2181   3.223   8.077   5.374  0.0560  0.2218 -0.4496
   17DOPE  H15X 2182   3.164   7.985   5.355 -0.4127  0.3899  0.1488
   17DOPE  H15Y 2183   3.331   8.066   5.351  0.6591  0.7931  1.8168
   17DOPE  C316 2184   3.172   8.194   5.288  0.2286  0.5233 -0.0091
   17DOPE  H16X 2185   3.226   8.283   5.325  0.3774  1.0418 -1.3948
   17DOPE  H16Y 2186   3.069   8.208   5.328  0.8970  0.2094  1.9029
   17DOPE  C317 2187   3.169   8.171   5.138 -0.8953 -0.0273  0.7027
   17DOPE  H17X 2188   3.109   8.082   5.110  0.3720 -0.6860 -0.0073
   17DOPE  H17Y 2189   3.116   8.254   5.088  1.6342  0.1597 -1.8994
   17DOPE  C318 2190   3.315   8.167   5.076 -0.5408  0.4831 -0.1396
   17DOPE  H18X 2191   3.315   8.122   4.975 -0.7870 -0.0050  0.0758
   17DOPE  H18Y 2192   3.361   8.267   5.063 -2.8584  1.5375 -0.7711
   17DOPE  H18Z 2193   3.384   8.099   5.131 -0.2716 -0.1841 -1.2609
   18DOPE     N 2194   0.041   3.831   7.042  0.4181 -0.4406  0.1346
   18DOPE   HN1 2195  -0.061   3.837   7.061  0.2867 -4.4995  1.6774
   18DOPE   HN2 2196   0.056   3.731   7.020  1.6161 -0.3408  0.4141
   18DOPE   HN3 2197   0.089   3.863   7.129 -0.7918  1.5808  0.1302
   18DOPE   C12 2198   0.075   3.928   6.937 -0.0860  0.2607  0.1326
   18DOPE  H12A 2199   0.030   3.893   6.842  0.5579 -2.2765  0.7097
   18DOPE  H12B 2200   0.185   3.940   6.929 -0.1501  1.7484  1.0173
   18DOPE   C11 2201   0.017   4.070   6.966  1.0133  0.6613  0.2408
   18DOPE  H11A 2202   0.051   4.134   6.882  0.6887  0.2850 -0.1881
   18DOPE  H11B 2203   0.046   4.121   7.060  0.2831 -0.0569  0.8684
   18DOPE     P 2204  -0.219   4.189   6.953  0.0543  0.1661 -0.1126
   18DOPE   O13 2205  -0.191   4.265   7.082 -0.0230  0.1624  0.2945
   18DOPE   O14 2206  -0.358   4.156   6.917 -0.0765 -0.7247 -0.5554
   18DOPE   O11 2207  -0.146   4.267   6.829  0.9428  0.6050  0.5341
   18DOPE   O12 2208  -0.122   4.059   6.967  0.2547 -0.1044  0.0372
   18DOPE    C1 2209  -0.144   4.203   6.693 -0.1738  0.0511 -0.4456
   18DOPE    HA 2210  -0.244   4.160   6.668  0.5061 -1.2927 -0.9589
   18DOPE    HB 2211  -0.074   4.116   6.690 -1.7137 -1.2642 -0.0222
   18DOPE    C2 2212  -0.109   4.314   6.592 -0.2631 -1.0518 -0.4829
   18DOPE    HS 2213  -0.169   4.405   6.610  1.1057  0.4047 -2.7502
   18DOPE   O21 2214  -0.135   4.263   6.460  0.2608 -1.0084 -0.1120
   18DOPE   C21 2215  -0.260   4.279   6.419  0.5768 -0.7703  0.1611
   18DOPE   O22 2216  -0.352   4.298   6.497  0.1560  0.1118 -0.2427
   18DOPE   C22 2217  -0.263   4.245   6.278 -0.2971  0.5031 -0.9485
   18DOPE   H2R 2218  -0.276   4.135   6.272  0.0272  0.2402  1.7856
   18DOPE   H2S 2219  -0.170   4.269   6.224  0.2621 -0.6001 -0.5078
   18DOPE    C3 2220   0.047   4.352   6.601  0.6654  0.2763 -1.2138
   18DOPE    HX 2221   0.100   4.254   6.600  1.1851  0.4935  0.6379
   18DOPE    HY 2222   0.064   4.399   6.701  1.0534  1.6133 -1.8885
   18DOPE   O31 2223   0.096   4.435   6.497  0.0705 -0.2958 -0.6244
   18DOPE   C31 2224   0.224   4.464   6.504 -0.3160 -0.0894 -0.6219
   18DOPE   O32 2225   0.292   4.443   6.604 -0.4144  0.0006 -0.2047
   18DOPE   C32 2226   0.282   4.516   6.379 -0.3782 -0.1638  0.1394
   18DOPE   H2X 2227   0.251   4.623   6.374 -0.0999 -0.1132 -0.6557
   18DOPE   H2Y 2228   0.390   4.513   6.404 -0.1934 -1.2518 -0.7160
   18DOPE   C23 2229  -0.384   4.312   6.212  0.3058  0.2869  0.6398
   18DOPE   H3R 2230  -0.364   4.421   6.210 -1.8805  0.7215 -0.0993
   18DOPE   H3S 2231  -0.478   4.274   6.257 -0.0772  0.6311  0.1440
   18DOPE   C24 2232  -0.389   4.279   6.063  0.5384  0.3734  0.0390
   18DOPE   H4R 2233  -0.383   4.169   6.051  1.0982  0.5488 -1.4888
   18DOPE   H4S 2234  -0.296   4.305   6.009 -0.0337  1.6961 -0.3524
   18DOPE   C25 2235  -0.512   4.342   5.993  0.0084  0.1104  0.1205
   18DOPE   H5R 2236  -0.506   4.451   6.016  2.2530  0.0256  0.1410
   18DOPE   H5S 2237  -0.605   4.297   6.036  0.0386 -0.7406 -0.6689
   18DOPE   C26 2238  -0.525   4.325   5.836 -0.0450  0.3515  0.1588
   18DOPE   H6R 2239  -0.532   4.221   5.797  1.3481  0.4192 -0.3325
   18DOPE   H6S 2240  -0.435   4.359   5.782  0.9163  0.2910  1.6488
   18DOPE   C27 2241  -0.650   4.385   5.781 -0.2018 -0.2055 -0.1766
   18DOPE   H7R 2242  -0.666   4.489   5.818 -1.8473 -0.0958 -1.0740
   18DOPE   H7S 2243  -0.731   4.316   5.815  0.9851 -0.5644  2.0880
   18DOPE   C28 2244  -0.658   4.392   5.621 -0.4912  0.1825 -0.7481
   18DOPE   H8R 2245  -0.760   4.430   5.599 -0.8084  0.2919  0.7740
   18DOPE   H8S 2246  -0.646   4.290   5.580  0.3386  0.0254 -0.1405
   18DOPE   C29 2247  -0.560   4.492   5.573 -0.2156 -0.3155  0.2307
   18DOPE   H9R 2248  -0.561   4.580   5.639 -1.6986 -1.1224  1.3382
   18DOPE  C210 2249  -0.483   4.476   5.467 -0.0814  0.0327  0.1161
   18DOPE  H10R 2250  -0.399   4.545   5.448 -0.2913 -0.0257 -1.0540
   18DOPE  C211 2251  -0.492   4.352   5.380 -0.0981  0.1919 -0.8920
   18DOPE  H11R 2252  -0.595   4.311   5.371  0.0921 -0.3857 -0.4817
   18DOPE  H11S 2253  -0.434   4.268   5.424  0.0275  0.8290  0.2052
   18DOPE  C212 2254  -0.456   4.363   5.228  0.2744 -0.2894  0.0362
   18DOPE  H12R 2255  -0.510   4.455   5.197 -0.3519 -0.4397  0.6649
   18DOPE  H12S 2256  -0.500   4.277   5.175  1.0924 -1.0773  0.6004
   18DOPE  C213 2257  -0.314   4.385   5.182  0.4135  0.2114 -0.4206
   18DOPE  H13R 2258  -0.245   4.299   5.191  0.7947  0.2195 -2.6906
   18DOPE  H13S 2259  -0.269   4.463   5.248  1.6464 -1.7647  1.1858
   18DOPE  C214 2260  -0.314   4.415   5.029 -0.3141  0.5666 -0.0839
   18DOPE  H14R 2261  -0.369   4.509   5.006 -0.4904  0.5302  0.1766
   18DOPE  H14S 2262  -0.352   4.332   4.967  0.5473 -0.4538  0.7064
   18DOPE  C215 2263  -0.176   4.449   4.970  0.0374  0.2537  0.1833
   18DOPE  H15R 2264  -0.121   4.543   4.996  0.2019 -0.3853  2.3125
   18DOPE  H15S 2265  -0.195   4.435   4.862 -2.2234  1.8206  0.3084
   18DOPE  C216 2266  -0.082   4.330   5.004  0.2804  0.1609  0.3902
   18DOPE  H16R 2267  -0.134   4.240   4.963  3.0126  0.7172 -5.3659
   18DOPE  H16S 2268  -0.060   4.319   5.112  0.0019 -3.0131  0.2259
   18DOPE  C217 2269   0.056   4.341   4.934  0.8639  0.2241 -0.2602
   18DOPE  H17R 2270   0.090   4.436   4.981  0.4988 -0.1042  0.6923
   18DOPE  H17S 2271   0.039   4.365   4.826 -0.2683  0.2585 -0.0895
   18DOPE  C218 2272   0.157   4.230   4.961  0.1398 -0.5836  0.2221
   18DOPE  H18R 2273   0.157   4.208   5.070  0.1750 -0.1433  0.3115
   18DOPE  H18S 2274   0.257   4.264   4.928 -0.1092  1.5440  1.4694
   18DOPE  H18T 2275   0.140   4.133   4.908 -1.0991  0.4864 -1.4443
   18DOPE   C33 2276   0.242   4.429   6.256  0.7052  0.3620  0.6906
   18DOPE   H3X 2277   0.138   4.446   6.221  0.4887 -2.4989 -0.3546
   18DOPE   H3Y 2278   0.235   4.320   6.276 -2.6852  0.2433 -0.4615
   18DOPE   C34 2279   0.344   4.447   6.142 -0.1565  0.2875  0.3517
   18DOPE   H4X 2280   0.339   4.551   6.105 -0.3920  0.1047 -0.1422
   18DOPE   H4Y 2281   0.445   4.420   6.179  0.4797  2.4118  0.2793
   18DOPE   C35 2282   0.308   4.359   6.023  0.6195  0.3673  0.5345
   18DOPE   H5X 2283   0.255   4.265   6.050 -0.8631  0.5344 -1.4849
   18DOPE   H5Y 2284   0.411   4.342   5.986 -0.2070 -2.0459 -0.8978
   18DOPE   C36 2285   0.230   4.426   5.911 -0.2535  0.0437 -0.3306
   18DOPE   H6X 2286   0.275   4.525   5.889 -1.5394  0.3912 -1.6167
   18DOPE   H6Y 2287   0.131   4.452   5.954 -0.2617  3.9855 -2.2389
   18DOPE   C37 2288   0.224   4.351   5.783 -0.4478  0.4099 -0.5734
   18DOPE   H7X 2289   0.172   4.254   5.797  2.0157 -1.0570 -0.9964
   18DOPE   H7Y 2290   0.165   4.413   5.713  1.8262  2.3461 -0.9287
   18DOPE   C38 2291   0.360   4.305   5.732  0.2710  0.2631 -0.5953
   18DOPE   H8X 2292   0.424   4.259   5.811  2.1444  0.2287 -2.0395
   18DOPE   H8Y 2293   0.424   4.392   5.705  0.1021  0.6649  0.2506
   18DOPE   C39 2294   0.349   4.199   5.622  0.1528  0.1644 -0.3820
   18DOPE   H9X 2295   0.374   4.094   5.644 -2.9729 -0.8170 -1.0840
   18DOPE  C310 2296   0.334   4.229   5.490  0.4628  0.2654 -0.0728
   18DOPE  H10X 2297   0.329   4.155   5.409 -0.6485  0.1319  0.1075
   18DOPE  C311 2298   0.329   4.368   5.446 -0.0459  0.7659  0.1947
   18DOPE  H11X 2299   0.305   4.444   5.524 -0.3382  0.9141 -0.0401
   18DOPE  H11Y 2300   0.428   4.387   5.399  0.2463 -1.1216 -0.0046
   18DOPE  C312 2301   0.221   4.382   5.344  0.8870  0.3806 -0.4044
   18DOPE  H12X 2302   0.126   4.340   5.385  0.6013  1.0179 -0.4013
   18DOPE  H12Y 2303   0.234   4.310   5.261  0.0914  0.2346 -0.4103
   18DOPE  C313 2304   0.196   4.531   5.299 -0.0954  0.3728  0.9783
   18DOPE  H13X 2305   0.131   4.525   5.209  1.7059  0.9854 -0.4238
   18DOPE  H13Y 2306   0.141   4.593   5.373  0.8623  2.0693  0.3279
   18DOPE  C314 2307   0.317   4.610   5.258 -0.2555 -0.3547 -0.0753
   18DOPE  H14X 2308   0.363   4.559   5.171 -2.3628 -0.5139 -1.1623
   18DOPE  H14Y 2309   0.377   4.611   5.351  0.9386  2.1873 -0.7820
   18DOPE  C315 2310   0.281   4.755   5.233  0.0930 -0.0044 -0.3758
   18DOPE  H15X 2311   0.210   4.794   5.309  0.5025  0.8595 -0.4108
   18DOPE  H15Y 2312   0.237   4.754   5.132 -0.3027 -4.0284 -0.3126
   18DOPE  C316 2313   0.410   4.844   5.235 -0.6992  0.5055 -0.1130
   18DOPE  H16X 2314   0.390   4.953   5.240  0.9566  0.7913  2.1112
   18DOPE  H16Y 2315   0.466   4.823   5.141 -1.5271 -2.2818 -0.0656
   18DOPE  C317 2316   0.499   4.836   5.359 -0.2925  0.0912  0.0603
   18DOPE  H17X 2317   0.552   4.739   5.373  0.2780  0.6880  2.7568
   18DOPE  H17Y 2318   0.577   4.912   5.337 -1.4280  1.3369  0.1916
   18DOPE  C318 2319   0.438   4.873   5.499  0.0242 -0.9712  0.2108
   18DOPE  H18X 2320   0.520   4.914   5.562  1.5979 -1.6057 -1.3119
   18DOPE  H18Y 2321   0.369   4.956   5.474  0.7980 -0.1806  0.6364
   18DOPE  H18Z 2322   0.381   4.789   5.543 -1.7878  1.0029  1.8408
   19DOPE     N 2323   6.877   5.222   6.781  0.2800 -0.3844  0.0255
   19DOPE   HN1 2324   6.979   5.222   6.803  0.6135 -1.5926 -1.3585
   19DOPE   HN2 2325   6.851   5.130   6.740  2.3311 -0.5543 -1.0409
   19DOPE   HN3 2326   6.856   5.301   6.716 -0.7229 -1.5311 -1.0983
   19DOPE   C12 2327   6.793   5.233   6.906  0.1755 -0.3008 -0.1298
   19DOPE  H12A 2328   6.689   5.241   6.868 -0.0923 -0.7213  0.4916
   19DOPE  H12B 2329   6.817   5.331   6.953 -1.0586  0.1325 -0.3667
   19DOPE   C11 2330   6.824   5.119   6.997  0.4273  0.1479  0.2285
   19DOPE  H11A 2331   6.788   5.132   7.101 -1.2316 -2.0594  0.0017
   19DOPE  H11B 2332   6.935   5.114   7.009  0.2269 -0.7596  1.9957
   19DOPE     P 2333   6.735   4.874   7.009 -0.1797 -0.8045 -0.2983
   19DOPE   O13 2334   6.621   4.909   7.104 -0.3452 -0.3568  0.2692
   19DOPE   O14 2335   6.859   4.815   7.057  0.1865  0.0605  0.7889
   19DOPE   O11 2336   6.665   4.780   6.908  0.2859  0.0030 -0.2944
   19DOPE   O12 2337   6.770   5.003   6.924 -0.4701  0.6469 -0.3950
   19DOPE    C1 2338   6.650   4.810   6.774 -0.2158  0.1070  0.1954
   19DOPE    HA 2339   6.635   4.919   6.757 -0.3158 -0.1585 -1.5882
   19DOPE    HB 2340   6.557   4.768   6.732 -0.3182  0.1508  0.3789
   19DOPE    C2 2341   6.775   4.763   6.694  0.8951 -0.0043  0.0132
   19DOPE    HS 2342   6.860   4.818   6.739  0.0304  1.4737 -0.0774
   19DOPE   O21 2343   6.761   4.796   6.553 -0.0000 -0.2439 -0.2727
   19DOPE   C21 2344   6.767   4.924   6.519  0.2654  0.4272  0.2374
   19DOPE   O22 2345   6.780   5.018   6.591 -0.2646 -0.4835  0.1545
   19DOPE   C22 2346   6.710   4.928   6.370  0.4013 -0.3046  0.0079
   19DOPE   H2R 2347   6.636   4.845   6.365  0.5715 -0.4761  0.2851
   19DOPE   H2S 2348   6.791   4.906   6.297  0.5233 -0.0398  0.0642
   19DOPE    C3 2349   6.789   4.610   6.723  0.2794 -0.4494  0.3729
   19DOPE    HX 2350   6.682   4.580   6.727 -0.1903  0.6508 -2.0814
   19DOPE    HY 2351   6.831   4.591   6.825  0.1580 -0.5774  0.3996
   19DOPE   O31 2352   6.862   4.549   6.620 -0.3198  0.0334  0.0372
   19DOPE   C31 2353   6.991   4.568   6.620 -0.0468  0.6823  0.2950
   19DOPE   O32 2354   7.052   4.638   6.703 -0.3073  0.2449  0.0879
   19DOPE   C32 2355   7.055   4.488   6.500  0.8153 -0.3022 -0.1440
   19DOPE   H2X 2356   7.144   4.445   6.551  1.4752 -0.3855 -1.3305
   19DOPE   H2Y 2357   6.989   4.403   6.472  2.2222 -1.7295  0.7285
   19DOPE   C23 2358   6.639   5.052   6.325 -0.6494 -0.5394 -0.0708
   19DOPE   H3R 2359   6.706   5.140   6.330 -0.3559 -0.7880  0.3582
   19DOPE   H3S 2360   6.555   5.080   6.391  0.6828  3.4767  0.1590
   19DOPE   C24 2361   6.592   5.046   6.176 -0.4555  0.0197  0.1113
   19DOPE   H4R 2362   6.531   5.136   6.153 -2.2582 -0.6413  2.0507
   19DOPE   H4S 2363   6.518   4.964   6.165 -0.4237 -0.2001  1.4101
   19DOPE   C25 2364   6.702   5.038   6.066 -0.5640  0.2589 -0.6467
   19DOPE   H5R 2365   6.785   4.965   6.075 -0.4501  0.4046 -0.5098
   19DOPE   H5S 2366   6.758   5.133   6.052  0.7358 -0.1638  1.2986
   19DOPE   C26 2367   6.631   5.014   5.932 -0.3728  0.3471 -0.1392
   19DOPE   H6R 2368   6.565   5.096   5.897 -0.0346  0.9252  0.5379
   19DOPE   H6S 2369   6.581   4.916   5.945 -0.0976  0.0845 -1.0007
   19DOPE   C27 2370   6.732   5.004   5.811 -0.1396 -0.0581  0.2556
   19DOPE   H7R 2371   6.805   4.922   5.824  0.5816 -0.2175 -3.7486
   19DOPE   H7S 2372   6.781   5.103   5.822 -1.1067  0.4621 -0.0295
   19DOPE   C28 2373   6.656   4.979   5.677  0.0554  0.2214 -0.1373
   19DOPE   H8R 2374   6.599   5.072   5.656  1.4524  1.1726  0.1130
   19DOPE   H8S 2375   6.600   4.883   5.684  1.4598 -0.5838  0.3946
   19DOPE   C29 2376   6.764   4.977   5.572  0.0193  0.0102 -0.2816
   19DOPE   H9R 2377   6.850   5.043   5.592  2.5744 -3.2625  0.4714
   19DOPE  C210 2378   6.776   4.895   5.465 -0.0192 -0.2757  0.8194
   19DOPE  H10R 2379   6.863   4.901   5.399 -0.0153 -0.2146  0.8291
   19DOPE  C211 2380   6.677   4.796   5.428  0.1665  0.3566  0.4171
   19DOPE  H11R 2381   6.600   4.780   5.506 -0.0788  0.1494  0.1361
   19DOPE  H11S 2382   6.725   4.696   5.418 -2.7725 -1.0457 -0.9171
   19DOPE  C212 2383   6.584   4.833   5.312  0.6748 -0.5398  0.0649
   19DOPE  H12R 2384   6.545   4.937   5.320  0.2189 -0.7851  1.4421
   19DOPE  H12S 2385   6.493   4.771   5.300  0.2442  0.2460 -0.9264
   19DOPE  C213 2386   6.671   4.831   5.185  0.3360 -0.0009 -0.2660
   19DOPE  H13R 2387   6.718   4.730   5.194  0.2552  0.0870  1.3281
   19DOPE  H13S 2388   6.760   4.897   5.195  0.7141 -0.5856  0.3304
   19DOPE  C214 2389   6.601   4.858   5.051  0.7633  0.2222  0.4363
   19DOPE  H14R 2390   6.556   4.959   5.064 -0.7514 -0.6453  2.5961
   19DOPE  H14S 2391   6.509   4.797   5.044 -0.3300  1.9513 -1.4875
   19DOPE  C215 2392   6.700   4.844   4.936  0.4595  0.2165  1.6873
   19DOPE  H15R 2393   6.723   4.736   4.923  1.6667  0.5409  0.8787
   19DOPE  H15S 2394   6.796   4.899   4.952  2.2686 -1.7880 -1.1713
   19DOPE  C216 2395   6.643   4.879   4.797 -0.6622 -0.4295  0.0390
   19DOPE  H16R 2396   6.589   4.975   4.810  0.5745  0.1926  0.8142
   19DOPE  H16S 2397   6.562   4.813   4.759 -0.6543  1.0199 -2.7957
   19DOPE  C217 2398   6.747   4.890   4.684  0.0533 -0.4991  0.2717
   19DOPE  H17R 2399   6.771   4.787   4.650 -0.2910 -1.0886  1.7153
   19DOPE  H17S 2400   6.837   4.943   4.722 -0.5826  0.7849  0.0420
   19DOPE  C218 2401   6.687   4.973   4.567 -0.6868  0.1316  0.4913
   19DOPE  H18R 2402   6.757   4.983   4.481 -0.5754 -1.7089  0.3269
   19DOPE  H18S 2403   6.665   5.077   4.601 -1.0930 -0.0905  0.9158
   19DOPE  H18T 2404   6.596   4.931   4.519 -0.2593  1.1312 -1.3161
   19DOPE   C33 2405   7.090   4.587   6.386 -0.1410 -0.5439 -0.5160
   19DOPE   H3X 2406   7.160   4.536   6.316  2.0275  1.7014 -0.1014
   19DOPE   H3Y 2407   7.139   4.684   6.408 -2.1653  1.6928 -4.6090
   19DOPE   C34 2408   6.962   4.624   6.315  0.8243  0.3475 -0.0484
   19DOPE   H4X 2409   6.895   4.684   6.380 -1.3662 -0.5853 -1.3463
   19DOPE   H4Y 2410   6.987   4.691   6.230 -0.4921  1.4478  0.4018
   19DOPE   C35 2411   6.886   4.501   6.264  0.7112 -0.0379 -0.3146
   19DOPE   H5X 2412   6.834   4.467   6.357  1.4392  2.0476  0.9252
   19DOPE   H5Y 2413   6.963   4.422   6.249 -0.8196 -1.5487 -0.4441
   19DOPE   C36 2414   6.797   4.518   6.137  0.1016 -1.0560 -0.4105
   19DOPE   H6X 2415   6.767   4.423   6.088 -0.5386  0.3425 -2.9137
   19DOPE   H6Y 2416   6.865   4.574   6.070  0.8901  0.1040  1.2800
   19DOPE   C37 2417   6.683   4.616   6.154  0.4604 -0.7876  0.3111
   19DOPE   H7X 2418   6.610   4.584   6.232 -0.8438 -2.0874 -1.3633
   19DOPE   H7Y 2419   6.725   4.714   6.183  0.4560 -0.2985 -1.2401
   19DOPE   C38 2420   6.601   4.627   6.024  1.1816 -0.0980 -0.5619
   19DOPE   H8X 2421   6.671   4.647   5.941  0.3786  3.0565 -0.5941
   19DOPE   H8Y 2422   6.543   4.720   6.040  0.7526  0.2639 -3.6963
   19DOPE   C39 2423   6.499   4.518   5.996 -0.6477 -0.5166  0.4660
   19DOPE   H9X 2424   6.409   4.506   6.059 -1.6758 -1.3573 -1.1036
   19DOPE  C310 2425   6.505   4.433   5.892 -0.3919  0.4242  0.6412
   19DOPE  H10X 2426   6.421   4.361   5.884  0.0410 -0.0421  0.2183
   19DOPE  C311 2427   6.608   4.413   5.783 -0.0738 -0.2615 -0.4681
   19DOPE  H11X 2428   6.678   4.499   5.779  0.9874 -1.0937 -0.3801
   19DOPE  H11Y 2429   6.675   4.330   5.814 -1.5809 -1.1216  0.6283
   19DOPE  C312 2430   6.554   4.394   5.639  0.1538  0.4569 -0.0699
   19DOPE  H12X 2431   6.482   4.309   5.643 -0.7373  1.1578  3.9266
   19DOPE  H12Y 2432   6.637   4.373   5.569 -0.5238 -0.6153 -0.5723
   19DOPE  C313 2433   6.471   4.510   5.597  0.8987 -0.5359 -0.4278
   19DOPE  H13X 2434   6.384   4.520   5.666  0.3954 -1.6574 -0.8632
   19DOPE  H13Y 2435   6.535   4.601   5.600  0.7196 -0.4263  2.1002
   19DOPE  C314 2436   6.421   4.487   5.444 -0.1913 -0.2394  0.2496
   19DOPE  H14X 2437   6.512   4.497   5.382 -1.5454 -0.0155 -1.8266
   19DOPE  H14Y 2438   6.340   4.561   5.426 -0.0002 -0.3009 -0.9007
   19DOPE  C315 2439   6.350   4.356   5.427 -0.8741  0.2825 -0.1626
   19DOPE  H15X 2440   6.271   4.338   5.502  0.2173 -0.3287  0.8615
   19DOPE  H15Y 2441   6.432   4.282   5.438  0.0199  1.4121  1.2025
   19DOPE  C316 2442   6.294   4.352   5.285 -0.5620  0.1800 -0.3809
   19DOPE  H16X 2443   6.379   4.364   5.214 -0.2601  0.4532  0.0196
   19DOPE  H16Y 2444   6.224   4.438   5.282 -0.7097  0.0804  0.1284
   19DOPE  C317 2445   6.225   4.217   5.255  0.2897 -0.0611 -0.2415
   19DOPE  H17X 2446   6.293   4.132   5.276 -0.0046 -0.0144  0.9409
   19DOPE  H17Y 2447   6.149   4.193   5.332  2.3597 -1.5356  1.4617
   19DOPE  C318 2448   6.182   4.184   5.113  0.3095 -0.4907  0.1017
   19DOPE  H18X 2449   6.270   4.187   5.045 -0.1934  4.5150 -0.7134
   19DOPE  H18Y 2450   6.118   4.093   5.105 -0.4574 -0.1901  2.2037
   19DOPE  H18Z 2451   6.115   4.263   5.072 -0.8898 -1.0952  0.8494
   20DOPE     N 2452   5.377   6.450   7.024 -0.1243 -0.5116  0.7615
   20DOPE   HN1 2453   5.429   6.539   7.039 -1.5529  0.2989  1.0317
   20DOPE   HN2 2454   5.280   6.472   6.995  0.0492  2.2717  1.9988
   20DOPE   HN3 2455   5.378   6.398   7.114 -3.4785 -0.4903  0.9028
   20DOPE   C12 2456   5.456   6.373   6.927 -0.0464  0.6914  0.6083
   20DOPE  H12A 2457   5.462   6.429   6.832  1.4801 -0.9729 -0.3550
   20DOPE  H12B 2458   5.412   6.273   6.905  2.1664  0.1440 -1.8180
   20DOPE   C11 2459   5.589   6.354   6.993 -0.3890 -0.0633 -0.3100
   20DOPE  H11A 2460   5.652   6.292   6.925 -0.2157  0.9068 -1.0499
   20DOPE  H11B 2461   5.582   6.282   7.077 -2.8411  0.2507 -0.1808
   20DOPE     P 2462   5.797   6.504   7.006 -0.3673 -0.4513 -0.4261
   20DOPE   O13 2463   5.876   6.397   7.065 -0.1147  0.4148 -0.1006
   20DOPE   O14 2464   5.831   6.642   7.046  0.1746 -0.5262 -0.7565
   20DOPE   O11 2465   5.812   6.494   6.852  1.0995 -0.0904 -0.3301
   20DOPE   O12 2466   5.644   6.477   7.033  0.1803 -0.1782  0.6187
   20DOPE    C1 2467   5.860   6.593   6.762  0.7916 -0.1343  0.7630
   20DOPE    HA 2468   5.880   6.542   6.665 -0.1734 -0.0049  0.4849
   20DOPE    HB 2469   5.960   6.630   6.793  1.5630 -3.5474  2.9013
   20DOPE    C2 2470   5.767   6.701   6.736  0.8927 -0.6645  0.6149
   20DOPE    HS 2471   5.745   6.744   6.836 -1.0822 -1.5930  0.6249
   20DOPE   O21 2472   5.640   6.642   6.688  0.0792 -0.5121  0.2239
   20DOPE   C21 2473   5.534   6.725   6.703 -0.1869  0.5474  0.5094
   20DOPE   O22 2474   5.528   6.837   6.746 -0.4879  0.0350 -0.4135
   20DOPE   C22 2475   5.416   6.662   6.635  0.3423 -0.0936  0.0162
   20DOPE   H2R 2476   5.400   6.565   6.687 -0.7670  0.5589  0.9472
   20DOPE   H2S 2477   5.445   6.649   6.529  0.1521 -0.3564 -0.0061
   20DOPE    C3 2478   5.814   6.820   6.638 -0.2252  0.7635  0.2247
   20DOPE    HX 2479   5.911   6.861   6.673  1.2578 -2.1890 -0.1921
   20DOPE    HY 2480   5.743   6.906   6.647 -2.0133 -0.5612 -0.6339
   20DOPE   O31 2481   5.823   6.778   6.493 -0.0670  0.2281 -1.0490
   20DOPE   C31 2482   5.944   6.729   6.468  0.5777  0.5656  0.4332
   20DOPE   O32 2483   6.042   6.720   6.539  0.3373  0.0666 -0.5635
   20DOPE   C32 2484   5.943   6.696   6.320 -0.4343  0.2939  0.1426
   20DOPE   H2X 2485   5.896   6.595   6.314  0.7419 -0.3051  0.7485
   20DOPE   H2Y 2486   5.877   6.775   6.277 -3.2088 -0.8266  2.0635
   20DOPE   C23 2487   5.276   6.733   6.645 -0.3021 -0.7515 -0.2237
   20DOPE   H3R 2488   5.284   6.830   6.591  2.4051 -2.2514 -2.7784
   20DOPE   H3S 2489   5.241   6.748   6.750 -1.5881 -4.5911  0.0282
   20DOPE   C24 2490   5.157   6.665   6.564 -0.2246  1.0194  0.1942
   20DOPE   H4R 2491   5.062   6.696   6.612 -0.6138 -0.5380  0.4765
   20DOPE   H4S 2492   5.176   6.556   6.576 -0.5237  0.6693 -2.1133
   20DOPE   C25 2493   5.136   6.694   6.417 -0.7097  0.1613  0.5489
   20DOPE   H5R 2494   5.205   6.640   6.348 -0.2978  0.3554  0.8044
   20DOPE   H5S 2495   5.151   6.802   6.398  0.4900 -0.2038 -0.7775
   20DOPE   C26 2496   4.996   6.644   6.369 -0.1608  0.0177 -0.0377
   20DOPE   H6R 2497   4.926   6.699   6.435  1.1412  1.0801  0.4981
   20DOPE   H6S 2498   4.971   6.537   6.386 -0.6746 -0.4049 -2.9613
   20DOPE   C27 2499   4.959   6.676   6.223 -0.2939  0.5235 -0.5438
   20DOPE   H7R 2500   4.984   6.590   6.157 -0.8572 -0.0973  0.0305
   20DOPE   H7S 2501   5.029   6.752   6.183  2.8974 -2.4026 -0.9715
   20DOPE   C28 2502   4.807   6.699   6.208  0.2449 -0.0093 -0.1415
   20DOPE   H8R 2503   4.776   6.733   6.107 -0.7751 -0.6530 -0.0610
   20DOPE   H8S 2504   4.766   6.778   6.274 -0.8404  0.3625 -1.2297
   20DOPE   C29 2505   4.738   6.567   6.243 -0.2230 -0.1959 -0.3680
   20DOPE   H9R 2506   4.748   6.545   6.351 -0.7649  0.2306 -0.2245
   20DOPE  C210 2507   4.662   6.491   6.160 -0.3679  0.8596  0.3311
   20DOPE  H10R 2508   4.628   6.394   6.199 -1.4042  1.8427  1.9702
   20DOPE  C211 2509   4.632   6.513   6.012  0.4570  0.1062  0.3221
   20DOPE  H11R 2510   4.689   6.600   5.972 -0.4636  0.4686 -0.2240
   20DOPE  H11S 2511   4.529   6.551   5.995  1.0084  0.1844 -3.9765
   20DOPE  C212 2512   4.654   6.409   5.897  0.7508 -0.2190 -1.2003
   20DOPE  H12R 2513   4.765   6.403   5.890  0.7987 -0.9256 -0.0198
   20DOPE  H12S 2514   4.605   6.461   5.812 -0.1185  1.7674  0.4348
   20DOPE  C213 2515   4.581   6.276   5.923 -0.6033  0.0286 -0.1295
   20DOPE  H13R 2516   4.481   6.301   5.964 -0.0329  4.4717 -0.9911
   20DOPE  H13S 2517   4.641   6.237   6.008  0.8199  0.0150 -1.1071
   20DOPE  C214 2518   4.582   6.187   5.800 -0.2402  0.2152  0.1093
   20DOPE  H14R 2519   4.688   6.178   5.768  0.2189 -0.2606  1.6516
   20DOPE  H14S 2520   4.530   6.236   5.715  0.4539  0.4136 -0.2082
   20DOPE  C215 2521   4.516   6.052   5.831  0.8660  0.6622  0.2660
   20DOPE  H15R 2522   4.411   6.051   5.865  0.0735 -3.1302 -1.7812
   20DOPE  H15S 2523   4.580   6.004   5.908  2.2612  2.3313  0.2206
   20DOPE  C216 2524   4.532   5.967   5.702 -0.3502  0.0919  0.1573
   20DOPE  H16R 2525   4.604   6.007   5.628 -1.3969 -2.0572 -2.1948
   20DOPE  H16S 2526   4.430   5.957   5.658 -0.0221 -2.2461 -0.2022
   20DOPE  C217 2527   4.592   5.829   5.729  0.2418 -0.0801 -0.6585
   20DOPE  H17R 2528   4.547   5.792   5.823 -0.8756  0.6364 -0.8887
   20DOPE  H17S 2529   4.701   5.840   5.747  0.0347  1.9489 -0.4089
   20DOPE  C218 2530   4.569   5.728   5.612 -0.1619 -0.0538 -0.8120
   20DOPE  H18R 2531   4.622   5.758   5.519 -0.8223  0.9558 -0.8791
   20DOPE  H18S 2532   4.459   5.732   5.598 -0.1021 -1.3075 -1.7462
   20DOPE  H18T 2533   4.606   5.630   5.649 -1.0580  0.5254  1.8175
   20DOPE   C33 2534   6.083   6.684   6.246 -0.7748  1.0904 -0.4585
   20DOPE   H3X 2535   6.148   6.616   6.303  0.8778  0.0894 -3.3136
   20DOPE   H3Y 2536   6.128   6.786   6.242 -1.7448  1.5853  0.6222
   20DOPE   C34 2537   6.075   6.625   6.103 -0.6760 -0.0052 -0.3202
   20DOPE   H4X 2538   6.046   6.518   6.113  0.4732 -0.2597  0.5747
   20DOPE   H4Y 2539   5.996   6.685   6.053  1.4181  2.9332 -0.3860
   20DOPE   C35 2540   6.204   6.635   6.011  0.2132  0.5632 -0.0565
   20DOPE   H5X 2541   6.285   6.594   6.074  0.1850  0.1971 -0.2555
   20DOPE   H5Y 2542   6.216   6.740   5.977  4.0802  0.3913  0.3303
   20DOPE   C36 2543   6.212   6.542   5.885  0.7290  0.5296  0.5685
   20DOPE   H6X 2544   6.208   6.434   5.909  0.7852  1.0283  3.1106
   20DOPE   H6Y 2545   6.313   6.552   5.839  0.6127  0.1572  0.2353
   20DOPE   C37 2546   6.095   6.574   5.788  0.5118  0.5435  0.6227
   20DOPE   H7X 2547   6.002   6.539   5.837  0.5656 -1.4823 -0.5966
   20DOPE   H7Y 2548   6.084   6.684   5.790  3.3099  0.9283  3.8727
   20DOPE   C38 2549   6.103   6.505   5.648 -0.1656  0.1266  0.2853
   20DOPE   H8X 2550   6.004   6.511   5.598  0.5232 -1.9635 -1.4822
   20DOPE   H8Y 2551   6.114   6.395   5.651 -2.0145 -0.1496 -0.9739
   20DOPE   C39 2552   6.207   6.574   5.563  0.0702 -0.7079  0.1713
   20DOPE   H9X 2553   6.310   6.575   5.599  0.4018  0.2374 -0.7462
   20DOPE  C310 2554   6.173   6.629   5.440 -0.7317 -0.2428 -0.4502
   20DOPE  H10X 2555   6.253   6.693   5.400 -0.2864  1.5966  3.0076
   20DOPE  C311 2556   6.042   6.643   5.360  0.2763  0.2170 -0.3723
   20DOPE  H11X 2557   5.963   6.599   5.425  1.5406 -1.9567 -0.2263
   20DOPE  H11Y 2558   6.005   6.745   5.334 -0.2840  0.0095 -0.4000
   20DOPE  C312 2559   6.052   6.583   5.222 -0.4463  0.9386 -0.5134
   20DOPE  H12X 2560   6.145   6.619   5.173  2.2720 -0.5967  3.0382
   20DOPE  H12Y 2561   5.974   6.602   5.146 -1.4961  1.2517  0.6023
   20DOPE  C313 2562   6.075   6.433   5.231  0.1772 -0.1208 -0.4819
   20DOPE  H13X 2563   6.176   6.408   5.272  0.2845  0.4793 -0.3658
   20DOPE  H13Y 2564   6.003   6.399   5.308 -0.0302  1.5455  0.0976
   20DOPE  C314 2565   6.045   6.348   5.106 -0.2755  0.1528 -0.4705
   20DOPE  H14X 2566   5.939   6.361   5.076 -1.3415  0.1861  2.9239
   20DOPE  H14Y 2567   6.060   6.239   5.122 -0.5954  0.5073  3.2424
   20DOPE  C315 2568   6.130   6.383   4.983  0.4761  0.5381 -0.5268
   20DOPE  H15X 2569   6.113   6.492   4.970 -0.3000  0.5653  0.5965
   20DOPE  H15Y 2570   6.081   6.332   4.897 -0.6635 -1.4268  1.1964
   20DOPE  C316 2571   6.275   6.346   5.005 -0.2469  0.4801 -0.4764
   20DOPE  H16X 2572   6.274   6.236   5.014 -3.4381  0.5897  2.5373
   20DOPE  H16Y 2573   6.309   6.398   5.097 -0.1447  2.1868 -1.4328
   20DOPE  C317 2574   6.364   6.391   4.881 -0.0108  0.5537 -0.1615
   20DOPE  H17X 2575   6.324   6.346   4.787  0.0124 -0.4329  0.2804
   20DOPE  H17Y 2576   6.363   6.502   4.878  0.0028  0.5449 -2.8578
   20DOPE  C318 2577   6.506   6.344   4.899  0.2035  0.1085  0.3551
   20DOPE  H18X 2578   6.554   6.397   4.984  0.4596  1.7817 -0.7915
   20DOPE  H18Y 2579   6.509   6.235   4.921  1.3053  0.2941  1.2066
   20DOPE  H18Z 2580   6.574   6.362   4.814 -0.0484  1.4919  0.4242
   21DOPE     N 2581   3.758   0.761   6.962  0.5738  0.7873 -0.1313
   21DOPE   HN1 2582   3.684   0.803   6.902 -2.0288  0.2234  2.4203
   21DOPE   HN2 2583   3.828   0.837   6.974  1.3902  0.2137 -1.1392
   21DOPE   HN3 2584   3.804   0.684   6.910  2.9828  1.4761  0.8740
   21DOPE   C12 2585   3.687   0.724   7.091 -0.7641 -0.8970  0.1933
   21DOPE  H12A 2586   3.686   0.815   7.154  1.6850 -1.2396  0.8412
   21DOPE  H12B 2587   3.756   0.652   7.141  2.3598  1.2909 -0.6692
   21DOPE   C11 2588   3.558   0.654   7.077 -0.4166 -0.0778 -0.3432
   21DOPE  H11A 2589   3.478   0.726   7.051  0.6253  0.5638 -1.8978
   21DOPE  H11B 2590   3.535   0.607   7.175 -0.3277 -1.2173 -0.8408
   21DOPE     P 2591   3.466   0.436   6.966 -0.1808 -0.4243 -0.1054
   21DOPE   O13 2592   3.423   0.405   7.103 -0.4166 -0.2535  0.1999
   21DOPE   O14 2593   3.527   0.328   6.889  0.5232  0.0161  0.4976
   21DOPE   O11 2594   3.337   0.486   6.899 -0.1169 -0.3468 -0.1689
   21DOPE   O12 2595   3.565   0.556   6.976 -0.2997  0.8942  0.3713
   21DOPE    C1 2596   3.334   0.597   6.806 -0.4009 -0.7805  0.4340
   21DOPE    HA 2597   3.377   0.555   6.713  1.1796 -0.3214  0.9201
   21DOPE    HB 2598   3.402   0.680   6.836 -0.2088 -1.1266  0.9716
   21DOPE    C2 2599   3.193   0.652   6.773  0.1003  1.4682 -0.0274
   21DOPE    HS 2600   3.148   0.695   6.864 -1.6138 -0.2080 -0.0207
   21DOPE   O21 2601   3.103   0.544   6.736  0.0197  0.2956 -0.7400
   21DOPE   C21 2602   2.973   0.570   6.742  0.1031 -0.3705  0.0916
   21DOPE   O22 2603   2.921   0.678   6.752 -0.0955 -0.0184 -0.1156
   21DOPE   C22 2604   2.893   0.440   6.723  0.5910  0.5349 -0.1495
   21DOPE   H2R 2605   2.877   0.385   6.818  1.3156 -0.4571 -0.5841
   21DOPE   H2S 2606   2.958   0.374   6.662  0.3288 -0.5329  0.7087
   21DOPE    C3 2607   3.192   0.762   6.669 -0.2375 -0.1826  0.1813
   21DOPE    HX 2608   3.252   0.846   6.711 -0.1089 -0.4486  0.5320
   21DOPE    HY 2609   3.089   0.798   6.649 -0.3664 -1.0939 -0.8990
   21DOPE   O31 2610   3.245   0.716   6.543 -0.4425 -0.4296  0.9805
   21DOPE   C31 2611   3.367   0.757   6.509  0.1755 -0.1963  0.0007
   21DOPE   O32 2612   3.442   0.829   6.579  0.1761  0.6354 -0.3229
   21DOPE   C32 2613   3.402   0.694   6.372 -0.0386 -0.1475  0.6709
   21DOPE   H2X 2614   3.357   0.592   6.364  0.4817 -0.2178 -2.0512
   21DOPE   H2Y 2615   3.346   0.752   6.296 -0.5009  2.0304  2.5461
   21DOPE   C23 2616   2.759   0.465   6.650 -0.3539 -0.8741  0.4313
   21DOPE   H3R 2617   2.798   0.500   6.552  1.4896  0.1708  1.4636
   21DOPE   H3S 2618   2.693   0.543   6.693 -0.1008 -0.3002 -0.2062
   21DOPE   C24 2619   2.695   0.337   6.630 -0.1937 -0.0995 -0.0010
   21DOPE   H4R 2620   2.668   0.312   6.735  0.4590  3.5330  1.1745
   21DOPE   H4S 2621   2.752   0.252   6.587 -0.3406 -0.7368  1.0064
   21DOPE   C25 2622   2.569   0.347   6.539 -0.3407 -0.2460  0.4790
   21DOPE   H5R 2623   2.487   0.407   6.585  0.9426  2.6873 -0.7768
   21DOPE   H5S 2624   2.534   0.243   6.527  1.4879 -1.1805  2.5406
   21DOPE   C26 2625   2.604   0.393   6.396  0.0159  0.1023 -0.9961
   21DOPE   H6R 2626   2.689   0.337   6.352 -0.6614  0.7299 -3.1970
   21DOPE   H6S 2627   2.632   0.501   6.404  1.3251 -0.1896 -1.4836
   21DOPE   C27 2628   2.488   0.385   6.301 -0.7141  0.0370  0.3195
   21DOPE   H7R 2629   2.439   0.485   6.299 -0.1100  0.3254 -0.2534
   21DOPE   H7S 2630   2.418   0.307   6.339 -0.3827 -0.7691 -0.7029
   21DOPE   C28 2631   2.550   0.352   6.154  0.1912 -0.6632 -0.5968
   21DOPE   H8R 2632   2.616   0.263   6.160  0.9648 -0.0238  1.4156
   21DOPE   H8S 2633   2.608   0.445   6.133 -1.4975  0.4633 -0.5056
   21DOPE   C29 2634   2.441   0.351   6.051 -0.7886 -0.4813 -0.1433
   21DOPE   H9R 2635   2.383   0.445   6.052  0.9797  0.6865 -1.4418
   21DOPE  C210 2636   2.425   0.265   5.951 -0.1325 -0.5613 -0.3221
   21DOPE  H10R 2637   2.340   0.286   5.884  0.3409 -0.6557 -0.9625
   21DOPE  C211 2638   2.503   0.140   5.908 -0.2640 -0.0070  0.3358
   21DOPE  H11R 2639   2.450   0.045   5.930 -3.2975  0.8197 -2.6627
   21DOPE  H11S 2640   2.602   0.129   5.958  1.2507  1.4469 -2.1601
   21DOPE  C212 2641   2.548   0.126   5.758  0.5178  0.3112 -0.2168
   21DOPE  H12R 2642   2.626   0.048   5.750 -2.4277 -2.7181 -1.8987
   21DOPE  H12S 2643   2.600   0.218   5.723 -0.9847  1.3699  0.2295
   21DOPE  C213 2644   2.441   0.080   5.658  0.4783  0.7263 -0.8122
   21DOPE  H13R 2645   2.362   0.157   5.649  0.6971  0.8777 -1.5532
   21DOPE  H13S 2646   2.398  -0.019   5.683  0.1944  0.8774 -0.7028
   21DOPE  C214 2647   2.492   0.063   5.513  0.5240 -1.4425 -0.1542
   21DOPE  H14R 2648   2.542  -0.036   5.505 -0.4719 -1.8440 -1.7958
   21DOPE  H14S 2649   2.570   0.137   5.484  1.2215 -1.6092  1.2093
   21DOPE  C215 2650   2.372   0.047   5.414  0.0042  0.2471  0.2989
   21DOPE  H15R 2651   2.314   0.141   5.427  0.1561  0.2212  1.2586
   21DOPE  H15S 2652   2.314  -0.045   5.438 -2.1250  0.9377 -1.7977
   21DOPE  C216 2653   2.400   0.028   5.265 -0.6787 -0.6482 -0.5879
   21DOPE  H16R 2654   2.465  -0.062   5.259 -0.7974 -0.8246  0.5487
   21DOPE  H16S 2655   2.456   0.110   5.214  0.4964  0.2374  1.9775
   21DOPE  C217 2656   2.274   0.000   5.174  0.3408  0.5655  0.5499
   21DOPE  H17R 2657   2.239  -0.103   5.195  2.3721 -0.6747 -1.6323
   21DOPE  H17S 2658   2.318  -0.004   5.072  0.1381 -0.2370  0.4881
   21DOPE  C218 2659   2.183   0.116   5.178  0.4221  0.3458 -0.0058
   21DOPE  H18R 2660   2.120   0.116   5.087  1.8780 -0.3732 -1.0515
   21DOPE  H18S 2661   2.246   0.208   5.188  0.9287 -0.0419  0.4291
   21DOPE  H18T 2662   2.113   0.107   5.264 -0.1461 -0.7283 -0.5631
   21DOPE   C33 2663   3.558   0.683   6.348  0.7466 -0.4310 -0.1353
   21DOPE   H3X 2664   3.590   0.596   6.287  0.6147  0.1106 -0.9965
   21DOPE   H3Y 2665   3.598   0.659   6.449 -1.4651  0.9665  1.1566
   21DOPE   C34 2666   3.617   0.812   6.282 -0.1412 -0.5998 -0.5168
   21DOPE   H4X 2667   3.548   0.844   6.201 -0.2202  0.1087 -0.1726
   21DOPE   H4Y 2668   3.617   0.895   6.355 -2.1165 -1.1087  0.1182
   21DOPE   C35 2669   3.761   0.790   6.219 -0.8751  0.1197 -0.1276
   21DOPE   H5X 2670   3.780   0.884   6.163 -0.1119  0.4597  0.6870
   21DOPE   H5Y 2671   3.746   0.709   6.144 -1.1623  1.2329 -1.3111
   21DOPE   C36 2672   3.879   0.755   6.308  0.6391  0.0694 -0.7310
   21DOPE   H6X 2673   3.855   0.690   6.395  2.4589  1.3123  0.7904
   21DOPE   H6Y 2674   3.899   0.858   6.344  1.1156  0.4346 -1.9900
   21DOPE   C37 2675   4.009   0.717   6.230 -0.2968 -0.9337 -0.1398
   21DOPE   H7X 2676   4.086   0.683   6.303  1.2211 -0.1757 -1.3350
   21DOPE   H7Y 2677   3.995   0.639   6.153  2.1627 -0.2179 -1.4010
   21DOPE   C38 2678   4.055   0.847   6.151  0.0183  0.5250  0.3674
   21DOPE   H8X 2679   4.088   0.908   6.237 -0.3525 -0.9271  1.5946
   21DOPE   H8Y 2680   3.969   0.899   6.104  1.0844  0.9165 -1.2324
   21DOPE   C39 2681   4.163   0.820   6.052 -0.1119  0.0653  0.2781
   21DOPE   H9X 2682   4.269   0.813   6.077  0.4634  5.2399  0.4432
   21DOPE  C310 2683   4.129   0.797   5.921  0.1713 -0.2234  0.1495
   21DOPE  H10X 2684   4.202   0.792   5.839  0.3792 -0.5390  0.3487
   21DOPE  C311 2685   3.993   0.786   5.860 -0.1830 -0.7434  0.2589
   21DOPE  H11X 2686   3.977   0.688   5.812 -0.0360  0.0364 -1.4546
   21DOPE  H11Y 2687   3.917   0.797   5.941  0.1059 -1.4706  0.6329
   21DOPE  C312 2688   3.967   0.886   5.755  0.1432 -0.5825 -0.1766
   21DOPE  H12X 2689   4.034   0.874   5.668  1.1159  0.1614  0.4394
   21DOPE  H12Y 2690   4.004   0.982   5.798  1.2744 -0.9115 -0.3813
   21DOPE  C313 2691   3.814   0.908   5.728 -0.4151  0.1108 -0.3421
   21DOPE  H13X 2692   3.774   0.809   5.697  0.5581 -0.3882 -0.0494
   21DOPE  H13Y 2693   3.762   0.936   5.821  0.2361 -2.9549  1.0667
   21DOPE  C314 2694   3.794   1.008   5.617  0.5770 -0.4427  0.0230
   21DOPE  H14X 2695   3.835   0.977   5.518 -3.4053 -0.2285 -1.9127
   21DOPE  H14Y 2696   3.849   1.098   5.653  1.0953 -1.4101  1.7566
   21DOPE  C315 2697   3.652   1.051   5.581  0.2506  0.2571 -0.8970
   21DOPE  H15X 2698   3.598   1.044   5.677 -0.4147 -5.4726 -1.3438
   21DOPE  H15Y 2699   3.611   0.971   5.516 -0.2012 -0.2077 -0.0560
   21DOPE  C316 2700   3.639   1.189   5.514 -0.8045  0.1059 -0.2674
   21DOPE  H16X 2701   3.688   1.175   5.416 -0.4625  0.0933 -0.0948
   21DOPE  H16Y 2702   3.693   1.267   5.573  3.4353 -0.6696 -2.7704
   21DOPE  C317 2703   3.491   1.217   5.478 -0.4473  0.2924 -0.1351
   21DOPE  H17X 2704   3.445   1.122   5.445  2.2917 -0.7361 -1.2746
   21DOPE  H17Y 2705   3.437   1.251   5.569 -1.8261 -2.9441  0.3966
   21DOPE  C318 2706   3.482   1.322   5.369 -0.9236 -0.3815 -0.4894
   21DOPE  H18X 2707   3.548   1.410   5.382 -0.2771 -0.6706 -1.6993
   21DOPE  H18Y 2708   3.501   1.284   5.267 -2.8781 -0.2443 -0.9355
   21DOPE  H18Z 2709   3.378   1.357   5.353 -0.3775  0.7628 -1.6467
   22DOPE     N 2710   6.176   6.008   7.068 -0.2240 -0.2351  0.3190
   22DOPE   HN1 2711   6.208   5.958   7.153  2.2828 -0.9465 -0.9620
   22DOPE   HN2 2712   6.132   6.098   7.097 -1.6535 -0.5225 -0.8094
   22DOPE   HN3 2713   6.098   5.954   7.024  0.8622 -1.2928 -0.3578
   22DOPE   C12 2714   6.292   6.040   6.979 -0.7399  0.5513 -0.3197
   22DOPE  H12A 2715   6.379   6.073   7.039 -1.9918  0.7071  1.4725
   22DOPE  H12B 2716   6.273   6.119   6.903  2.7843 -0.3935 -2.4188
   22DOPE   C11 2717   6.333   5.922   6.884  0.0546  0.1924  0.0057
   22DOPE  H11A 2718   6.419   5.959   6.825 -1.0670  2.3999 -0.3556
   22DOPE  H11B 2719   6.265   5.892   6.801  1.2964 -0.8311 -0.6664
   22DOPE     P 2720   6.506   5.777   7.013  0.2931  0.2658  0.2409
   22DOPE   O13 2721   6.510   5.666   7.116  0.3374 -0.5348  0.2352
   22DOPE   O14 2722   6.589   5.902   7.039 -0.3148 -0.2429 -0.6887
   22DOPE   O11 2723   6.548   5.712   6.875 -0.2686 -0.1585  0.1437
   22DOPE   O12 2724   6.358   5.815   6.974 -0.4644  0.1550 -0.5081
   22DOPE    C1 2725   6.469   5.622   6.800 -0.5847  0.9331  0.0245
   22DOPE    HA 2726   6.395   5.667   6.730  0.2489  0.5479 -1.1204
   22DOPE    HB 2727   6.414   5.553   6.868 -2.8351  1.2725 -1.3627
   22DOPE    C2 2728   6.568   5.522   6.721 -0.3373 -1.2452 -0.0534
   22DOPE    HS 2729   6.643   5.485   6.795  3.5438  1.6397 -2.1689
   22DOPE   O21 2730   6.637   5.587   6.612 -0.4571  0.2945 -0.1248
   22DOPE   C21 2731   6.746   5.516   6.570  0.4783 -0.3189 -0.8457
   22DOPE   O22 2732   6.773   5.407   6.610  0.5220 -0.0808 -0.0832
   22DOPE   C22 2733   6.838   5.601   6.479 -0.1846 -0.2545 -0.4723
   22DOPE   H2R 2734   6.937   5.598   6.530 -1.7061 -0.8638  2.6271
   22DOPE   H2S 2735   6.807   5.708   6.486 -0.1355 -0.2718  0.0131
   22DOPE    C3 2736   6.483   5.399   6.664  0.0670  0.2002 -0.8952
   22DOPE    HX 2737   6.433   5.359   6.755 -1.0862 -0.6317 -1.8510
   22DOPE    HY 2738   6.550   5.325   6.616  0.5927  0.4724 -0.5855
   22DOPE   O31 2739   6.379   5.460   6.578 -0.0788  0.4139  0.0761
   22DOPE   C31 2740   6.395   5.447   6.447  0.8298  0.4650  0.8862
   22DOPE   O32 2741   6.483   5.382   6.392 -0.8705  0.3693 -0.2127
   22DOPE   C32 2742   6.277   5.526   6.377 -0.1217  0.8796 -0.2551
   22DOPE   H2X 2743   6.215   5.448   6.329 -1.7055  0.4641  2.3037
   22DOPE   H2Y 2744   6.206   5.577   6.446 -0.6028  1.0618 -0.8734
   22DOPE   C23 2745   6.845   5.537   6.342  0.1228 -0.8224 -0.0583
   22DOPE   H3R 2746   6.743   5.542   6.296  0.3489  1.5370 -0.4341
   22DOPE   H3S 2747   6.875   5.432   6.357 -1.4608 -1.7940 -2.9373
   22DOPE   C24 2748   6.944   5.613   6.250  0.6906 -0.2436 -0.1412
   22DOPE   H4R 2749   7.048   5.584   6.276  0.5545  0.3068  1.0771
   22DOPE   H4S 2750   6.940   5.722   6.272  1.5166 -0.3952  0.8683
   22DOPE   C25 2751   6.897   5.589   6.107 -0.0083  0.1893  0.2267
   22DOPE   H5R 2752   6.951   5.665   6.047 -2.2752  3.8095  2.3936
   22DOPE   H5S 2753   6.795   5.632   6.096  0.3895  0.6048 -2.3620
   22DOPE   C26 2754   6.878   5.444   6.052  0.2054  0.1578 -0.1353
   22DOPE   H6R 2755   6.787   5.405   6.103 -0.7728  0.7812 -1.3629
   22DOPE   H6S 2756   6.967   5.380   6.069  0.4227  0.4921 -0.0091
   22DOPE   C27 2757   6.840   5.439   5.901  0.1711 -0.1306  0.2419
   22DOPE   H7R 2758   6.875   5.344   5.856 -0.2188 -1.7660  3.1097
   22DOPE   H7S 2759   6.895   5.518   5.847 -2.0991 -0.1312 -2.2859
   22DOPE   C28 2760   6.688   5.455   5.885  0.4281  0.3941  0.3102
   22DOPE   H8R 2761   6.648   5.533   5.953 -0.5145  0.1600  0.0479
   22DOPE   H8S 2762   6.631   5.363   5.911 -1.0762  1.1118 -0.3116
   22DOPE   C29 2763   6.658   5.484   5.740 -0.2063 -0.5777 -0.1018
   22DOPE   H9R 2764   6.665   5.400   5.669 -2.1340  1.8073 -3.4241
   22DOPE  C210 2765   6.620   5.602   5.686  0.5920  0.7908  0.4426
   22DOPE  H10R 2766   6.617   5.604   5.576  0.7950  0.8530  0.4389
   22DOPE  C211 2767   6.598   5.740   5.759 -0.0571  0.5451  0.2212
   22DOPE  H11R 2768   6.578   5.819   5.684 -0.0841 -1.3081 -1.8542
   22DOPE  H11S 2769   6.686   5.758   5.824 -0.2113 -0.7969  0.8257
   22DOPE  C212 2770   6.475   5.732   5.849  0.5011  0.3765 -0.5863
   22DOPE  H12R 2771   6.466   5.641   5.911  1.2128  0.7162  0.0306
   22DOPE  H12S 2772   6.382   5.751   5.791 -0.3732 -2.4246 -0.2376
   22DOPE  C213 2773   6.473   5.844   5.949 -0.3934 -0.5755  0.7159
   22DOPE  H13R 2774   6.366   5.867   5.970 -0.1703 -0.4488  1.7381
   22DOPE  H13S 2775   6.513   5.939   5.909  0.8881 -0.8173  1.3621
   22DOPE  C214 2776   6.561   5.810   6.073 -0.7846 -0.5856  0.2160
   22DOPE  H14R 2777   6.667   5.793   6.042 -0.4339  0.8568  0.5516
   22DOPE  H14S 2778   6.517   5.716   6.114 -0.3371  0.1058  2.3841
   22DOPE  C215 2779   6.559   5.934   6.167 -0.6004  0.1681  0.5077
   22DOPE  H15R 2780   6.449   5.942   6.182 -0.9099 -3.1320  0.7037
   22DOPE  H15S 2781   6.607   6.015   6.109 -0.5998 -0.9091 -1.0480
   22DOPE  C216 2782   6.637   5.892   6.292 -0.4302  0.2522  0.5436
   22DOPE  H16R 2783   6.747   5.892   6.279 -0.5307  0.2173 -0.3700
   22DOPE  H16S 2784   6.600   5.790   6.316 -2.5177  0.5005 -1.2379
   22DOPE  C217 2785   6.619   5.987   6.415  0.0840  0.1656 -0.4126
   22DOPE  H17R 2786   6.511   5.996   6.436  0.3996 -1.0461  2.1977
   22DOPE  H17S 2787   6.648   6.092   6.393  0.2963  0.5759  1.6166
   22DOPE  C218 2788   6.699   5.948   6.537 -0.0607  0.1005 -0.3412
   22DOPE  H18R 2789   6.807   5.961   6.516  0.1350 -0.9859 -0.0631
   22DOPE  H18S 2790   6.672   5.842   6.559  0.8639  0.1990  1.5062
   22DOPE  H18T 2791   6.688   6.013   6.626  2.1938  2.7474 -1.8346
   22DOPE   C33 2792   6.322   5.637   6.269  0.4312 -0.2272 -0.6840
   22DOPE   H3X 2793   6.376   5.580   6.190  0.8859  0.2047 -0.6919
   22DOPE   H3Y 2794   6.406   5.702   6.303  2.5770 -2.4251 -1.5344
   22DOPE   C34 2795   6.216   5.734   6.222  0.0719  0.1035  0.1738
   22DOPE   H4X 2796   6.198   5.806   6.305 -0.5412 -0.2773  0.3773
   22DOPE   H4Y 2797   6.248   5.783   6.127 -1.7471  0.8302 -0.0931
   22DOPE   C35 2798   6.088   5.661   6.180  0.4774  0.3482 -0.2903
   22DOPE   H5X 2799   6.052   5.612   6.273 -0.0764  3.0306  1.0288
   22DOPE   H5Y 2800   6.124   5.590   6.103  0.1676  1.0107 -1.0702
   22DOPE   C36 2801   5.977   5.754   6.120  0.4109  0.3041  0.7087
   22DOPE   H6X 2802   5.966   5.850   6.176  3.1822  0.6973  0.7365
   22DOPE   H6Y 2803   5.879   5.703   6.125  0.7284 -0.7892 -2.1806
   22DOPE   C37 2804   5.984   5.803   5.972  0.1568  0.6641 -0.1624
   22DOPE   H7X 2805   5.900   5.875   5.969 -0.1260  0.3183 -1.5631
   22DOPE   H7Y 2806   6.085   5.850   5.964  0.3455  0.4159  0.6161
   22DOPE   C38 2807   5.971   5.688   5.866  0.7260  0.6172 -0.4841
   22DOPE   H8X 2808   6.043   5.605   5.887 -0.5409 -0.7873 -1.5005
   22DOPE   H8Y 2809   6.001   5.739   5.772  0.2893  1.0111 -0.4091
   22DOPE   C39 2810   5.830   5.632   5.866 -0.4233 -0.8141  0.4000
   22DOPE   H9X 2811   5.815   5.565   5.952  2.4356 -1.4773  0.4914
   22DOPE  C310 2812   5.732   5.665   5.778 -0.0489 -0.5998 -0.2120
   22DOPE  H10X 2813   5.634   5.616   5.787 -1.0965  1.4060 -0.2636
   22DOPE  C311 2814   5.736   5.759   5.660  0.0757  1.1175  0.0198
   22DOPE  H11X 2815   5.642   5.811   5.630 -1.7769 -2.8412 -1.8064
   22DOPE  H11Y 2816   5.819   5.828   5.685 -0.0040  0.5350  2.0678
   22DOPE  C312 2817   5.777   5.679   5.533 -0.0647  0.0959 -0.4301
   22DOPE  H12X 2818   5.868   5.616   5.544  0.2371  0.0709 -2.6850
   22DOPE  H12Y 2819   5.791   5.759   5.458  1.7243 -0.0532 -0.3012
   22DOPE  C313 2820   5.680   5.575   5.480 -0.2197  0.9594  0.7116
   22DOPE  H13X 2821   5.643   5.517   5.567 -0.9265  3.7405  2.4025
   22DOPE  H13Y 2822   5.587   5.621   5.439 -0.7774 -0.2166  0.6003
   22DOPE  C314 2823   5.745   5.489   5.363  0.3916 -1.2833  0.1792
   22DOPE  H14X 2824   5.822   5.425   5.412  1.1897  0.8052  1.7660
   22DOPE  H14Y 2825   5.801   5.569   5.311 -1.5113 -1.4711 -2.3179
   22DOPE  C315 2826   5.644   5.419   5.269  0.7083  0.2349  0.0083
   22DOPE  H15X 2827   5.609   5.495   5.196 -1.4885 -1.5025 -0.8395
   22DOPE  H15Y 2828   5.555   5.382   5.324 -0.1949  0.3972 -1.2928
   22DOPE  C316 2829   5.723   5.317   5.184  0.5482 -0.2702 -0.3288
   22DOPE  H16X 2830   5.744   5.235   5.257  2.5262  0.1761 -0.3272
   22DOPE  H16Y 2831   5.821   5.359   5.153  0.8024 -0.6219 -0.0169
   22DOPE  C317 2832   5.653   5.254   5.054  0.2641  0.0836  1.1265
   22DOPE  H17X 2833   5.662   5.321   4.965  4.0737 -2.5190 -0.7725
   22DOPE  H17Y 2834   5.720   5.173   5.017 -0.7769 -0.2389 -0.1114
   22DOPE  C318 2835   5.517   5.189   5.074 -0.3330 -0.7057  0.0069
   22DOPE  H18X 2836   5.540   5.089   5.116  0.4516 -0.6291 -0.2418
   22DOPE  H18Y 2837   5.464   5.253   5.148  2.3103  0.4219  1.0229
   22DOPE  H18Z 2838   5.468   5.176   4.975  1.3190  1.7203 -1.2320
   23DOPE     N 2839   5.768   0.715   7.122  0.4569 -0.7477 -0.0317
   23DOPE   HN1 2840   5.793   0.647   7.196 -0.1949 -0.8599  0.0911
   23DOPE   HN2 2841   5.801   0.804   7.165  0.9808 -2.3665  3.2281
   23DOPE   HN3 2842   5.664   0.712   7.129  0.2826  1.7955 -0.5745
   23DOPE   C12 2843   5.824   0.697   6.984  0.2071 -0.0192  0.5547
   23DOPE  H12A 2844   5.784   0.600   6.947 -2.1281  0.9827  0.2591
   23DOPE  H12B 2845   5.935   0.701   6.979  0.1310  1.8718 -0.3695
   23DOPE   C11 2846   5.756   0.797   6.884 -1.2530 -0.1331 -0.2597
   23DOPE  H11A 2847   5.652   0.770   6.856 -1.2992  0.9848 -1.2733
   23DOPE  H11B 2848   5.802   0.791   6.783  0.7427 -0.5305  0.6332
   23DOPE     P 2849   5.652   1.024   6.971  0.0967 -0.3705  0.2222
   23DOPE   O13 2850   5.703   1.156   6.988  0.2533 -0.6035 -0.0750
   23DOPE   O14 2851   5.595   0.956   7.090  0.4769  0.1632 -0.0338
   23DOPE   O11 2852   5.561   1.022   6.846  0.2848  0.2630  0.7923
   23DOPE   O12 2853   5.777   0.933   6.926  0.5113 -0.1038  0.7661
   23DOPE    C1 2854   5.522   1.146   6.788 -0.3003  0.4398  0.0212
   23DOPE    HA 2855   5.603   1.193   6.730 -0.4006  0.2772 -0.2527
   23DOPE    HB 2856   5.490   1.218   6.866  1.7387 -0.3260  1.6571
   23DOPE    C2 2857   5.411   1.120   6.683  0.2805 -0.0978 -0.5966
   23DOPE    HS 2858   5.333   1.060   6.736  0.8055  0.8934  1.4167
   23DOPE   O21 2859   5.467   1.054   6.574  0.7543 -0.0969 -0.5833
   23DOPE   C21 2860   5.446   0.929   6.552 -0.2708 -0.2056 -0.2648
   23DOPE   O22 2861   5.363   0.859   6.613 -0.1338  0.2354  0.1303
   23DOPE   C22 2862   5.552   0.880   6.455 -0.2924 -0.8488 -0.0077
   23DOPE   H2R 2863   5.606   0.803   6.515 -0.3789 -1.8461 -1.1761
   23DOPE   H2S 2864   5.612   0.968   6.423  0.3933 -1.7440 -1.2923
   23DOPE    C3 2865   5.328   1.246   6.637 -0.4213  0.4984  0.1296
   23DOPE    HX 2866   5.409   1.309   6.594  0.2918 -0.2391  0.3579
   23DOPE    HY 2867   5.275   1.294   6.722 -0.2824 -0.2857  0.6765
   23DOPE   O31 2868   5.253   1.199   6.525  0.1911 -0.1300  0.4943
   23DOPE   C31 2869   5.126   1.154   6.537 -0.2792  0.0953 -0.2593
   23DOPE   O32 2870   5.069   1.134   6.644 -0.0731  0.3160 -0.2475
   23DOPE   C32 2871   5.052   1.124   6.404 -0.5661  0.0881  0.1105
   23DOPE   H2X 2872   5.091   1.027   6.367  0.0272 -0.1876  1.3863
   23DOPE   H2Y 2873   4.949   1.094   6.432 -0.1170 -2.1798 -0.4237
   23DOPE   C23 2874   5.492   0.807   6.341  0.1614 -0.0876 -0.1953
   23DOPE   H3R 2875   5.438   0.716   6.374 -1.4931  1.2117  0.8386
   23DOPE   H3S 2876   5.565   0.763   6.269  0.8034 -0.2017  0.5140
   23DOPE   C24 2877   5.400   0.886   6.248 -0.1843 -0.2331  0.0200
   23DOPE   H4R 2878   5.466   0.943   6.179 -1.5731  0.9546 -0.3729
   23DOPE   H4S 2879   5.337   0.957   6.304 -0.6644 -1.2381  0.7775
   23DOPE   C25 2880   5.318   0.784   6.171  0.3883 -0.4609 -0.8095
   23DOPE   H5R 2881   5.255   0.737   6.249 -0.7645  1.8246 -0.2929
   23DOPE   H5S 2882   5.380   0.710   6.116 -2.1394 -2.5581 -0.9899
   23DOPE   C26 2883   5.233   0.856   6.059 -0.6215 -0.3635  0.1061
   23DOPE   H6R 2884   5.157   0.920   6.108 -0.2558  1.7512 -1.9032
   23DOPE   H6S 2885   5.177   0.785   5.995 -1.3341 -0.0528  0.3783
   23DOPE   C27 2886   5.313   0.939   5.951 -0.6785 -0.0603  0.3695
   23DOPE   H7R 2887   5.408   0.968   6.000 -1.5358  2.0221  0.8826
   23DOPE   H7S 2888   5.261   1.036   5.938 -1.6436 -0.5052  0.8331
   23DOPE   C28 2889   5.327   0.878   5.804 -0.4375  0.4143  1.0263
   23DOPE   H8R 2890   5.363   0.775   5.824  0.7740  0.5427 -0.3461
   23DOPE   H8S 2891   5.412   0.930   5.755  1.7028 -0.9291  3.1095
   23DOPE   C29 2892   5.191   0.879   5.737 -0.3164  0.3109  0.0468
   23DOPE   H9R 2893   5.118   0.805   5.772 -0.4930  0.5212  0.1310
   23DOPE  C210 2894   5.145   0.980   5.666 -0.3720 -0.2329 -0.3790
   23DOPE  H10R 2895   5.041   0.964   5.634 -0.7258 -1.6931  1.3904
   23DOPE  C211 2896   5.208   1.113   5.632  0.2019 -0.1207  0.1808
   23DOPE  H11R 2897   5.244   1.108   5.527  0.9816 -1.7296  0.4900
   23DOPE  H11S 2898   5.290   1.146   5.699 -1.3918  0.8000  1.7476
   23DOPE  C212 2899   5.104   1.230   5.633 -0.3796 -0.1295 -0.2146
   23DOPE  H12R 2900   5.022   1.207   5.562  0.9184  1.2371 -2.2457
   23DOPE  H12S 2901   5.141   1.327   5.593 -0.8390  0.0330 -0.2427
   23DOPE  C213 2902   5.055   1.274   5.771  0.0927  0.3815 -0.4249
   23DOPE  H13R 2903   5.139   1.275   5.843  1.1348 -0.8755 -1.5630
   23DOPE  H13S 2904   4.987   1.199   5.817  0.5711  0.2367  0.0597
   23DOPE  C214 2905   4.972   1.408   5.777  0.4699 -0.3024  1.1650
   23DOPE  H14R 2906   5.035   1.490   5.737  0.5997 -0.9729 -0.0632
   23DOPE  H14S 2907   4.935   1.420   5.881 -1.4376 -1.4020  0.6515
   23DOPE  C215 2908   4.839   1.399   5.691 -0.4838 -0.2684  0.0593
   23DOPE  H15R 2909   4.790   1.306   5.727 -2.6153  1.3061  1.5013
   23DOPE  H15S 2910   4.852   1.398   5.581  2.3802 -0.0508  0.3084
   23DOPE  C216 2911   4.738   1.512   5.723  0.6488  0.9107 -0.2471
   23DOPE  H16R 2912   4.773   1.613   5.696  1.9333  0.6132  0.2206
   23DOPE  H16S 2913   4.721   1.510   5.833 -2.1530  0.6050 -0.6263
   23DOPE  C217 2914   4.605   1.483   5.659 -1.2850 -0.8235 -0.3277
   23DOPE  H17R 2915   4.580   1.375   5.661 -1.4391 -0.7883 -0.3674
   23DOPE  H17S 2916   4.620   1.506   5.551 -1.1366  1.1120  0.0536
   23DOPE  C218 2917   4.499   1.569   5.720 -0.3506  0.7299 -0.2182
   23DOPE  H18R 2918   4.532   1.602   5.821 -1.2894  1.5276 -0.1606
   23DOPE  H18S 2919   4.403   1.517   5.739  0.1666 -1.3244 -2.6587
   23DOPE  H18T 2920   4.480   1.665   5.668  0.6753  1.7261  1.1709
   23DOPE   C33 2921   5.068   1.246   6.308 -0.6203  0.7299 -0.2938
   23DOPE   H3X 2922   5.174   1.278   6.320  0.0524 -0.8737 -1.5370
   23DOPE   H3Y 2923   5.007   1.332   6.344  0.1325  1.0348  0.2868
   23DOPE   C34 2924   5.045   1.217   6.157  0.5267  0.0341 -0.5947
   23DOPE   H4X 2925   5.029   1.311   6.100  2.1950  0.5131 -0.3161
   23DOPE   H4Y 2926   5.128   1.174   6.098  0.0364 -0.2914 -1.0575
   23DOPE   C35 2927   4.931   1.122   6.128  0.6129 -0.7268 -0.0976
   23DOPE   H5X 2928   4.953   1.018   6.160  1.0862 -0.7422 -0.4696
   23DOPE   H5Y 2929   4.919   1.129   6.018  0.5458  0.2362 -0.0395
   23DOPE   C36 2930   4.791   1.160   6.185 -0.4538  0.0069 -0.2481
   23DOPE   H6X 2931   4.805   1.211   6.282 -1.8296 -0.0488 -0.0082
   23DOPE   H6Y 2932   4.743   1.064   6.211  0.7253 -1.0983 -1.9133
   23DOPE   C37 2933   4.702   1.236   6.086  0.5623  0.3577  1.1774
   23DOPE   H7X 2934   4.747   1.332   6.054  1.6941 -0.5604 -0.0792
   23DOPE   H7Y 2935   4.708   1.177   5.992 -0.5205 -0.3561  1.5348
   23DOPE   C38 2936   4.556   1.245   6.139  0.7009  0.0925 -0.0452
   23DOPE   H8X 2937   4.550   1.290   6.240 -0.1945  2.1310 -0.9561
   23DOPE   H8Y 2938   4.509   1.145   6.148  0.2542  0.2738 -0.3248
   23DOPE   C39 2939   4.476   1.329   6.046  0.3916 -0.3015  0.4172
   23DOPE   H9X 2940   4.492   1.437   6.060  1.9934 -0.4671 -0.0252
   23DOPE  C310 2941   4.381   1.289   5.958 -0.2154 -0.0303 -0.0426
   23DOPE  H10X 2942   4.324   1.361   5.897  0.6740  0.7132 -0.0113
   23DOPE  C311 2943   4.339   1.146   5.931 -0.3189  0.2397  0.2598
   23DOPE  H11X 2944   4.412   1.076   5.977 -1.2357 -0.0461  1.3295
   23DOPE  H11Y 2945   4.237   1.126   5.972  0.2135 -2.3222  0.5182
   23DOPE  C312 2946   4.321   1.117   5.780 -0.0785 -0.2572 -0.4567
   23DOPE  H12X 2947   4.274   1.017   5.779  0.1971 -0.3920 -0.0377
   23DOPE  H12Y 2948   4.422   1.092   5.740 -0.8348 -1.5656 -1.6166
   23DOPE  C313 2949   4.235   1.213   5.697  0.0672 -0.1349  0.0882
   23DOPE  H13X 2950   4.148   1.240   5.762  0.3859 -4.4669  2.6707
   23DOPE  H13Y 2951   4.287   1.308   5.673 -0.0185  0.1034  0.8249
   23DOPE  C314 2952   4.200   1.154   5.560 -0.5476  0.4330 -0.2747
   23DOPE  H14X 2953   4.164   1.049   5.567 -1.9141  0.9409  0.7784
   23DOPE  H14Y 2954   4.298   1.133   5.512  0.5851 -1.2103  2.4849
   23DOPE  C315 2955   4.106   1.239   5.479  0.5654  0.0817  0.1784
   23DOPE  H15X 2956   4.161   1.328   5.442  0.9294 -0.6565 -1.1119
   23DOPE  H15Y 2957   4.018   1.270   5.539  0.2061 -2.2590  0.9470
   23DOPE  C316 2958   4.043   1.174   5.350 -0.3163 -0.0508  0.2145
   23DOPE  H16X 2959   3.991   1.086   5.394 -0.6623 -0.4002 -0.8511
   23DOPE  H16Y 2960   4.125   1.133   5.288  1.4361  0.5278  2.0654
   23DOPE  C317 2961   3.958   1.266   5.265 -0.3187 -0.0929  0.0401
   23DOPE  H17X 2962   3.889   1.314   5.338  0.4112 -1.1955  1.5268
   23DOPE  H17Y 2963   4.020   1.347   5.222 -0.7604  0.8500  1.1016
   23DOPE  C318 2964   3.902   1.186   5.143  0.0821 -0.9693 -0.7174
   23DOPE  H18X 2965   3.831   1.109   5.181 -1.1918  0.9933  1.1592
   23DOPE  H18Y 2966   3.843   1.258   5.081 -0.1603 -1.5172 -1.1246
   23DOPE  H18Z 2967   3.984   1.156   5.075  2.6768  1.4141  1.1215
   24DOPE     N 2968   7.149   7.158   6.780 -0.8137 -0.1251  0.1256
   24DOPE   HN1 2969   7.115   7.173   6.878  1.3013  0.4099  0.8289
   24DOPE   HN2 2970   7.173   7.058   6.763 -3.2345 -0.8035  0.3520
   24DOPE   HN3 2971   7.233   7.220   6.779 -0.3208 -0.7665  0.5777
   24DOPE   C12 2972   7.054   7.206   6.671 -0.0412  0.2855 -0.4549
   24DOPE  H12A 2973   7.111   7.178   6.580  1.6464 -0.8654  0.8888
   24DOPE  H12B 2974   7.049   7.317   6.683 -0.6294  0.1033  1.2551
   24DOPE   C11 2975   6.922   7.135   6.695 -0.4567  0.4353  0.3992
   24DOPE  H11A 2976   6.936   7.026   6.674 -1.7903 -0.1317  2.1857
   24DOPE  H11B 2977   6.847   7.171   6.621  1.0655 -1.7526 -2.3972
   24DOPE     P 2978   6.727   7.174   6.877 -0.0507 -0.1644 -0.0733
   24DOPE   O13 2979   6.718   7.316   6.871  0.0742 -0.2483 -0.1270
   24DOPE   O14 2980   6.709   7.110   7.006 -0.1122 -0.7734 -0.2091
   24DOPE   O11 2981   6.629   7.116   6.762  0.1854  0.6456 -0.0178
   24DOPE   O12 2982   6.874   7.138   6.828  0.1307 -0.0581  0.3259
   24DOPE    C1 2983   6.540   7.004   6.791 -0.1510  0.9117  0.5485
   24DOPE    HA 2984   6.527   6.984   6.900 -0.8260 -0.6839  0.1899
   24DOPE    HB 2985   6.581   6.910   6.749  2.1244  2.0697 -0.0165
   24DOPE    C2 2986   6.401   7.014   6.728 -0.0948  0.1422 -0.0236
   24DOPE    HS 2987   6.338   6.925   6.751 -0.2792 -0.1314 -1.5103
   24DOPE   O21 2988   6.412   7.042   6.586 -0.2395 -0.2047 -0.7751
   24DOPE   C21 2989   6.406   6.938   6.513 -0.5416 -0.3593 -0.2951
   24DOPE   O22 2990   6.386   6.826   6.552  0.1696 -0.2248 -0.5762
   24DOPE   C22 2991   6.387   6.979   6.363 -0.1506  0.5733 -0.2876
   24DOPE   H2R 2992   6.440   7.075   6.343  0.9712 -0.1441 -0.8389
   24DOPE   H2S 2993   6.281   7.009   6.349 -0.3483 -0.9743 -2.5517
   24DOPE    C3 2994   6.323   7.134   6.793 -0.1304  0.1267  0.2872
   24DOPE    HX 2995   6.387   7.224   6.803  1.0576 -0.7316  0.6769
   24DOPE    HY 2996   6.309   7.108   6.900  0.1830 -2.3808 -0.2068
   24DOPE   O31 2997   6.194   7.162   6.718 -0.1173  0.1315 -0.1313
   24DOPE   C31 2998   6.154   7.286   6.725  0.0407  0.2198 -0.2034
   24DOPE   O32 2999   6.203   7.370   6.795 -0.1826 -0.0328  0.3096
   24DOPE   C32 3000   6.030   7.302   6.636 -0.0085 -0.0496 -0.3092
   24DOPE   H2X 3001   5.978   7.388   6.683 -0.5191  0.6804 -2.1286
   24DOPE   H2Y 3002   6.077   7.348   6.546  1.7963  1.2948  1.2524
   24DOPE   C23 3003   6.427   6.871   6.265 -0.3985 -0.7569 -0.3721
   24DOPE   H3R 3004   6.357   6.784   6.272 -1.1697 -0.1114  0.0754
   24DOPE   H3S 3005   6.528   6.833   6.292 -0.8270 -1.5842  0.1443
   24DOPE   C24 3006   6.439   6.919   6.120 -0.6846 -0.1010 -0.7766
   24DOPE   H4R 3007   6.500   7.012   6.123 -0.0974 -0.5115  0.2683
   24DOPE   H4S 3008   6.343   6.945   6.070 -0.0815  3.2037 -0.4639
   24DOPE   C25 3009   6.513   6.826   6.019  0.0316 -0.0345 -0.1855
   24DOPE   H5R 3010   6.465   6.726   6.013 -1.3873  0.6129 -0.0195
   24DOPE   H5S 3011   6.617   6.800   6.048 -0.3327 -0.3500  0.8944
   24DOPE   C26 3012   6.499   6.876   5.876  0.4413 -0.5729  0.7061
   24DOPE   H6R 3013   6.562   6.964   5.853 -0.4084  0.2083  1.2796
   24DOPE   H6S 3014   6.396   6.901   5.843  1.3882 -0.4973 -2.5610
   24DOPE   C27 3015   6.550   6.769   5.768  0.3571 -0.0419 -0.2788
   24DOPE   H7R 3016   6.483   6.681   5.776 -0.4832  0.3539 -2.3528
   24DOPE   H7S 3017   6.645   6.731   5.811 -0.1195  0.7276  1.5467
   24DOPE   C28 3018   6.555   6.819   5.621 -0.1082  0.1843 -0.0367
   24DOPE   H8R 3019   6.640   6.890   5.613 -0.1410  0.6421  2.7084
   24DOPE   H8S 3020   6.464   6.882   5.611 -0.1418  0.4772  1.7711
   24DOPE   C29 3021   6.556   6.713   5.520 -0.0348  0.1561 -0.2919
   24DOPE   H9R 3022   6.551   6.610   5.559 -0.4854  0.5544  0.7524
   24DOPE  C210 3023   6.597   6.723   5.393 -0.3255  0.8646 -0.0550
   24DOPE  H10R 3024   6.595   6.633   5.330 -2.0475  0.7174  0.1730
   24DOPE  C211 3025   6.654   6.847   5.327 -0.3052 -0.5294 -0.2247
   24DOPE  H11R 3026   6.721   6.826   5.241  1.2367  0.9262  0.5683
   24DOPE  H11S 3027   6.731   6.882   5.399  2.2685 -2.9548 -1.6011
   24DOPE  C212 3028   6.561   6.964   5.276 -0.5362  0.3531  0.1108
   24DOPE  H12R 3029   6.611   7.033   5.205  2.2869 -1.1901  0.4522
   24DOPE  H12S 3030   6.521   7.026   5.358  1.6546  1.1438  0.6537
   24DOPE  C213 3031   6.448   6.896   5.191  0.2203 -0.3614 -0.6736
   24DOPE  H13R 3032   6.364   6.968   5.197  0.4343 -0.0599 -1.1856
   24DOPE  H13S 3033   6.414   6.802   5.241  0.5340 -0.2748 -0.2950
   24DOPE  C214 3034   6.483   6.884   5.036  0.0733  0.1135 -0.0829
   24DOPE  H14R 3035   6.538   6.971   4.993 -1.7892  1.5613  0.3219
   24DOPE  H14S 3036   6.386   6.898   4.984 -1.3195  1.4330  2.6543
   24DOPE  C215 3037   6.544   6.750   5.000 -0.3903  0.0456  0.2584
   24DOPE  H15R 3038   6.489   6.672   5.058 -1.8508  1.7236  1.2285
   24DOPE  H15S 3039   6.647   6.749   5.042  0.1407 -4.0688 -0.6843
   24DOPE  C216 3040   6.546   6.723   4.848 -0.3037 -0.0115  0.7688
   24DOPE  H16R 3041   6.443   6.705   4.808 -0.5784  2.4841  0.1809
   24DOPE  H16S 3042   6.602   6.627   4.844 -0.1913  0.0800 -0.0599
   24DOPE  C217 3043   6.616   6.825   4.766  0.3807  0.4940  0.0596
   24DOPE  H17R 3044   6.721   6.831   4.801  0.7227 -2.2268 -0.3419
   24DOPE  H17S 3045   6.581   6.928   4.791  0.6834  0.6070  0.0176
   24DOPE  C218 3046   6.617   6.800   4.617 -0.3559 -0.1033 -0.8149
   24DOPE  H18R 3047   6.652   6.698   4.590 -0.0181  0.2890 -1.9464
   24DOPE  H18S 3048   6.679   6.876   4.564 -0.3452  1.0211  0.7537
   24DOPE  H18T 3049   6.512   6.802   4.580 -0.5493 -1.8143 -0.4497
   24DOPE   C33 3050   5.944   7.180   6.599 -0.2960  0.1337 -0.2151
   24DOPE   H3X 3051   5.838   7.213   6.591 -0.6001  0.4110  3.4575
   24DOPE   H3Y 3052   5.946   7.100   6.676  0.0772 -0.8008 -1.1705
   24DOPE   C34 3053   5.981   7.115   6.464  0.0987 -0.0455 -0.7326
   24DOPE   H4X 3054   6.090   7.094   6.468  0.5118  1.9200 -0.8914
   24DOPE   H4Y 3055   5.942   7.011   6.461 -1.1076  0.3867 -0.6054
   24DOPE   C35 3056   5.950   7.197   6.341 -0.1748 -0.2729 -0.7096
   24DOPE   H5X 3057   5.984   7.303   6.347  0.7353 -0.6065  0.3626
   24DOPE   H5Y 3058   5.840   7.203   6.327 -0.2908  1.1639  0.5643
   24DOPE   C36 3059   6.020   7.134   6.221 -0.7193  1.0636  0.2521
   24DOPE   H6X 3060   6.009   7.024   6.226  0.3966  0.9331  0.0628
   24DOPE   H6Y 3061   6.129   7.152   6.213 -0.4022 -1.1765 -1.3085
   24DOPE   C37 3062   5.944   7.160   6.090 -0.6221 -0.1580  0.1949
   24DOPE   H7X 3063   5.844   7.113   6.103 -0.8112  0.2067  0.0646
   24DOPE   H7Y 3064   5.935   7.270   6.073 -0.8663 -0.4511 -1.8685
   24DOPE   C38 3065   5.998   7.087   5.966  0.0992  0.1532 -0.0278
   24DOPE   H8X 3066   5.913   7.092   5.895 -1.1500  1.8105  1.4759
   24DOPE   H8Y 3067   6.012   6.980   5.993 -1.4619  0.6035  3.0302
   24DOPE   C39 3068   6.126   7.151   5.908 -0.2804 -0.0976  0.2551
   24DOPE   H9X 3069   6.215   7.108   5.955 -0.6985  1.5440  2.7976
   24DOPE  C310 3070   6.140   7.260   5.835 -0.1939  0.3904  0.4690
   24DOPE  H10X 3071   6.239   7.280   5.792  0.8679 -0.2334  2.4658
   24DOPE  C311 3072   6.026   7.355   5.802  0.2376 -0.8901  0.1262
   24DOPE  H11X 3073   6.020   7.372   5.693 -0.6795  1.9901  0.5625
   24DOPE  H11Y 3074   5.930   7.311   5.837  0.5400 -2.1029 -0.5075
   24DOPE  C312 3075   6.057   7.485   5.876  0.1781 -0.5621  0.8442
   24DOPE  H12X 3076   6.040   7.484   5.986  0.1057 -1.7386  0.8412
   24DOPE  H12Y 3077   5.990   7.565   5.838  2.0195  0.5418 -0.2225
   24DOPE  C313 3078   6.196   7.560   5.843  0.2401  0.2721 -0.6125
   24DOPE  H13X 3079   6.182   7.659   5.891 -1.1775  1.0093 -2.4273
   24DOPE  H13Y 3080   6.287   7.511   5.882  0.6245  2.0357  0.8582
   24DOPE  C314 3081   6.219   7.577   5.694 -0.0177 -0.4220 -0.2100
   24DOPE  H14X 3082   6.124   7.597   5.641  0.1800 -0.2312 -0.5005
   24DOPE  H14Y 3083   6.257   7.481   5.651  1.2748  0.2422 -0.6060
   24DOPE  C315 3084   6.322   7.688   5.646 -0.4126  0.2922 -0.8508
   24DOPE  H15X 3085   6.416   7.686   5.705 -1.9314  0.9339  1.7602
   24DOPE  H15Y 3086   6.275   7.788   5.658 -2.1439 -0.2361 -2.7648
   24DOPE  C316 3087   6.345   7.678   5.495  0.5062 -0.4454 -0.1800
   24DOPE  H16X 3088   6.252   7.663   5.436  1.5178 -0.4880 -1.8193
   24DOPE  H16Y 3089   6.408   7.588   5.479  1.0568  0.4223 -3.7091
   24DOPE  C317 3090   6.405   7.802   5.442 -0.2540 -0.4653  0.6696
   24DOPE  H17X 3091   6.342   7.893   5.452  1.1425  0.7408 -0.9548
   24DOPE  H17Y 3092   6.504   7.821   5.488  0.1828 -1.5745  0.2259
   24DOPE  C318 3093   6.439   7.783   5.288  0.0591 -0.7836  0.2121
   24DOPE  H18X 3094   6.493   7.689   5.267  1.4223  0.2583 -1.2571
   24DOPE  H18Y 3095   6.345   7.775   5.228  1.2077 -2.1003 -1.5198
   24DOPE  H18Z 3096   6.498   7.873   5.262 -1.1045  0.6974  2.3604
   25DOPE     N 3097   0.080   6.908   7.344 -0.1275 -0.4079 -0.1644
   25DOPE   HN1 3098   0.078   6.899   7.240 -1.3298  1.3152 -0.3287
   25DOPE   HN2 3099   0.149   6.979   7.375  0.2155 -0.0177 -1.6994
   25DOPE   HN3 3100   0.114   6.816   7.379 -2.9187 -1.4249  0.1568
   25DOPE   C12 3101  -0.047   6.957   7.406  0.2182  0.0129 -0.3595
   25DOPE  H12A 3102  -0.041   6.943   7.516 -0.8212 -1.9281 -0.5015
   25DOPE  H12B 3103  -0.132   6.890   7.379 -0.6108 -0.9751  3.8923
   25DOPE   C11 3104  -0.069   7.099   7.354  0.3127  0.3996 -0.0269
   25DOPE  H11A 3105   0.008   7.168   7.394  0.2941  1.6839 -2.0768
   25DOPE  H11B 3106  -0.161   7.144   7.396 -0.2409 -1.3205  0.7151
   25DOPE     P 3107  -0.210   7.094   7.130 -0.2341 -0.0379  0.0232
   25DOPE   O13 3108  -0.258   7.232   7.133  0.2381  0.3176  0.0954
   25DOPE   O14 3109  -0.295   6.978   7.168 -0.1473 -0.6554 -0.6669
   25DOPE   O11 3110  -0.156   7.064   6.985 -0.3312  0.0445  0.6611
   25DOPE   O12 3111  -0.075   7.099   7.214 -0.2835  0.3901 -0.1821
   25DOPE    C1 3112  -0.114   6.936   6.941  0.2393  0.4738  0.5174
   25DOPE    HA 3113  -0.117   6.856   7.017 -1.7237  0.1212  0.1299
   25DOPE    HB 3114  -0.010   6.942   6.904  0.6216  2.5754  1.7871
   25DOPE    C2 3115  -0.203   6.880   6.823 -0.9860  0.1883 -0.4407
   25DOPE    HS 3116  -0.145   6.802   6.770 -0.5964  0.4836 -0.4548
   25DOPE   O21 3117  -0.259   6.988   6.750 -0.3174 -0.1141  0.4302
   25DOPE   C21 3118  -0.169   7.037   6.664 -0.5882  0.0891  0.1978
   25DOPE   O22 3119  -0.063   6.985   6.635  0.1498 -0.4893 -0.2739
   25DOPE   C22 3120  -0.217   7.172   6.599  0.0117 -0.1638 -0.0096
   25DOPE   H2R 3121  -0.175   7.248   6.668  0.2882 -0.9714  0.7224
   25DOPE   H2S 3122  -0.326   7.191   6.595  0.0340  0.4251  1.5392
   25DOPE    C3 3123  -0.327   6.803   6.882 -0.0228 -0.1109 -0.0743
   25DOPE    HX 3124  -0.395   6.870   6.939 -0.9302 -1.7561  0.8530
   25DOPE    HY 3125  -0.292   6.744   6.969  0.3420 -1.3504 -1.0365
   25DOPE   O31 3126  -0.398   6.720   6.790  0.3533  0.5737 -0.8600
   25DOPE   C31 3127  -0.484   6.780   6.709 -0.2970 -0.7545  0.7682
   25DOPE   O32 3128  -0.507   6.899   6.704 -0.0650 -0.0052  0.3223
   25DOPE   C32 3129  -0.562   6.683   6.613  0.1177 -0.3113 -0.4799
   25DOPE   H2X 3130  -0.489   6.624   6.553  0.8220  0.0548 -0.0076
   25DOPE   H2Y 3131  -0.623   6.625   6.685 -1.0193  0.1603 -1.0367
   25DOPE   C23 3132  -0.168   7.190   6.453  0.0999 -0.1578  0.2451
   25DOPE   H3R 3133  -0.060   7.166   6.443  0.0704 -0.0595 -0.3079
   25DOPE   H3S 3134  -0.185   7.296   6.422  0.2494  0.4493  2.0870
   25DOPE   C24 3135  -0.242   7.097   6.357  0.1817  0.4504  0.6600
   25DOPE   H4R 3136  -0.348   7.130   6.357  0.3035  0.8408  0.3119
   25DOPE   H4S 3137  -0.237   6.992   6.395  0.8681  0.7418  1.4079
   25DOPE   C25 3138  -0.203   7.105   6.207  0.1985  0.2125  0.2227
   25DOPE   H5R 3139  -0.105   7.056   6.190  1.5620  2.3534  1.3380
   25DOPE   H5S 3140  -0.189   7.215   6.195  1.1550  0.0834  0.0684
   25DOPE   C26 3141  -0.299   7.048   6.100 -0.4586  0.2973  0.4455
   25DOPE   H6R 3142  -0.395   7.102   6.119 -2.4136 -2.1966 -1.6383
   25DOPE   H6S 3143  -0.304   6.939   6.120  1.9457  0.1117  0.2309
   25DOPE   C27 3144  -0.237   7.056   5.959  0.2745  0.2672  0.9495
   25DOPE   H7R 3145  -0.150   6.987   5.949  0.0027  0.1625 -1.1330
   25DOPE   H7S 3146  -0.202   7.161   5.953  1.7099 -0.1769  1.0122
   25DOPE   C28 3147  -0.329   7.022   5.844  0.3655 -0.5162 -0.4073
   25DOPE   H8R 3148  -0.415   7.091   5.859  0.9343 -0.2359  2.1530
   25DOPE   H8S 3149  -0.345   6.912   5.847  1.9058 -0.8207 -1.6762
   25DOPE   C29 3150  -0.265   7.051   5.711  0.4426 -0.1022  0.0610
   25DOPE   H9R 3151  -0.186   6.983   5.678 -0.0755 -0.0446 -1.3514
   25DOPE  C210 3152  -0.315   7.136   5.613  0.0943  0.0880 -0.1679
   25DOPE  H10R 3153  -0.259   7.135   5.518  0.7168  0.2789  0.1895
   25DOPE  C211 3154  -0.440   7.223   5.614  0.6914  0.7468  0.1071
   25DOPE  H11R 3155  -0.525   7.193   5.680 -0.9747  1.5946 -1.5845
   25DOPE  H11S 3156  -0.486   7.205   5.515 -1.8709 -0.5766  1.4309
   25DOPE  C212 3157  -0.420   7.374   5.623 -0.4946 -0.1232  0.2062
   25DOPE  H12R 3158  -0.515   7.415   5.583 -1.3531 -2.0488  0.1625
   25DOPE  H12S 3159  -0.344   7.422   5.557 -0.5429 -0.6868 -0.2705
   25DOPE  C213 3160  -0.396   7.423   5.760 -0.1411  1.2983 -0.7002
   25DOPE  H13R 3161  -0.297   7.390   5.797 -2.5304 -3.2360  2.6590
   25DOPE  H13S 3162  -0.468   7.382   5.835  0.4858 -1.9933 -1.7423
   25DOPE  C214 3163  -0.400   7.579   5.770 -0.0570  0.0806 -0.2477
   25DOPE  H14R 3164  -0.399   7.607   5.878  0.2840 -0.1597 -0.1862
   25DOPE  H14S 3165  -0.490   7.620   5.719 -0.2085  0.9092  0.6536
   25DOPE  C215 3166  -0.288   7.656   5.699  0.4317  0.3441 -0.3624
   25DOPE  H15R 3167  -0.306   7.764   5.721 -1.5287 -0.0926  0.3802
   25DOPE  H15S 3168  -0.287   7.635   5.590  2.5961 -0.8947 -0.1687
   25DOPE  C216 3169  -0.151   7.630   5.758  0.4593  0.1718  0.4424
   25DOPE  H16R 3170  -0.122   7.525   5.738  0.5544  0.0006  1.4536
   25DOPE  H16S 3171  -0.163   7.637   5.868  1.1613  0.4563  0.5111
   25DOPE  C217 3172  -0.050   7.736   5.715  0.4526 -0.3346  0.1402
   25DOPE  H17R 3173  -0.050   7.746   5.604  0.5527  1.1908  0.2492
   25DOPE  H17S 3174   0.048   7.690   5.738 -0.0633 -1.1764  0.7012
   25DOPE  C218 3175  -0.045   7.877   5.780 -0.2202 -0.0722  0.2610
   25DOPE  H18R 3176  -0.020   7.876   5.888 -1.1772  1.4216  0.5310
   25DOPE  H18S 3177  -0.147   7.914   5.757 -0.0962 -0.5819 -1.1663
   25DOPE  H18T 3178   0.025   7.943   5.725  2.0246 -2.2490  0.3393
   25DOPE   C33 3179  -0.675   6.747   6.522 -0.2675  0.2907  0.2006
   25DOPE   H3X 3180  -0.730   6.830   6.572  2.5904  1.5383  1.5269
   25DOPE   H3Y 3181  -0.743   6.660   6.517 -0.5111  0.4080  1.2612
   25DOPE   C34 3182  -0.618   6.784   6.378  0.0142 -0.3297 -1.2868
   25DOPE   H4X 3183  -0.698   6.847   6.335 -0.7971  0.2603  0.9659
   25DOPE   H4Y 3184  -0.529   6.847   6.401 -0.2908 -0.7839  1.4659
   25DOPE   C35 3185  -0.588   6.668   6.289 -0.2777  0.0016 -0.1650
   25DOPE   H5X 3186  -0.670   6.594   6.303 -0.8634  0.8292  0.9834
   25DOPE   H5Y 3187  -0.492   6.622   6.319 -1.2682 -1.7451  0.5329
   25DOPE   C36 3188  -0.605   6.710   6.148  0.1748  0.2397 -0.3501
   25DOPE   H6X 3189  -0.522   6.783   6.132  0.4234  0.0868  0.2030
   25DOPE   H6Y 3190  -0.701   6.764   6.142  0.9190  1.8721  1.2720
   25DOPE   C37 3191  -0.577   6.594   6.057 -0.1759  0.3575 -0.4662
   25DOPE   H7X 3192  -0.490   6.540   6.100  0.6848  2.4107  0.5010
   25DOPE   H7Y 3193  -0.658   6.519   6.066  1.5100 -1.3242  2.0595
   25DOPE   C38 3194  -0.541   6.647   5.921  0.3961 -1.6247  0.4707
   25DOPE   H8X 3195  -0.505   6.568   5.852  1.0665 -1.3067  0.4495
   25DOPE   H8Y 3196  -0.464   6.727   5.914 -1.7668  0.4111 -3.8458
   25DOPE   C39 3197  -0.671   6.702   5.860 -0.1542  0.7056 -0.0006
   25DOPE   H9X 3198  -0.717   6.789   5.909 -0.3106  0.9769 -0.6139
   25DOPE  C310 3199  -0.732   6.653   5.754  0.4261  0.2909  0.1338
   25DOPE  H10X 3200  -0.816   6.710   5.711  0.7224  1.5757  1.1941
   25DOPE  C311 3201  -0.695   6.533   5.673  0.0544  0.2515 -0.0923
   25DOPE  H11X 3202  -0.645   6.458   5.737 -0.3681 -0.2244 -0.3096
   25DOPE  H11Y 3203  -0.785   6.473   5.648 -0.1961  0.2660  0.7520
   25DOPE  C312 3204  -0.616   6.568   5.539 -0.4320  0.1893 -0.2765
   25DOPE  H12X 3205  -0.579   6.471   5.500  1.2150  0.1623  1.2111
   25DOPE  H12Y 3206  -0.519   6.612   5.572  0.2465 -1.4293 -0.0414
   25DOPE  C313 3207  -0.699   6.643   5.432  0.1294  0.6412 -0.7158
   25DOPE  H13X 3208  -0.790   6.589   5.398 -0.8643  1.3295  0.7481
   25DOPE  H13Y 3209  -0.726   6.739   5.480 -0.8842  0.3815 -0.7390
   25DOPE  C314 3210  -0.608   6.663   5.304  0.1912  0.0416 -0.2107
   25DOPE  H14X 3211  -0.581   6.557   5.281 -0.0629 -0.2967  0.9792
   25DOPE  H14Y 3212  -0.514   6.711   5.337 -0.2631  0.8475 -0.0783
   25DOPE  C315 3213  -0.676   6.738   5.186 -0.3307 -0.2308 -0.1879
   25DOPE  H15X 3214  -0.715   6.840   5.206 -2.7139 -0.9294 -0.9955
   25DOPE  H15Y 3215  -0.763   6.674   5.159 -1.8073  0.8373  1.7406
   25DOPE  C316 3216  -0.573   6.738   5.069  0.1891 -0.0370 -1.1140
   25DOPE  H16X 3217  -0.522   6.642   5.047 -0.3063 -0.5202 -0.2080
   25DOPE  H16Y 3218  -0.488   6.803   5.099  0.0061  0.4522 -1.6216
   25DOPE  C317 3219  -0.636   6.791   4.940 -0.6655 -0.2905  0.2744
   25DOPE  H17X 3220  -0.720   6.727   4.907  0.1569 -0.1706 -2.2867
   25DOPE  H17Y 3221  -0.680   6.891   4.962  2.4036  1.0546  0.8852
   25DOPE  C318 3222  -0.540   6.805   4.810 -0.1973 -0.0079  0.2439
   25DOPE  H18X 3223  -0.592   6.855   4.725  1.2633 -1.8315 -1.8477
   25DOPE  H18Y 3224  -0.446   6.859   4.832 -0.3219  1.0706 -1.6212
   25DOPE  H18Z 3225  -0.509   6.703   4.779 -0.0889  0.0927  0.0261
   26DOPE     N 3226   0.587   6.963   7.112 -0.1522  0.4779 -0.3970
   26DOPE   HN1 3227   0.673   6.905   7.102 -0.0891  0.7837 -1.7680
   26DOPE   HN2 3228   0.553   6.995   7.019  2.3941  0.4802 -1.4191
   26DOPE   HN3 3229   0.610   7.054   7.157 -1.5507  0.2804  0.7940
   26DOPE   C12 3230   0.482   6.909   7.203 -0.8133  0.3741  0.8532
   26DOPE  H12A 3231   0.396   6.980   7.199 -1.0306  0.1781 -3.7255
   26DOPE  H12B 3232   0.538   6.900   7.298 -1.7124 -1.0192  1.2740
   26DOPE   C11 3233   0.438   6.766   7.154  0.4996 -0.3318 -0.0473
   26DOPE  H11A 3234   0.380   6.715   7.234 -3.2070  1.4784 -1.3198
   26DOPE  H11B 3235   0.525   6.697   7.150  3.0374  2.3210  3.4341
   26DOPE     P 3236   0.209   6.758   7.035 -0.3582  0.1397  0.0799
   26DOPE   O13 3237   0.153   6.881   7.090 -0.1898 -0.1177 -0.0545
   26DOPE   O14 3238   0.183   6.636   7.114  0.1788  0.0970  0.3256
   26DOPE   O11 3239   0.171   6.746   6.880  0.3891  0.3711  0.0901
   26DOPE   O12 3240   0.361   6.775   7.028  0.0855  0.2101 -0.3019
   26DOPE    C1 3241   0.203   6.620   6.820  0.2121  0.3633 -0.3984
   26DOPE    HA 3242   0.122   6.544   6.825  0.8618 -0.4779 -1.8482
   26DOPE    HB 3243   0.291   6.564   6.858 -1.4545 -1.8764  0.4051
   26DOPE    C2 3244   0.247   6.627   6.670  0.1215 -0.1847 -0.3762
   26DOPE    HS 3245   0.337   6.691   6.664  1.6963 -2.1204  1.0326
   26DOPE   O21 3246   0.137   6.672   6.593  0.9576 -0.1539 -0.2434
   26DOPE   C21 3247   0.173   6.716   6.470 -0.0563  0.3673 -0.8601
   26DOPE   O22 3248   0.286   6.735   6.429 -0.0377 -0.5294 -0.2997
   26DOPE   C22 3249   0.040   6.730   6.394  0.0548  0.3590 -1.2689
   26DOPE   H2R 3250   0.002   6.832   6.417  2.7400  1.1966 -0.1614
   26DOPE   H2S 3251  -0.034   6.658   6.434  1.0188 -0.9827 -1.7909
   26DOPE    C3 3252   0.292   6.490   6.618 -0.5440 -0.3989 -0.2060
   26DOPE    HX 3253   0.201   6.427   6.613 -0.5099 -0.5404  0.7826
   26DOPE    HY 3254   0.341   6.436   6.703 -1.0414  0.9474  0.9701
   26DOPE   O31 3255   0.376   6.485   6.497 -0.5579  0.6166  0.1579
   26DOPE   C31 3256   0.500   6.514   6.507  0.5577  0.1174  0.3981
   26DOPE   O32 3257   0.558   6.525   6.616 -0.2970  0.4823  0.2076
   26DOPE   C32 3258   0.565   6.548   6.366 -0.2655 -0.5054 -0.2113
   26DOPE   H2X 3259   0.568   6.457   6.303 -0.3908 -1.3149  0.9208
   26DOPE   H2Y 3260   0.503   6.632   6.327  2.3284  1.4458 -0.4468
   26DOPE   C23 3261   0.051   6.712   6.246 -0.7734 -0.1658  0.6303
   26DOPE   H3R 3262   0.115   6.626   6.216  3.1083  2.9328 -0.9407
   26DOPE   H3S 3263   0.110   6.797   6.206 -2.9155  0.5029 -1.3051
   26DOPE   C24 3264  -0.087   6.692   6.182 -0.8948  0.0406 -0.0086
   26DOPE   H4R 3265  -0.156   6.757   6.240 -1.4050 -0.8080  0.3685
   26DOPE   H4S 3266  -0.117   6.588   6.207 -1.7898 -0.3583 -2.4617
   26DOPE   C25 3267  -0.100   6.710   6.032  0.7813 -0.1426  0.5506
   26DOPE   H5R 3268  -0.100   6.820   6.013 -1.1636  0.3786  2.9264
   26DOPE   H5S 3269  -0.190   6.655   5.998 -0.8441  1.9692  1.1952
   26DOPE   C26 3270   0.014   6.657   5.951 -0.4859  0.0289  0.7069
   26DOPE   H6R 3271   0.019   6.547   5.959 -2.1241 -0.1237  0.0198
   26DOPE   H6S 3272   0.114   6.700   5.974  1.6167 -3.3005 -1.2629
   26DOPE   C27 3273   0.009   6.680   5.795 -1.1394 -0.1032 -0.4805
   26DOPE   H7R 3274  -0.003   6.789   5.775  0.2282 -0.2603 -2.4121
   26DOPE   H7S 3275  -0.082   6.625   5.763 -0.7774 -1.1937  0.3156
   26DOPE   C28 3276   0.123   6.630   5.701 -0.4520 -0.1791 -0.4116
   26DOPE   H8R 3277   0.141   6.524   5.730  1.4292  0.3401  0.5077
   26DOPE   H8S 3278   0.207   6.692   5.736 -1.9981  1.7509  0.0754
   26DOPE   C29 3279   0.103   6.644   5.553 -0.6017 -0.1681 -0.3372
   26DOPE   H9R 3280   0.023   6.575   5.523 -0.1612 -0.7086 -0.2904
   26DOPE  C210 3281   0.171   6.725   5.467 -0.2591  0.0439 -0.4116
   26DOPE  H10R 3282   0.141   6.737   5.361 -0.8533  1.2025 -0.1384
   26DOPE  C211 3283   0.285   6.818   5.501  0.2457  0.2754  0.7248
   26DOPE  H11R 3284   0.367   6.809   5.426  0.3707 -1.8452  1.0383
   26DOPE  H11S 3285   0.320   6.785   5.601 -2.6950  0.1620  1.8154
   26DOPE  C212 3286   0.225   6.957   5.516  0.9069 -0.0011  0.3767
   26DOPE  H12R 3287   0.286   7.013   5.590  1.8882  0.4139 -0.7157
   26DOPE  H12S 3288   0.129   6.945   5.571 -0.1504 -0.5964 -1.5103
   26DOPE  C213 3289   0.187   7.043   5.391  0.3365 -0.1581 -0.0363
   26DOPE  H13R 3290   0.109   6.981   5.341 -1.0159  2.1874 -0.9694
   26DOPE  H13S 3291   0.271   7.059   5.321  0.3662 -0.4718 -0.0739
   26DOPE  C214 3292   0.127   7.174   5.433 -0.2366  0.6235  0.1938
   26DOPE  H14R 3293   0.206   7.225   5.493  1.5433 -1.3224 -0.3910
   26DOPE  H14S 3294   0.042   7.153   5.501 -1.0474  0.3832 -0.8789
   26DOPE  C215 3295   0.085   7.270   5.310  0.6314 -0.2573 -0.4977
   26DOPE  H15R 3296   0.035   7.212   5.230 -3.1038  0.4813  1.0883
   26DOPE  H15S 3297   0.172   7.328   5.272  0.2990  1.5238  1.2404
   26DOPE  C216 3298  -0.028   7.366   5.353  0.1145 -0.4379 -0.5545
   26DOPE  H16R 3299   0.018   7.429   5.432  1.5096 -0.5859 -1.2328
   26DOPE  H16S 3300  -0.104   7.304   5.406  0.6985 -0.2452  0.5464
   26DOPE  C217 3301  -0.072   7.455   5.235  0.4661  0.5069 -0.5556
   26DOPE  H17R 3302  -0.171   7.500   5.254  1.2551  1.9724  0.2646
   26DOPE  H17S 3303  -0.087   7.383   5.152  1.0684  1.2666 -1.3399
   26DOPE  C218 3304   0.030   7.561   5.186  0.0843 -0.1889 -0.2040
   26DOPE  H18R 3305  -0.009   7.613   5.096 -0.2996 -0.8246 -0.4086
   26DOPE  H18S 3306   0.126   7.509   5.162  0.3237 -0.5917  1.5223
   26DOPE  H18T 3307   0.049   7.633   5.268  0.4561 -0.6974  0.1618
   26DOPE   C33 3308   0.714   6.587   6.367 -0.3182  0.0050  0.0254
   26DOPE   H3X 3309   0.767   6.495   6.399  0.5963  0.3946 -0.3293
   26DOPE   H3Y 3310   0.744   6.673   6.432  0.6572 -0.7989  0.6774
   26DOPE   C34 3311   0.781   6.597   6.235 -0.3978 -0.0894  0.6291
   26DOPE   H4X 3312   0.759   6.500   6.186 -0.8413 -1.0687  2.6961
   26DOPE   H4Y 3313   0.751   6.676   6.162 -0.1478 -0.2756  0.3188
   26DOPE   C35 3314   0.927   6.585   6.265 -0.0461 -0.0298 -0.5948
   26DOPE   H5X 3315   0.958   6.513   6.344 -1.3971 -0.6499 -0.5982
   26DOPE   H5Y 3316   0.956   6.684   6.305 -0.0423 -0.1290 -0.3527
   26DOPE   C36 3317   1.011   6.551   6.136  0.0765 -0.5987 -0.2903
   26DOPE   H6X 3318   0.951   6.474   6.083  0.4667 -1.1762  0.0900
   26DOPE   H6Y 3319   1.107   6.501   6.161  1.0214  0.0953 -2.3471
   26DOPE   C37 3320   1.049   6.667   6.040 -0.2245 -0.3276  1.0055
   26DOPE   H7X 3321   0.960   6.732   6.033 -1.6022 -2.1665  0.6188
   26DOPE   H7Y 3322   1.137   6.715   6.088 -0.3812  1.5906 -0.5439
   26DOPE   C38 3323   1.077   6.609   5.899  0.3150 -0.5436 -0.2918
   26DOPE   H8X 3324   0.988   6.550   5.869  0.4492  0.2021 -2.2817
   26DOPE   H8Y 3325   1.168   6.545   5.900 -0.1162 -1.1684 -0.2822
   26DOPE   C39 3326   1.086   6.719   5.793  0.1301 -0.8682  0.1793
   26DOPE   H9X 3327   1.020   6.804   5.813 -0.2866 -1.1735  0.1031
   26DOPE  C310 3328   1.177   6.721   5.693 -0.8578 -0.4952  0.6199
   26DOPE  H10X 3329   1.182   6.814   5.635  2.5994 -1.5260 -0.9951
   26DOPE  C311 3330   1.279   6.620   5.655 -0.0471  0.3270 -0.4065
   26DOPE  H11X 3331   1.377   6.669   5.642  0.2998 -0.3549 -0.4262
   26DOPE  H11Y 3332   1.300   6.545   5.734 -0.5495  0.4408 -0.1584
   26DOPE  C312 3333   1.242   6.553   5.523 -0.4712 -0.0113  0.3605
   26DOPE  H12X 3334   1.159   6.479   5.527 -1.0040  0.5684  0.1880
   26DOPE  H12Y 3335   1.336   6.502   5.491 -0.9419 -0.1813 -0.7809
   26DOPE  C313 3336   1.213   6.655   5.415  0.4523  0.1226 -0.3383
   26DOPE  H13X 3337   1.123   6.715   5.441  2.1293  2.0795  1.3474
   26DOPE  H13Y 3338   1.294   6.730   5.407 -1.5758  2.3587 -1.2947
   26DOPE  C314 3339   1.179   6.587   5.284 -0.2045 -0.3022 -0.3931
   26DOPE  H14X 3340   1.094   6.517   5.296 -0.7681  0.5169  0.6198
   26DOPE  H14Y 3341   1.270   6.528   5.260  1.2551  1.8067 -0.3455
   26DOPE  C315 3342   1.144   6.674   5.159  0.5206  0.0557  0.0401
   26DOPE  H15X 3343   1.045   6.721   5.178 -0.1698 -2.0245  1.9820
   26DOPE  H15Y 3344   1.128   6.612   5.069  1.6670  1.3388 -1.1022
   26DOPE  C316 3345   1.252   6.779   5.122  0.2569  0.2694 -0.0645
   26DOPE  H16X 3346   1.277   6.839   5.211 -1.3442 -1.4632  1.6488
   26DOPE  H16Y 3347   1.205   6.852   5.053  3.2568  2.3951 -0.0264
   26DOPE  C317 3348   1.378   6.715   5.056 -0.5700  0.3602  0.3158
   26DOPE  H17X 3349   1.449   6.797   5.033 -2.2480  1.3961 -1.4047
   26DOPE  H17Y 3350   1.428   6.637   5.118  0.1550  1.5904  1.3213
   26DOPE  C318 3351   1.347   6.661   4.914  0.9904  0.3648 -0.1140
   26DOPE  H18X 3352   1.287   6.568   4.922 -0.4332  1.2539 -0.0983
   26DOPE  H18Y 3353   1.284   6.720   4.846 -0.2370 -1.6959 -0.8509
   26DOPE  H18Z 3354   1.442   6.639   4.860  1.2745  2.7612 -0.6862
   27DOPE     N 3355   5.356   0.928   7.197 -0.4995  0.8965  0.2171
   27DOPE   HN1 3356   5.349   0.849   7.265  0.6067  1.5038  1.0791
   27DOPE   HN2 3357   5.453   0.927   7.160 -1.0356 -1.1897 -1.2732
   27DOPE   HN3 3358   5.338   1.011   7.257  1.1212  1.4802 -0.0447
   27DOPE   C12 3359   5.269   0.933   7.078 -0.3847 -0.6654 -0.6663
   27DOPE  H12A 3360   5.286   1.026   7.019  2.0806  0.5388  1.6990
   27DOPE  H12B 3361   5.164   0.919   7.109 -1.4024  1.7041 -2.7588
   27DOPE   C11 3362   5.298   0.813   6.983  0.4499 -1.0129 -0.7289
   27DOPE  H11A 3363   5.394   0.833   6.930  0.2918  0.8470 -0.3969
   27DOPE  H11B 3364   5.210   0.810   6.916  1.5199 -2.1100 -2.1535
   27DOPE     P 3365   5.412   0.576   7.064  0.9402  0.2310  0.0939
   27DOPE   O13 3366   5.346   0.450   7.109  0.0196  0.0108 -0.7537
   27DOPE   O14 3367   5.519   0.632   7.159 -0.0480  0.8247  0.0225
   27DOPE   O11 3368   5.472   0.553   6.920 -0.2091 -0.1938 -0.0512
   27DOPE   O12 3369   5.295   0.689   7.053  0.3167  0.3806 -0.1769
   27DOPE    C1 3370   5.408   0.588   6.796  0.7201  0.2732  0.2054
   27DOPE    HA 3371   5.458   0.680   6.759  3.5649 -0.7773  1.1924
   27DOPE    HB 3372   5.298   0.596   6.812  0.4953 -1.9039  0.0102
   27DOPE    C2 3373   5.427   0.473   6.692  0.9302  0.3646  0.1429
   27DOPE    HS 3374   5.387   0.386   6.749 -1.4443  1.9293  1.0443
   27DOPE   O21 3375   5.568   0.466   6.674  0.5926 -0.4352 -0.4099
   27DOPE   C21 3376   5.617   0.348   6.654 -0.3030 -0.5391  0.3390
   27DOPE   O22 3377   5.558   0.243   6.661 -0.0365  0.0227  0.2944
   27DOPE   C22 3378   5.769   0.357   6.624  0.8459  0.1724  0.1869
   27DOPE   H2R 3379   5.803   0.258   6.590  2.7538  0.5477  0.9079
   27DOPE   H2S 3380   5.821   0.382   6.719 -2.6736 -0.7319  2.5758
   27DOPE    C3 3381   5.351   0.491   6.554 -0.3966  0.1211  0.7644
   27DOPE    HX 3382   5.367   0.596   6.520  0.9522 -0.7381 -1.4236
   27DOPE    HY 3383   5.245   0.470   6.580 -0.4312  1.2544  1.6161
   27DOPE   O31 3384   5.401   0.398   6.447  0.2300 -0.3204 -0.1227
   27DOPE   C31 3385   5.321   0.399   6.340 -0.7031  1.3079 -0.3455
   27DOPE   O32 3386   5.215   0.459   6.340 -0.1801 -0.6734  0.4496
   27DOPE   C32 3387   5.393   0.346   6.220 -0.0276 -0.0360 -0.3864
   27DOPE   H2X 3388   5.503   0.356   6.229  0.1217 -0.6728 -1.4122
   27DOPE   H2Y 3389   5.379   0.235   6.221 -2.2946  0.1401  2.5945
   27DOPE   C23 3390   5.805   0.460   6.516  0.5639  0.4454  0.0800
   27DOPE   H3R 3391   5.912   0.485   6.528  0.5857  0.5511 -0.3249
   27DOPE   H3S 3392   5.755   0.557   6.535 -1.6468 -0.5748 -0.1624
   27DOPE   C24 3393   5.777   0.417   6.374 -0.0081 -0.1771  0.4687
   27DOPE   H4R 3394   5.792   0.502   6.303  0.2414  0.5157  1.3384
   27DOPE   H4S 3395   5.669   0.388   6.370 -0.0576  0.0408  0.0783
   27DOPE   C25 3396   5.861   0.301   6.329 -0.2183  0.5397 -0.0638
   27DOPE   H5R 3397   5.828   0.204   6.372  1.9141 -0.6387 -0.9271
   27DOPE   H5S 3398   5.963   0.315   6.371  0.6933  0.4823 -2.1711
   27DOPE   C26 3399   5.871   0.280   6.172  0.9447  0.2003  0.0914
   27DOPE   H6R 3400   5.874   0.381   6.126  1.4910 -0.0356 -0.3999
   27DOPE   H6S 3401   5.780   0.236   6.125  1.4736 -0.0481 -0.7072
   27DOPE   C27 3402   5.997   0.216   6.124 -0.1772  0.1695  0.2222
   27DOPE   H7R 3403   5.984   0.183   6.019  2.4959 -2.1360  0.4971
   27DOPE   H7S 3404   6.010   0.124   6.186  0.3838  0.9756  1.3386
   27DOPE   C28 3405   6.117   0.309   6.135 -0.0204  1.2144 -0.8458
   27DOPE   H8R 3406   6.147   0.299   6.242 -0.2884 -0.8180 -0.9213
   27DOPE   H8S 3407   6.089   0.416   6.127  0.6499  1.6016  1.2434
   27DOPE   C29 3408   6.230   0.271   6.054 -0.2209  0.2230 -0.0730
   27DOPE   H9R 3409   6.314   0.215   6.098  0.4165  1.6526  0.5939
   27DOPE  C210 3410   6.252   0.314   5.932  0.1046  0.5422 -0.4425
   27DOPE  H10R 3411   6.346   0.290   5.879  0.5159  0.2201  0.4139
   27DOPE  C211 3412   6.167   0.407   5.850  0.0313 -0.0096 -0.5336
   27DOPE  H11R 3413   6.102   0.478   5.906  0.8422  0.7912 -0.5861
   27DOPE  H11S 3414   6.094   0.363   5.778  0.1796  1.8031 -1.8810
   27DOPE  C212 3415   6.253   0.488   5.748  0.4507  0.3487 -0.3898
   27DOPE  H12R 3416   6.183   0.538   5.678  0.7017  1.0949 -0.1297
   27DOPE  H12S 3417   6.312   0.419   5.685 -1.2906 -0.8792 -0.7388
   27DOPE  C213 3418   6.343   0.597   5.804  0.1394 -0.5211  0.1286
   27DOPE  H13R 3419   6.420   0.549   5.868  1.9218 -0.3102 -1.7385
   27DOPE  H13S 3420   6.294   0.678   5.863  0.0326  0.1184 -0.8207
   27DOPE  C214 3421   6.415   0.676   5.699 -0.1645  0.5022 -0.0113
   27DOPE  H14R 3422   6.448   0.608   5.618 -1.2106  0.4567 -0.4106
   27DOPE  H14S 3423   6.502   0.730   5.742 -0.1999  1.1509 -0.7438
   27DOPE  C215 3424   6.331   0.784   5.632  0.4473 -0.5749  0.1804
   27DOPE  H15R 3425   6.313   0.860   5.711 -0.3405 -0.7825  0.2108
   27DOPE  H15S 3426   6.231   0.744   5.602 -0.1447  2.2413 -2.0530
   27DOPE  C216 3427   6.398   0.843   5.510  0.1141 -0.0355 -0.4109
   27DOPE  H16R 3428   6.406   0.760   5.438 -1.2180  0.1257 -0.7713
   27DOPE  H16S 3429   6.499   0.874   5.546  0.0214 -1.1285  0.8499
   27DOPE  C217 3430   6.323   0.970   5.454  0.5339  0.2393  0.8175
   27DOPE  H17R 3431   6.310   1.029   5.547  0.7325 -0.2016  1.1268
   27DOPE  H17S 3432   6.228   0.937   5.407  0.7763 -1.9282  1.7537
   27DOPE  C218 3433   6.403   1.044   5.341 -0.2468 -0.2920  0.0592
   27DOPE  H18R 3434   6.486   1.108   5.378  3.3423 -1.4198 -5.0169
   27DOPE  H18S 3435   6.331   1.110   5.289  0.1873  0.5981  0.5674
   27DOPE  H18T 3436   6.455   0.978   5.269 -1.9729 -0.7444 -0.8202
   27DOPE   C33 3437   5.359   0.394   6.077  0.3921 -0.4956  0.3755
   27DOPE   H3X 3438   5.342   0.504   6.072 -3.3330 -0.8537  2.0107
   27DOPE   H3Y 3439   5.262   0.347   6.050  1.3366 -1.9158 -0.6754
   27DOPE   C34 3440   5.466   0.354   5.971 -0.4366  0.3238  0.0192
   27DOPE   H4X 3441   5.474   0.419   5.881 -0.0681 -0.4331 -0.5091
   27DOPE   H4Y 3442   5.568   0.363   6.014 -0.6285 -0.2324  0.6105
   27DOPE   C35 3443   5.454   0.214   5.918  0.0668  0.6749  0.0993
   27DOPE   H5X 3444   5.346   0.192   5.903  0.1947 -0.4129  0.6831
   27DOPE   H5Y 3445   5.498   0.138   5.986 -2.2142  0.5350  1.5030
   27DOPE   C36 3446   5.514   0.194   5.779 -1.2054  0.9993  0.8603
   27DOPE   H6X 3447   5.493   0.281   5.714  0.0721  1.8809  1.5919
   27DOPE   H6Y 3448   5.478   0.106   5.721  0.5343  1.8770 -1.7241
   27DOPE   C37 3449   5.669   0.189   5.778 -0.6906  0.3393  0.1785
   27DOPE   H7X 3450   5.695   0.293   5.807  1.3718  0.0932 -0.6516
   27DOPE   H7Y 3451   5.708   0.116   5.853 -0.7021  0.6425  0.4832
   27DOPE   C38 3452   5.719   0.152   5.636 -0.1576  0.4179  0.0586
   27DOPE   H8X 3453   5.676   0.229   5.569 -0.7259  0.9871  1.0636
   27DOPE   H8Y 3454   5.683   0.050   5.611  2.1565 -0.6647  0.7446
   27DOPE   C39 3455   5.868   0.162   5.623 -0.5269 -0.3426 -0.0304
   27DOPE   H9X 3456   5.928   0.070   5.624 -0.0305 -0.0254  0.9678
   27DOPE  C310 3457   5.938   0.268   5.594 -0.2472 -0.5285 -0.8101
   27DOPE  H10X 3458   6.048   0.259   5.590 -0.0275  1.1870  0.3592
   27DOPE  C311 3459   5.890   0.406   5.562  0.5081 -0.1470  0.0407
   27DOPE  H11X 3460   5.783   0.405   5.532  0.3498 -1.7329  0.5576
   27DOPE  H11Y 3461   5.894   0.459   5.660  1.4925  0.1506 -0.1499
   27DOPE  C312 3462   5.974   0.481   5.461 -0.1466 -0.4448  0.2108
   27DOPE  H12X 3463   6.077   0.497   5.501  0.8362 -1.8199 -1.6250
   27DOPE  H12Y 3464   5.919   0.577   5.449  1.1866  0.1730 -1.3629
   27DOPE  C313 3465   5.983   0.415   5.324  0.9828  0.1489  0.8572
   27DOPE  H13X 3466   6.038   0.319   5.334  1.8644  0.4645 -0.6169
   27DOPE  H13Y 3467   5.888   0.382   5.277  0.8609  1.4869  0.1314
   27DOPE  C314 3468   6.071   0.490   5.219  0.0390 -0.9567 -0.3527
   27DOPE  H14X 3469   6.065   0.434   5.123 -1.2421  1.7816 -1.9601
   27DOPE  H14Y 3470   6.174   0.482   5.261  0.4311  1.1888 -0.7902
   27DOPE  C315 3471   6.049   0.643   5.202  0.1318 -0.4863  0.0379
   27DOPE  H15X 3472   6.059   0.699   5.297 -2.5942 -0.9902  0.7052
   27DOPE  H15Y 3473   5.943   0.664   5.178  0.2121 -1.2033 -1.0335
   27DOPE  C316 3474   6.148   0.699   5.100  0.6452 -0.1126 -0.1063
   27DOPE  H16X 3475   6.102   0.791   5.059 -1.1204 -0.7780  0.2866
   27DOPE  H16Y 3476   6.143   0.636   5.008 -0.8110  2.6855 -2.0796
   27DOPE  C317 3477   6.303   0.708   5.138  0.2820 -0.3587  0.7740
   27DOPE  H17X 3478   6.306   0.774   5.227 -1.6721  0.9017 -0.0144
   27DOPE  H17Y 3479   6.323   0.602   5.165  1.1388  0.1545  2.2569
   27DOPE  C318 3480   6.402   0.752   5.030  0.5354 -0.5360 -0.2307
   27DOPE  H18X 3481   6.374   0.850   4.986  1.0052 -0.6232 -0.7233
   27DOPE  H18Y 3482   6.503   0.766   5.074  0.2568 -0.4669  0.3977
   27DOPE  H18Z 3483   6.393   0.674   4.951  0.3554 -0.1893 -0.5510
   28DOPE     N 3484   7.206   7.383   7.158  0.1847 -0.6867  1.0773
   28DOPE   HN1 3485   7.120   7.332   7.130 -0.2310 -0.3062  1.6515
   28DOPE   HN2 3486   7.291   7.347   7.110  0.8215 -0.7107  2.1940
   28DOPE   HN3 3487   7.220   7.368   7.260  0.8153 -0.0151  1.1079
   28DOPE   C12 3488   7.180   7.531   7.138  0.0687  0.1903  0.8000
   28DOPE  H12A 3489   7.255   7.587   7.198 -0.0778  0.7015  0.5164
   28DOPE  H12B 3490   7.087   7.549   7.197 -0.3530 -1.7531  0.8052
   28DOPE   C11 3491   7.184   7.575   6.993 -0.3623  0.7085  0.3493
   28DOPE  H11A 3492   7.155   7.682   6.984  0.1054  0.9288  1.3679
   28DOPE  H11B 3493   7.115   7.511   6.934  1.0004  0.4210 -1.0101
   28DOPE     P 3494   7.365   7.462   6.833 -0.3942  0.8516 -0.1902
   28DOPE   O13 3495   7.324   7.327   6.869  0.0138  0.3324 -0.4820
   28DOPE   O14 3496   7.511   7.480   6.817 -0.2728 -0.2820 -0.0206
   28DOPE   O11 3497   7.283   7.489   6.712 -0.7428 -0.7206 -0.5481
   28DOPE   O12 3498   7.315   7.565   6.941 -0.3105 -0.2275  0.1215
   28DOPE    C1 3499   7.291   7.611   6.640  0.2906 -0.1851 -0.4046
   28DOPE    HA 3500   7.395   7.645   6.624  0.2775  0.6239  1.0811
   28DOPE    HB 3501   7.243   7.689   6.703  3.2410  1.6110 -0.2078
   28DOPE    C2 3502   7.222   7.590   6.503 -0.1807 -0.7053  0.4468
   28DOPE    HS 3503   7.241   7.685   6.449  0.6200 -1.5783 -0.8497
   28DOPE   O21 3504   7.079   7.563   6.511  0.3595  0.6470  0.1727
   28DOPE   C21 3505   7.009   7.654   6.579 -0.2295 -0.3391  0.7988
   28DOPE   O22 3506   7.047   7.770   6.601  0.2408  0.1930 -0.2810
   28DOPE   C22 3507   6.873   7.602   6.621  0.2203  0.0663 -0.1086
   28DOPE   H2R 3508   6.862   7.594   6.731  0.9576  0.9901  0.0435
   28DOPE   H2S 3509   6.867   7.500   6.575  2.0247 -1.5776  3.0025
   28DOPE    C3 3510   7.292   7.475   6.427  0.0011  0.1954  0.2109
   28DOPE    HX 3511   7.267   7.386   6.490 -2.3514 -0.2949 -1.2843
   28DOPE    HY 3512   7.403   7.472   6.431  0.0586 -0.0134 -1.2352
   28DOPE   O31 3513   7.254   7.467   6.290 -0.0351 -0.3551 -0.0620
   28DOPE   C31 3514   7.164   7.378   6.260  0.2766  0.0660 -0.1122
   28DOPE   O32 3515   7.116   7.294   6.338  0.1525 -0.8475  0.5430
   28DOPE   C32 3516   7.126   7.387   6.118 -0.3623  0.2570 -0.4333
   28DOPE   H2X 3517   7.216   7.365   6.057 -0.5176 -2.0217  0.0706
   28DOPE   H2Y 3518   7.048   7.308   6.110 -0.3657  0.0853  1.0926
   28DOPE   C23 3519   6.749   7.690   6.572 -0.4746  0.6094  0.6510
   28DOPE   H3R 3520   6.754   7.793   6.613 -2.0788 -0.2366  3.2198
   28DOPE   H3S 3521   6.657   7.641   6.610 -0.9774 -0.8264 -2.1650
   28DOPE   C24 3522   6.741   7.710   6.422  0.4476  0.2214  0.0470
   28DOPE   H4R 3523   6.693   7.623   6.372  0.2317  0.7462 -0.6763
   28DOPE   H4S 3524   6.842   7.728   6.380 -0.5583  0.4828 -2.4267
   28DOPE   C25 3525   6.648   7.828   6.396 -0.0203 -0.3574 -0.3680
   28DOPE   H5R 3526   6.687   7.915   6.453  0.7849 -1.3321  0.5852
   28DOPE   H5S 3527   6.543   7.808   6.426  0.1037  0.6374  0.7965
   28DOPE   C26 3528   6.653   7.882   6.247  0.8203 -0.0578  0.2663
   28DOPE   H6R 3529   6.598   7.812   6.180  2.6315 -2.6419  1.3091
   28DOPE   H6S 3530   6.756   7.880   6.207  1.5098  0.1126  1.9603
   28DOPE   C27 3531   6.601   8.030   6.231 -0.8241  1.1326 -0.4492
   28DOPE   H7R 3532   6.676   8.099   6.275 -2.3565  3.1464 -0.8280
   28DOPE   H7S 3533   6.506   8.041   6.288  0.4184  0.7122  1.8044
   28DOPE   C28 3534   6.594   8.075   6.083  0.1965 -0.3073  0.5871
   28DOPE   H8R 3535   6.540   8.172   6.073  1.7113  0.5450  0.2382
   28DOPE   H8S 3536   6.535   8.001   6.026  1.2898 -0.3371 -0.5486
   28DOPE   C29 3537   6.733   8.095   6.021  0.2936 -0.2237 -0.4098
   28DOPE   H9R 3538   6.812   8.127   6.091 -1.5875  1.1210  1.2333
   28DOPE  C210 3539   6.768   8.069   5.896 -0.0308  0.6988  0.7290
   28DOPE  H10R 3540   6.874   8.075   5.867 -0.1088  1.6303  0.5963
   28DOPE  C211 3541   6.683   8.023   5.783 -0.2408  0.0977 -0.1820
   28DOPE  H11R 3542   6.582   7.994   5.818  0.2701  0.2119  1.4301
   28DOPE  H11S 3543   6.726   7.926   5.750 -0.7100 -0.0406 -0.3888
   28DOPE  C212 3544   6.691   8.117   5.674 -0.0087 -0.1076  0.1639
   28DOPE  H12R 3545   6.799   8.131   5.652 -0.2540  2.1006  0.1407
   28DOPE  H12S 3546   6.637   8.210   5.702  1.1768  0.6064  0.1554
   28DOPE  C213 3547   6.617   8.076   5.548  0.8941  0.2741  0.2477
   28DOPE  H13R 3548   6.507   8.084   5.563  0.7362  0.2480 -0.7941
   28DOPE  H13S 3549   6.644   7.973   5.516  1.7250  0.3533  0.6668
   28DOPE  C214 3550   6.650   8.162   5.426 -0.6013 -0.0060  0.2608
   28DOPE  H14R 3551   6.646   8.269   5.456  1.1160  0.5097 -1.1445
   28DOPE  H14S 3552   6.590   8.141   5.335 -0.8235  0.6090  0.2597
   28DOPE  C215 3553   6.785   8.133   5.366 -1.0352 -0.3832 -0.2486
   28DOPE  H15R 3554   6.793   8.023   5.352 -0.0761 -0.2119 -1.1594
   28DOPE  H15S 3555   6.866   8.158   5.438 -0.5884 -0.2739 -0.7783
   28DOPE  C216 3556   6.807   8.234   5.240  0.5676 -0.5461 -0.5512
   28DOPE  H16R 3557   6.820   8.332   5.292 -1.7432  0.1069 -1.0655
   28DOPE  H16S 3558   6.720   8.234   5.171  0.5291  0.1497 -0.5150
   28DOPE  C217 3559   6.939   8.209   5.178 -0.0478  0.0301 -0.2118
   28DOPE  H17R 3560   6.954   8.101   5.162 -1.3503  0.0472 -1.8131
   28DOPE  H17S 3561   7.023   8.234   5.247  1.9801 -0.6714 -2.2791
   28DOPE  C218 3562   6.961   8.290   5.041 -0.4058  0.3588  0.1874
   28DOPE  H18R 3563   6.884   8.268   4.964 -2.3994  0.1381  2.1413
   28DOPE  H18S 3564   7.060   8.261   5.000  0.7265  2.1637  1.4775
   28DOPE  H18T 3565   6.977   8.399   5.054 -1.2188  0.5611 -0.4420
   28DOPE   C33 3566   7.065   7.522   6.076 -0.0686 -0.1423  0.2238
   28DOPE   H3X 3567   7.066   7.534   5.966  0.8917 -0.4930  0.1818
   28DOPE   H3Y 3568   7.127   7.603   6.119  1.8133 -1.1716 -0.4491
   28DOPE   C34 3569   6.915   7.540   6.119  0.7959  0.4167  0.2077
   28DOPE   H4X 3570   6.854   7.451   6.093 -1.0770  2.0789 -1.4269
   28DOPE   H4Y 3571   6.907   7.565   6.227 -2.0356 -0.7178  0.3467
   28DOPE   C35 3572   6.846   7.666   6.047 -0.8723  0.2338 -0.9496
   28DOPE   H5X 3573   6.908   7.756   6.066  0.0459 -0.6265  0.3794
   28DOPE   H5Y 3574   6.747   7.685   6.093 -1.1244  0.3298 -1.5337
   28DOPE   C36 3575   6.833   7.642   5.893  0.0544 -0.3341 -0.4139
   28DOPE   H6X 3576   6.933   7.614   5.854  0.9218  2.2684 -0.1947
   28DOPE   H6Y 3577   6.803   7.736   5.841 -0.5235  0.2108  0.8564
   28DOPE   C37 3578   6.720   7.546   5.851  0.5631  0.3305 -0.0972
   28DOPE   H7X 3579   6.742   7.440   5.874 -2.4318 -0.9822 -2.5364
   28DOPE   H7Y 3580   6.624   7.568   5.902  0.1179  0.1807 -0.8547
   28DOPE   C38 3581   6.683   7.566   5.703 -0.0974  0.6815 -0.4903
   28DOPE   H8X 3582   6.656   7.672   5.682  2.2744  1.3088 -0.6151
   28DOPE   H8Y 3583   6.593   7.501   5.688 -0.2940  0.0627  2.6429
   28DOPE   C39 3584   6.801   7.511   5.627  0.8972  0.0787 -0.2421
   28DOPE   H9X 3585   6.819   7.404   5.644 -0.9203 -0.0689  0.9896
   28DOPE  C310 3586   6.894   7.585   5.566 -0.5078  0.1178 -0.3620
   28DOPE  H10X 3587   6.972   7.526   5.516 -0.0418  0.0818  0.4023
   28DOPE  C311 3588   6.904   7.736   5.557 -0.1714  0.4983 -0.1686
   28DOPE  H11X 3589   6.800   7.774   5.559 -0.1235  0.6157  0.4953
   28DOPE  H11Y 3590   6.960   7.773   5.646  0.0429  0.4079 -0.2636
   28DOPE  C312 3591   6.980   7.780   5.438 -0.3902 -0.4029 -0.2318
   28DOPE  H12X 3592   6.970   7.890   5.449 -1.6025 -0.5031 -0.1453
   28DOPE  H12Y 3593   6.935   7.754   5.340  3.0477 -0.6465 -1.8689
   28DOPE  C313 3594   7.127   7.736   5.436 -0.3505  0.4061  0.8852
   28DOPE  H13X 3595   7.172   7.768   5.532  1.3990 -0.2313  0.3195
   28DOPE  H13Y 3596   7.120   7.625   5.434 -3.8483  0.5418 -0.1623
   28DOPE  C314 3597   7.209   7.762   5.309  0.3408  0.3272  0.1734
   28DOPE  H14X 3598   7.144   7.745   5.220  0.4423  1.6987 -0.1744
   28DOPE  H14Y 3599   7.299   7.698   5.296  0.0573 -0.1266  0.4057
   28DOPE  C315 3600   7.250   7.911   5.306  0.1474 -0.0113  0.6593
   28DOPE  H15X 3601   7.283   7.946   5.406  1.5150  1.1358 -0.1501
   28DOPE  H15Y 3602   7.158   7.966   5.276 -0.0578 -1.4714 -1.6619
   28DOPE  C316 3603   7.356   7.950   5.198  0.2085 -0.4499 -0.5382
   28DOPE  H16X 3604   7.354   8.061   5.195 -0.6109 -0.2662  2.7870
   28DOPE  H16Y 3605   7.332   7.898   5.103  0.8531 -0.9487 -0.4351
   28DOPE  C317 3606   7.500   7.922   5.245  0.4097  0.4811 -0.6086
   28DOPE  H17X 3607   7.513   7.958   5.349  0.9709  0.8862 -0.8153
   28DOPE  H17Y 3608   7.502   7.811   5.252  1.2635  0.5449  0.4385
   28DOPE  C318 3609   7.615   7.969   5.162  0.0615  0.6319  0.3183
   28DOPE  H18X 3610   7.718   7.951   5.200 -0.1227 -0.2998  0.3894
   28DOPE  H18Y 3611   7.602   7.953   5.053 -1.5854  0.8551  0.4629
   28DOPE  H18Z 3612   7.609   8.080   5.163  0.1814  0.6538 -0.8544
   29DOPE     N 3613   0.630   1.055   7.142  0.4760 -1.0447 -0.5377
   29DOPE   HN1 3614   0.611   0.955   7.160 -0.8763 -0.5696  0.9077
   29DOPE   HN2 3615   0.646   1.064   7.040 -1.7454  0.6532 -0.8196
   29DOPE   HN3 3616   0.716   1.088   7.191  0.3411 -0.8048 -0.4591
   29DOPE   C12 3617   0.512   1.145   7.175  0.0204 -0.3236 -0.0238
   29DOPE  H12A 3618   0.543   1.252   7.168  0.2946 -0.3950  0.0824
   29DOPE  H12B 3619   0.494   1.124   7.283  0.8574  0.1950  0.2255
   29DOPE   C11 3620   0.392   1.116   7.084 -0.0367  0.2992  0.0458
   29DOPE  H11A 3621   0.437   1.127   6.983  1.1410 -1.1325  0.3857
   29DOPE  H11B 3622   0.328   1.206   7.097  2.0650  2.0242 -0.8645
   29DOPE     P 3623   0.214   0.919   7.054  0.0214  0.3000  0.2268
   29DOPE   O13 3624   0.101   1.004   7.088  0.8420  0.0889  0.0030
   29DOPE   O14 3625   0.205   0.782   7.103 -0.3044  0.0455 -0.1393
   29DOPE   O11 3626   0.249   0.925   6.901  0.0987 -0.3715  0.3042
   29DOPE   O12 3627   0.342   0.989   7.117  0.4741 -0.7888 -0.1343
   29DOPE    C1 3628   0.367   0.873   6.833 -0.0155  0.0763 -0.4731
   29DOPE    HA 3629   0.429   0.819   6.908  0.9993  2.7802  0.7456
   29DOPE    HB 3630   0.426   0.959   6.795  1.0644 -0.2893  0.2994
   29DOPE    C2 3631   0.338   0.781   6.714 -0.4750  0.2920 -0.5081
   29DOPE    HS 3632   0.433   0.737   6.678 -1.0937 -0.8547 -0.7949
   29DOPE   O21 3633   0.251   0.841   6.616  0.1019  0.2580 -0.0822
   29DOPE   C21 3634   0.309   0.930   6.542  0.5454  0.1495 -0.1519
   29DOPE   O22 3635   0.428   0.937   6.523  0.7015  0.1978 -0.0013
   29DOPE   C22 3636   0.204   1.010   6.461  0.0158  0.6053 -0.0252
   29DOPE   H2R 3637   0.132   1.063   6.527 -0.7358 -1.9465  1.3187
   29DOPE   H2S 3638   0.142   0.943   6.398  0.4010 -1.0794  1.3210
   29DOPE    C3 3639   0.258   0.655   6.772 -0.1996  0.1400  0.2067
   29DOPE    HX 3640   0.173   0.700   6.828  0.5845  0.4053  1.2099
   29DOPE    HY 3641   0.328   0.605   6.842  0.1572 -1.3619 -1.1735
   29DOPE   O31 3642   0.231   0.554   6.674  0.0170  0.1188  0.5270
   29DOPE   C31 3643   0.168   0.448   6.735  0.6270  0.3731  0.2304
   29DOPE   O32 3644   0.145   0.444   6.856 -0.5434 -0.0871  0.5689
   29DOPE   C32 3645   0.133   0.328   6.638 -0.2226  0.1715  0.1881
   29DOPE   H2X 3646   0.054   0.265   6.684 -0.9151  0.3128 -0.7796
   29DOPE   H2Y 3647   0.105   0.372   6.540  2.4662 -0.3250 -0.8716
   29DOPE   C23 3648   0.267   1.113   6.365  0.3922  0.4186  0.2819
   29DOPE   H3R 3649   0.360   1.156   6.407  0.9013  1.2011 -1.5428
   29DOPE   H3S 3650   0.206   1.206   6.358 -0.4764 -0.2591 -3.4281
   29DOPE   C24 3651   0.294   1.055   6.222  0.0671  0.2490 -0.2092
   29DOPE   H4R 3652   0.193   1.028   6.185 -0.2206  0.7747  0.1866
   29DOPE   H4S 3653   0.376   0.980   6.226  2.0759  2.3709  0.9098
   29DOPE   C25 3654   0.361   1.165   6.130 -0.1622  0.2756  0.4110
   29DOPE   H5R 3655   0.462   1.192   6.166 -0.5209  0.4607  1.2924
   29DOPE   H5S 3656   0.308   1.262   6.141  0.0386  0.5412 -0.7646
   29DOPE   C26 3657   0.362   1.129   5.979  0.1861  0.2492  1.0327
   29DOPE   H6R 3658   0.430   1.200   5.928  1.9492 -0.0271  2.8608
   29DOPE   H6S 3659   0.266   1.163   5.934  0.9487 -1.2697 -1.9766
   29DOPE   C27 3660   0.398   0.984   5.932  0.5589 -0.9717 -0.2784
   29DOPE   H7R 3661   0.384   0.977   5.822 -2.1170  2.0303 -0.2586
   29DOPE   H7S 3662   0.317   0.924   5.977  0.5303 -1.6434 -1.1839
   29DOPE   C28 3663   0.530   0.935   5.982 -0.7285  0.6915  0.1485
   29DOPE   H8R 3664   0.522   0.921   6.092  0.8067 -0.6287  0.1365
   29DOPE   H8S 3665   0.608   1.012   5.967 -0.5516  0.3979 -0.4689
   29DOPE   C29 3666   0.557   0.787   5.928 -0.7404 -0.0433 -0.4600
   29DOPE   H9R 3667   0.499   0.751   5.841  1.7487  0.3263 -2.3997
   29DOPE  C210 3668   0.650   0.700   5.970  0.2260 -0.4633 -0.0906
   29DOPE  H10R 3669   0.640   0.603   5.920 -3.5044 -3.1253  4.8663
   29DOPE  C211 3670   0.756   0.719   6.082 -0.2988 -0.3298  0.2484
   29DOPE  H11R 3671   0.766   0.629   6.147 -1.2017  0.0763  0.9618
   29DOPE  H11S 3672   0.726   0.807   6.141  0.6460  0.6320 -0.6596
   29DOPE  C212 3673   0.890   0.763   6.017 -0.2730  0.0566 -0.2518
   29DOPE  H12R 3674   0.862   0.840   5.942 -1.1432  0.4920  0.4824
   29DOPE  H12S 3675   0.946   0.686   5.960  0.2667  0.5924 -0.4629
   29DOPE  C213 3676   0.980   0.827   6.120  0.2022 -0.6739 -0.2276
   29DOPE  H13R 3677   0.924   0.914   6.161  1.9703 -0.3865  1.7120
   29DOPE  H13S 3678   1.069   0.859   6.063  0.5058  0.1202  0.6667
   29DOPE  C214 3679   1.013   0.728   6.238 -0.3797  0.0028 -0.0598
   29DOPE  H14R 3680   1.049   0.628   6.205 -1.0688 -0.1227 -0.4432
   29DOPE  H14S 3681   0.918   0.724   6.296 -0.4004  1.1277  0.0021
   29DOPE  C215 3682   1.110   0.804   6.335 -0.0999 -0.4852 -0.0650
   29DOPE  H15R 3683   1.060   0.894   6.376 -0.0689 -0.6014  0.2361
   29DOPE  H15S 3684   1.199   0.827   6.274 -0.2902  0.0080 -0.1563
   29DOPE  C216 3685   1.146   0.703   6.445 -0.2412 -0.6299 -0.1220
   29DOPE  H16R 3686   1.215   0.628   6.399  0.5778 -0.0217  0.0989
   29DOPE  H16S 3687   1.056   0.655   6.487  0.5999 -0.0094  2.5564
   29DOPE  C217 3688   1.220   0.769   6.557  0.3065  0.7243 -0.0246
   29DOPE  H17R 3689   1.154   0.849   6.598  2.5985  2.5126  0.4481
   29DOPE  H17S 3690   1.313   0.814   6.516  0.8244  0.0299  0.3704
   29DOPE  C218 3691   1.265   0.671   6.674  0.0452  0.1834  0.1420
   29DOPE  H18R 3692   1.309   0.720   6.763  0.8075 -2.8413  1.5807
   29DOPE  H18S 3693   1.336   0.591   6.644 -0.6471 -0.8934  1.2638
   29DOPE  H18T 3694   1.169   0.625   6.708  0.1041  0.5774  0.8505
   29DOPE   C33 3695   0.255   0.237   6.609  0.4366 -0.2042 -0.0533
   29DOPE   H3X 3696   0.215   0.139   6.574  0.2830 -0.0486 -0.3192
   29DOPE   H3Y 3697   0.316   0.223   6.700  2.1557 -3.3063 -1.5102
   29DOPE   C34 3698   0.337   0.283   6.486  0.2036 -0.0927  0.6316
   29DOPE   H4X 3699   0.344   0.394   6.490 -1.2848  0.0568 -0.2483
   29DOPE   H4Y 3700   0.430   0.223   6.489 -1.0195 -2.0532  0.6455
   29DOPE   C35 3701   0.260   0.247   6.348  0.0168  0.2405 -0.0204
   29DOPE   H5X 3702   0.178   0.319   6.333  1.8563  2.2492 -0.8542
   29DOPE   H5Y 3703   0.219   0.144   6.361  2.2070 -0.5663  1.0675
   29DOPE   C36 3704   0.355   0.244   6.230 -0.5032  0.3885 -0.1243
   29DOPE   H6X 3705   0.439   0.174   6.249 -1.2672 -0.3271  0.7057
   29DOPE   H6Y 3706   0.409   0.341   6.225  2.1745 -0.9668  0.5938
   29DOPE   C37 3707   0.271   0.224   6.109 -0.2923 -0.7565  0.7015
   29DOPE   H7X 3708   0.202   0.137   6.118 -0.5464 -0.8359 -1.4403
   29DOPE   H7Y 3709   0.204   0.312   6.104  1.2724  0.5936  2.1224
   29DOPE   C38 3710   0.345   0.225   5.975  0.7141  0.0358  0.1375
   29DOPE   H8X 3711   0.394   0.325   5.968 -1.7023  1.2259 -1.4565
   29DOPE   H8Y 3712   0.262   0.229   5.901 -2.6786 -0.8111  3.5580
   29DOPE   C39 3713   0.439   0.113   5.956 -0.6651  0.1372  0.2798
   29DOPE   H9X 3714   0.511   0.076   6.031 -1.1294 -0.5141  0.4058
   29DOPE  C310 3715   0.435   0.031   5.851 -0.0193  0.5868 -0.6160
   29DOPE  H10X 3716   0.520  -0.037   5.834 -0.0471  0.1056  1.0357
   29DOPE  C311 3717   0.338   0.034   5.734 -0.0261 -0.7361 -0.2545
   29DOPE  H11X 3718   0.297  -0.067   5.716  0.4110 -1.0059  0.2662
   29DOPE  H11Y 3719   0.251   0.102   5.747  0.2842 -0.6407  1.5309
   29DOPE  C312 3720   0.407   0.082   5.598 -0.6918 -0.5036 -0.0180
   29DOPE  H12X 3721   0.505   0.031   5.584 -0.0369  0.9007 -0.7379
   29DOPE  H12Y 3722   0.441   0.187   5.610 -0.6917 -0.1949 -2.2350
   29DOPE  C313 3723   0.332   0.052   5.476  0.6865  0.1655  0.3279
   29DOPE  H13X 3724   0.291  -0.050   5.468 -0.7192  0.6995  0.5193
   29DOPE  H13Y 3725   0.250   0.126   5.463  0.3022 -0.4199 -0.7035
   29DOPE  C314 3726   0.413   0.078   5.346 -0.2586 -0.7372 -0.0688
   29DOPE  H14X 3727   0.511   0.024   5.349  1.0849  1.6013  0.5072
   29DOPE  H14Y 3728   0.446   0.184   5.345 -1.1001 -0.4622  1.0328
   29DOPE  C315 3729   0.331   0.042   5.221  0.0359 -0.1155 -0.3877
   29DOPE  H15X 3730   0.236   0.099   5.230  0.3096  0.7898 -2.6727
   29DOPE  H15Y 3731   0.295  -0.063   5.226  0.7384 -0.3079  1.2320
   29DOPE  C316 3732   0.382   0.076   5.073  0.1657  0.3065 -0.2042
   29DOPE  H16X 3733   0.475   0.017   5.055  0.8327  0.9795  0.9035
   29DOPE  H16Y 3734   0.412   0.183   5.075  0.2398  0.2880 -0.3087
   29DOPE  C317 3735   0.276   0.050   4.962 -0.3767  0.1536 -0.0458
   29DOPE  H17X 3736   0.292  -0.047   4.911  1.2074  0.6683 -0.5632
   29DOPE  H17Y 3737   0.179   0.065   5.015  0.3873  1.4790  1.0788
   29DOPE  C318 3738   0.289   0.153   4.851  0.5071 -0.2073  0.0196
   29DOPE  H18X 3739   0.392   0.164   4.809 -0.3219 -1.1223 -2.4848
   29DOPE  H18Y 3740   0.221   0.141   4.764  0.9647 -0.4138 -0.3156
   29DOPE  H18Z 3741   0.255   0.250   4.892 -1.9035 -1.0506  0.1606
   30DOPE     N 3742   0.226   7.383   7.165 -0.4273  0.2253 -0.2823
   30DOPE   HN1 3743   0.221   7.286   7.129  1.6418 -0.2415  0.5599
   30DOPE   HN2 3744   0.282   7.385   7.253 -1.0896  0.0000  0.1523
   30DOPE   HN3 3745   0.132   7.421   7.191 -0.7363 -0.6587 -0.0899
   30DOPE   C12 3746   0.285   7.481   7.065 -0.6403  0.0514  0.6401
   30DOPE  H12A 3747   0.304   7.574   7.123 -0.9751 -1.0228  2.5190
   30DOPE  H12B 3748   0.210   7.502   6.985  1.4100 -0.9635 -1.6731
   30DOPE   C11 3749   0.410   7.422   7.004  0.2827  0.2254  0.0550
   30DOPE  H11A 3750   0.464   7.478   6.925  1.0442 -0.8222 -0.1912
   30DOPE  H11B 3751   0.388   7.321   6.962  0.4427  0.1211  0.2204
   30DOPE     P 3752   0.642   7.355   7.125  0.1601 -0.0630 -0.0605
   30DOPE   O13 3753   0.655   7.225   7.196 -0.4286  0.1575 -0.5849
   30DOPE   O14 3754   0.714   7.477   7.172  0.2830  0.5678 -0.1161
   30DOPE   O11 3755   0.667   7.322   6.974  0.3084  0.2594 -0.0105
   30DOPE   O12 3756   0.490   7.395   7.119 -0.2505  0.1641  0.1461
   30DOPE    C1 3757   0.780   7.357   6.897 -0.7699 -0.2815 -0.3866
   30DOPE    HA 3758   0.813   7.271   6.835 -0.4226  0.0132 -0.6181
   30DOPE    HB 3759   0.865   7.377   6.966  1.0147 -1.0821 -2.2369
   30DOPE    C2 3760   0.761   7.490   6.823 -0.1244 -0.1925  0.8679
   30DOPE    HS 3761   0.694   7.553   6.886  1.3993  2.8527 -0.3628
   30DOPE   O21 3762   0.705   7.456   6.690 -0.4364  0.4555  0.1105
   30DOPE   C21 3763   0.647   7.552   6.630 -0.6773 -0.9113  0.0043
   30DOPE   O22 3764   0.600   7.652   6.684  0.3834  0.1461  0.0509
   30DOPE   C22 3765   0.626   7.504   6.485 -0.4353  0.0009  0.0665
   30DOPE   H2R 3766   0.599   7.397   6.500 -1.7932  0.7140  3.4406
   30DOPE   H2S 3767   0.718   7.529   6.428 -0.3492  0.7284  0.5241
   30DOPE    C3 3768   0.897   7.577   6.820 -0.4034 -0.2041  0.1032
   30DOPE    HX 3769   0.980   7.510   6.789  0.6535  1.5835 -1.1214
   30DOPE    HY 3770   0.925   7.607   6.924 -0.7931  0.0483  0.1370
   30DOPE   O31 3771   0.889   7.692   6.725  0.7484  0.2011 -0.0683
   30DOPE   C31 3772   0.844   7.805   6.783  0.4626  0.2724 -0.9029
   30DOPE   O32 3773   0.816   7.813   6.899  0.3211  0.1128 -0.3755
   30DOPE   C32 3774   0.817   7.926   6.688  0.6063 -0.1523 -0.0464
   30DOPE   H2X 3775   0.769   7.872   6.603  0.4943 -1.3643  0.7646
   30DOPE   H2Y 3776   0.750   8.003   6.732  0.4740 -0.8143  0.9497
   30DOPE   C23 3777   0.504   7.567   6.415 -0.3512  0.6271  0.3849
   30DOPE   H3R 3778   0.528   7.668   6.378  1.0540 -0.3757 -1.6120
   30DOPE   H3S 3779   0.421   7.563   6.490 -0.8248 -1.1364 -0.1808
   30DOPE   C24 3780   0.454   7.496   6.291 -0.0328  0.2063 -0.2179
   30DOPE   H4R 3781   0.370   7.550   6.243  0.5702  0.4569 -1.0186
   30DOPE   H4S 3782   0.424   7.391   6.313  1.5310 -0.4818 -1.1312
   30DOPE   C25 3783   0.572   7.477   6.193 -0.2067  0.3192  0.4087
   30DOPE   H5R 3784   0.648   7.411   6.239 -1.5615  1.6735  5.1928
   30DOPE   H5S 3785   0.613   7.576   6.165  2.1189  0.0881  2.6163
   30DOPE   C26 3786   0.532   7.414   6.059 -0.3894 -0.0220  0.4398
   30DOPE   H6R 3787   0.475   7.495   6.009 -0.2200 -0.8273 -1.1392
   30DOPE   H6S 3788   0.459   7.331   6.076 -0.8936  0.5601  1.1475
   30DOPE   C27 3789   0.651   7.380   5.968  0.0688  0.4187 -0.1223
   30DOPE   H7R 3790   0.715   7.305   6.022 -0.8960 -1.2184 -1.1600
   30DOPE   H7S 3791   0.712   7.472   5.957  1.7469 -0.1197  3.0552
   30DOPE   C28 3792   0.613   7.313   5.836 -0.4133  0.4732 -0.0846
   30DOPE   H8R 3793   0.567   7.397   5.779  0.2158  0.2069 -1.0133
   30DOPE   H8S 3794   0.542   7.231   5.858  0.3070  0.1570  1.1641
   30DOPE   C29 3795   0.743   7.272   5.770 -0.2076  0.4630 -0.1767
   30DOPE   H9R 3796   0.807   7.359   5.751 -0.2591  0.8373  1.2267
   30DOPE  C210 3797   0.781   7.148   5.731  0.1898  0.2244  0.4457
   30DOPE  H10R 3798   0.884   7.125   5.701  0.9351  2.0787  1.3757
   30DOPE  C211 3799   0.691   7.027   5.756  0.4354  0.5694 -0.7703
   30DOPE  H11R 3800   0.637   7.002   5.662  0.1531  0.3751 -0.5591
   30DOPE  H11S 3801   0.619   7.049   5.838  1.9108  0.8182  0.5068
   30DOPE  C212 3802   0.758   6.890   5.787  0.2590  0.7411 -0.1443
   30DOPE  H12R 3803   0.805   6.885   5.887  2.2744  2.2927 -0.9372
   30DOPE  H12S 3804   0.834   6.869   5.709 -3.6878  0.2839 -4.2874
   30DOPE  C213 3805   0.653   6.775   5.778 -0.1923  0.0678 -0.2213
   30DOPE  H13R 3806   0.610   6.760   5.677  1.5353 -1.1894 -0.8124
   30DOPE  H13S 3807   0.570   6.801   5.848  0.8941  0.5192  0.9462
   30DOPE  C214 3808   0.713   6.639   5.823  0.4473  0.1836  0.0261
   30DOPE  H14R 3809   0.732   6.629   5.932 -0.1947 -3.5462 -0.0961
   30DOPE  H14S 3810   0.800   6.617   5.758  1.5803  0.6242  1.3372
   30DOPE  C215 3811   0.595   6.535   5.796 -0.1335  0.6660 -0.2513
   30DOPE  H15R 3812   0.639   6.435   5.816  3.1143  2.0336  0.2126
   30DOPE  H15S 3813   0.569   6.542   5.688  1.3441  0.4929 -0.6434
   30DOPE  C216 3814   0.465   6.560   5.869 -0.0403  0.6752 -0.1032
   30DOPE  H16R 3815   0.391   6.510   5.802 -2.0709  3.4963 -0.1684
   30DOPE  H16S 3816   0.433   6.666   5.877  1.3290  1.0129  1.3397
   30DOPE  C217 3817   0.463   6.489   6.001  0.4733 -0.4325 -0.2625
   30DOPE  H17R 3818   0.555   6.529   6.048  0.5931 -0.4571 -0.4761
   30DOPE  H17S 3819   0.490   6.382   5.987 -2.8433 -1.3731 -0.3280
   30DOPE  C218 3820   0.335   6.506   6.090 -0.2138  0.5954 -0.7332
   30DOPE  H18R 3821   0.360   6.484   6.197 -0.8773 -1.0722 -0.8902
   30DOPE  H18S 3822   0.257   6.430   6.067  1.6099 -0.7617 -2.8636
   30DOPE  H18T 3823   0.301   6.611   6.092 -2.2993 -0.0108  2.0127
   30DOPE   C33 3824   0.946   7.984   6.627  0.0160  0.5452 -0.2343
   30DOPE   H3X 3825   1.015   7.902   6.598 -0.0471  0.2616  0.4050
   30DOPE   H3Y 3826   1.001   8.034   6.710 -0.9675  0.3076  0.5724
   30DOPE   C34 3827   0.926   8.087   6.517  0.2181 -0.2449 -0.6384
   30DOPE   H4X 3828   0.867   8.169   6.564 -0.4297 -0.6701 -0.6956
   30DOPE   H4Y 3829   1.026   8.129   6.494 -0.7129  2.0501 -0.8545
   30DOPE   C35 3830   0.848   8.033   6.391 -0.1446 -0.5322 -0.6458
   30DOPE   H5X 3831   0.811   8.108   6.318  2.1413 -0.4682 -1.8545
   30DOPE   H5Y 3832   0.758   7.975   6.420  0.0458  0.0606  1.3391
   30DOPE   C36 3833   0.942   7.949   6.309  0.6530  0.3116  0.5127
   30DOPE   H6X 3834   0.973   7.867   6.377 -1.5177 -0.8451  0.2163
   30DOPE   H6Y 3835   1.028   8.011   6.278  0.1479  0.8927  0.2458
   30DOPE   C37 3836   0.875   7.870   6.181 -0.3857 -0.1578 -0.6788
   30DOPE   H7X 3837   0.956   7.816   6.127  0.3130 -1.8724  1.8747
   30DOPE   H7Y 3838   0.804   7.797   6.226  0.7085 -0.3994  0.7324
   30DOPE   C38 3839   0.787   7.962   6.092 -0.8566 -0.1302  0.4442
   30DOPE   H8X 3840   0.714   8.013   6.159 -1.4958 -0.5745  0.0991
   30DOPE   H8Y 3841   0.720   7.889   6.042 -1.6500 -0.8227  2.4121
   30DOPE   C39 3842   0.862   8.062   6.002 -0.0217  0.1793  0.2760
   30DOPE   H9X 3843   0.939   8.121   6.054  1.1383  0.4349 -1.6684
   30DOPE  C310 3844   0.845   8.072   5.870  0.5620  0.2706  0.3724
   30DOPE  H10X 3845   0.901   8.156   5.826 -1.8285  1.0954 -1.2936
   30DOPE  C311 3846   0.751   7.986   5.788  0.0530  0.2234 -0.0762
   30DOPE  H11X 3847   0.806   7.891   5.771 -0.1977  0.0867 -0.1141
   30DOPE  H11Y 3848   0.656   7.963   5.840 -0.3217  2.6282  0.4244
   30DOPE  C312 3849   0.715   8.033   5.647 -0.8319  0.4331  0.2947
   30DOPE  H12X 3850   0.629   7.975   5.607 -1.9018  1.5858  0.8609
   30DOPE  H12Y 3851   0.799   8.021   5.575  1.7578  3.3282  2.5603
   30DOPE  C313 3852   0.671   8.181   5.640 -0.2036 -0.4634 -0.0265
   30DOPE  H13X 3853   0.574   8.180   5.694 -0.0249 -0.1843  0.2992
   30DOPE  H13Y 3854   0.750   8.245   5.685 -0.4302  2.5623 -3.4231
   30DOPE  C314 3855   0.648   8.234   5.501 -0.1303  0.3319 -0.4538
   30DOPE  H14X 3856   0.739   8.216   5.440  0.3799  1.0788  0.0717
   30DOPE  H14Y 3857   0.642   8.345   5.506  1.5937  0.4885 -1.1396
   30DOPE  C315 3858   0.517   8.175   5.432 -0.1279  0.1002 -0.6335
   30DOPE  H15X 3859   0.431   8.194   5.500  0.9400  0.1646  0.7518
   30DOPE  H15Y 3860   0.534   8.065   5.434  1.5856  0.3414  1.0850
   30DOPE  C316 3861   0.497   8.232   5.294  0.2849  0.2024 -0.4921
   30DOPE  H16X 3862   0.598   8.258   5.257  1.2148  0.1342  1.8614
   30DOPE  H16Y 3863   0.459   8.336   5.310  0.8074  0.2049  0.8239
   30DOPE  C317 3864   0.420   8.155   5.191  0.6576 -0.3708  0.1646
   30DOPE  H17X 3865   0.411   8.218   5.099 -0.1631 -0.6652  0.0377
   30DOPE  H17Y 3866   0.473   8.059   5.175 -1.2975 -2.0219  2.8043
   30DOPE  C318 3867   0.270   8.139   5.235  0.6067 -0.3653  0.5575
   30DOPE  H18X 3868   0.201   8.102   5.156  0.3146  0.6555  0.3204
   30DOPE  H18Y 3869   0.254   8.067   5.318 -1.8482  0.0862  0.5661
   30DOPE  H18Z 3870   0.225   8.232   5.278  1.6144 -0.5613  2.1356
   31DOPE     N 3871   2.599   2.828   2.774 -0.3641  0.6964  1.1644
   31DOPE   HN1 3872   2.594   2.932   2.779 -1.1180  0.6923  0.7262
   31DOPE   HN2 3873   2.686   2.801   2.724 -0.6978  2.1520 -0.3046
   31DOPE   HN3 3874   2.528   2.793   2.706  0.1389 -0.3044  1.1318
   31DOPE   C12 3875   2.600   2.747   2.901  0.1327  0.1978 -0.5789
   31DOPE  H12A 3876   2.678   2.783   2.972  0.1761  0.6532 -0.8482
   31DOPE  H12B 3877   2.619   2.639   2.881 -1.0921  0.1324 -1.4966
   31DOPE   C11 3878   2.456   2.755   2.972 -1.1552  0.3283 -0.1287
   31DOPE  H11A 3879   2.467   2.727   3.080  2.9962  2.9174  0.3430
   31DOPE  H11B 3880   2.394   2.680   2.919 -0.2056 -1.2591  0.9103
   31DOPE     P 3881   2.252   2.931   2.985 -0.0150  0.2545  0.6126
   31DOPE   O13 3882   2.155   2.829   2.939 -0.4124 -0.2375  0.1700
   31DOPE   O14 3883   2.237   3.057   2.909  0.1251 -0.2554 -0.2415
   31DOPE   O11 3884   2.231   2.958   3.142  0.0098  0.1475 -0.1128
   31DOPE   O12 3885   2.399   2.886   2.960  0.2233 -0.4173  0.2354
   31DOPE    C1 3886   2.096   2.934   3.186 -0.4377  0.1915 -0.5524
   31DOPE    HA 3887   2.092   2.824   3.176  0.3442  0.2519 -1.7356
   31DOPE    HB 3888   2.018   2.993   3.133  0.7228  2.1447 -0.1697
   31DOPE    C2 3889   2.083   2.974   3.339  0.6238  0.1900  0.0380
   31DOPE    HS 3890   1.998   3.043   3.354 -1.1823 -2.2672  1.9757
   31DOPE   O21 3891   2.209   3.032   3.383 -0.2353  0.1637 -0.1668
   31DOPE   C21 3892   2.211   3.162   3.356 -0.2130  0.2343 -0.1999
   31DOPE   O22 3893   2.117   3.233   3.322  0.1681  0.0081  0.0132
   31DOPE   C22 3894   2.358   3.214   3.370  0.0242  0.5917 -0.6455
   31DOPE   H2R 3895   2.367   3.278   3.279  0.1545  0.3593 -0.7970
   31DOPE   H2S 3896   2.426   3.127   3.354  0.0066  0.1851  1.3378
   31DOPE    C3 3897   2.061   2.847   3.419  0.2246  0.4215  0.5431
   31DOPE    HX 3898   2.131   2.765   3.392  0.7055  1.0132 -0.0216
   31DOPE    HY 3899   1.964   2.805   3.384  0.2325  0.3802  0.5704
   31DOPE   O31 3900   2.052   2.863   3.562 -0.2491 -0.1798 -0.2174
   31DOPE   C31 3901   2.164   2.825   3.630  0.2089  0.3421  0.3015
   31DOPE   O32 3902   2.281   2.832   3.588  1.1175  0.5461 -0.0714
   31DOPE   C32 3903   2.129   2.783   3.774 -0.1392 -0.7635  0.3517
   31DOPE   H2X 3904   2.070   2.867   3.816  3.9899  1.8026  1.7055
   31DOPE   H2Y 3905   2.077   2.687   3.759 -1.4775  0.1094 -0.8635
   31DOPE   C23 3906   2.391   3.289   3.498 -0.2271  0.5199 -0.2746
   31DOPE   H3R 3907   2.319   3.369   3.524  0.0010  0.3026  1.1163
   31DOPE   H3S 3908   2.491   3.335   3.489 -1.0218  2.8067  1.5567
   31DOPE   C24 3909   2.393   3.185   3.617  0.0225 -0.6761  0.0622
   31DOPE   H4R 3910   2.480   3.117   3.600 -0.5878 -0.9954 -2.0121
   31DOPE   H4S 3911   2.308   3.113   3.624 -0.2078 -0.3225  1.2057
   31DOPE   C25 3912   2.406   3.252   3.750  0.2542  0.6384  0.1198
   31DOPE   H5R 3913   2.308   3.295   3.779  0.0911  0.2900  0.0825
   31DOPE   H5S 3914   2.475   3.340   3.747  1.2388 -0.1351 -1.2776
   31DOPE   C26 3915   2.465   3.170   3.866 -0.1309 -0.0564 -0.2736
   31DOPE   H6R 3916   2.568   3.133   3.847 -0.7278 -2.6660  1.0131
   31DOPE   H6S 3917   2.405   3.076   3.866 -0.7075  0.3096 -0.4873
   31DOPE   C27 3918   2.452   3.238   4.008  0.1010  0.3095  0.1306
   31DOPE   H7R 3919   2.347   3.275   4.000  0.0854  0.5958  1.3689
   31DOPE   H7S 3920   2.531   3.311   4.033  2.4236 -2.3541  1.1782
   31DOPE   C28 3921   2.449   3.140   4.122  0.5560 -0.4092  0.1244
   31DOPE   H8R 3922   2.350   3.090   4.130  0.4049 -0.0109  0.8578
   31DOPE   H8S 3923   2.448   3.199   4.216 -1.7835  0.7778 -0.5688
   31DOPE   C29 3924   2.548   3.027   4.119 -0.4166  0.0587 -0.1145
   31DOPE   H9R 3925   2.547   2.966   4.028  2.1470 -0.7063  0.2969
   31DOPE  C210 3926   2.635   2.988   4.216 -0.3608  0.1558 -0.2483
   31DOPE  H10R 3927   2.699   2.900   4.199 -0.7796  0.1695 -2.0498
   31DOPE  C211 3928   2.654   3.044   4.353 -0.2309 -0.1661 -0.0058
   31DOPE  H11R 3929   2.592   3.134   4.373  2.5171  1.6584  0.8249
   31DOPE  H11S 3930   2.756   3.083   4.375 -0.8901  0.9050  1.3173
   31DOPE  C212 3931   2.662   2.935   4.463 -1.2446  0.1470  0.5879
   31DOPE  H12R 3932   2.728   2.853   4.426  2.5380  2.5175  1.5625
   31DOPE  H12S 3933   2.558   2.903   4.487 -1.8202  0.9318 -0.7642
   31DOPE  C213 3934   2.713   2.978   4.601 -0.2026 -0.2930  0.0615
   31DOPE  H13R 3935   2.639   3.046   4.647 -0.6610 -0.7907  0.0676
   31DOPE  H13S 3936   2.805   3.039   4.586 -0.5325 -0.0699 -1.1656
   31DOPE  C214 3937   2.737   2.852   4.689  0.0057  0.1342  0.6540
   31DOPE  H14R 3938   2.820   2.792   4.648  0.3322  0.7568  0.3888
   31DOPE  H14S 3939   2.649   2.785   4.687 -0.2518  0.4828 -0.2108
   31DOPE  C215 3940   2.756   2.899   4.839  0.2316  0.5573  0.3837
   31DOPE  H15R 3941   2.811   2.994   4.829  0.9778 -0.0602 -2.0761
   31DOPE  H15S 3942   2.814   2.827   4.901  0.2715  1.3011  1.2276
   31DOPE  C216 3943   2.620   2.922   4.908  0.3698 -0.3869 -0.1131
   31DOPE  H16R 3944   2.547   2.846   4.871 -0.9710  0.7253  0.1660
   31DOPE  H16S 3945   2.576   3.021   4.881  0.6338 -0.8012 -2.2031
   31DOPE  C217 3946   2.619   2.923   5.063  0.5310 -0.2099  0.3141
   31DOPE  H17R 3947   2.684   3.011   5.085  0.4318 -0.1905  0.5350
   31DOPE  H17S 3948   2.663   2.826   5.094 -3.5533 -2.0268  1.0583
   31DOPE  C218 3949   2.486   2.942   5.135  0.0905 -0.1669 -0.1847
   31DOPE  H18R 3950   2.418   2.869   5.086 -1.4031  1.9819 -1.5117
   31DOPE  H18S 3951   2.442   3.042   5.118  0.9790  0.2396 -0.1655
   31DOPE  H18T 3952   2.499   2.935   5.245 -0.7271 -0.3413 -0.0922
   31DOPE   C33 3953   2.260   2.763   3.850 -0.6677  0.4649 -0.2221
   31DOPE   H3X 3954   2.306   2.864   3.856  1.6726 -0.5636  0.3835
   31DOPE   H3Y 3955   2.333   2.688   3.813  1.0897  2.3622 -0.7391
   31DOPE   C34 3956   2.226   2.720   3.994 -0.2088 -0.6626 -0.7686
   31DOPE   H4X 3957   2.318   2.728   4.054 -1.6585  2.3287  1.3411
   31DOPE   H4Y 3958   2.149   2.783   4.045  0.6140  1.3669 -1.9284
   31DOPE   C35 3959   2.164   2.579   3.999  0.2776 -0.1003 -0.0148
   31DOPE   H5X 3960   2.227   2.508   3.941 -0.9663 -0.4101 -1.0284
   31DOPE   H5Y 3961   2.069   2.589   3.942  0.6265 -0.9536 -0.7585
   31DOPE   C36 3962   2.143   2.521   4.142 -0.1148  0.1499 -0.5818
   31DOPE   H6X 3963   2.054   2.568   4.190 -1.2123  1.4851 -3.6600
   31DOPE   H6Y 3964   2.240   2.549   4.188  0.3891 -0.0181 -1.5191
   31DOPE   C37 3965   2.123   2.368   4.137 -0.2211  0.3122  0.0005
   31DOPE   H7X 3966   2.025   2.354   4.086 -1.4716  1.7597  1.8958
   31DOPE   H7Y 3967   2.195   2.331   4.060 -0.6548 -0.7353  0.0777
   31DOPE   C38 3968   2.129   2.289   4.274 -0.4449 -0.7969 -0.6768
   31DOPE   H8X 3969   2.112   2.182   4.248 -0.2481 -1.4162  1.5253
   31DOPE   H8Y 3970   2.053   2.327   4.346  1.8057  0.9718  0.9211
   31DOPE   C39 3971   2.262   2.301   4.346  0.1831 -0.1421 -0.3516
   31DOPE   H9X 3972   2.325   2.388   4.325 -0.6061  0.0532 -2.0577
   31DOPE  C310 3973   2.306   2.217   4.444  0.1889 -0.0240  0.1121
   31DOPE  H10X 3974   2.408   2.229   4.483  0.4537 -1.6122 -0.0214
   31DOPE  C311 3975   2.233   2.096   4.499  0.6633 -0.0252 -0.2259
   31DOPE  H11X 3976   2.187   2.038   4.416 -1.9687 -0.4052  1.3970
   31DOPE  H11Y 3977   2.301   2.018   4.540  0.0677 -0.0866  0.6505
   31DOPE  C312 3978   2.122   2.133   4.599 -0.7998 -0.4914 -0.3897
   31DOPE  H12X 3979   2.061   2.040   4.600  1.0583 -1.7594 -0.7428
   31DOPE  H12Y 3980   2.062   2.218   4.559 -0.0290 -0.2384 -1.0398
   31DOPE  C313 3981   2.179   2.159   4.742 -0.0086 -0.5019  0.2209
   31DOPE  H13X 3982   2.271   2.098   4.753 -0.2961 -1.0965 -0.6222
   31DOPE  H13Y 3983   2.211   2.265   4.753  1.2500 -0.9988  1.7691
   31DOPE  C314 3984   2.084   2.136   4.864  0.6857 -0.6956 -0.0319
   31DOPE  H14X 3985   1.995   2.196   4.834 -0.7680 -2.4376  0.5739
   31DOPE  H14Y 3986   2.126   2.185   4.954  0.4770 -0.8326  0.1402
   31DOPE  C315 3987   2.049   1.993   4.895 -0.7477 -0.0843  1.0151
   31DOPE  H15X 3988   2.087   1.923   4.818 -1.8204 -0.5776  0.9094
   31DOPE  H15Y 3989   1.938   1.988   4.899 -0.9625  1.3579 -1.4454
   31DOPE  C316 3990   2.102   1.965   5.039 -0.0697 -0.9712 -0.4515
   31DOPE  H16X 3991   2.040   2.022   5.111  2.7601  2.3825 -0.3926
   31DOPE  H16Y 3992   2.202   2.013   5.043 -0.1947 -0.7260 -0.2711
   31DOPE  C317 3993   2.116   1.815   5.064  0.0839 -0.0771 -0.0691
   31DOPE  H17X 3994   2.189   1.777   4.990  0.0360  0.5048 -0.4170
   31DOPE  H17Y 3995   2.159   1.797   5.165 -0.6535 -1.0209  0.0847
   31DOPE  C318 3996   1.981   1.741   5.041  0.5995  0.4837  0.3274
   31DOPE  H18X 3997   1.942   1.737   4.937 -3.7084 -2.7234  1.7788
   31DOPE  H18Y 3998   1.990   1.635   5.071 -0.4592  0.2802 -0.0201
   31DOPE  H18Z 3999   1.901   1.785   5.105 -0.2662  2.3161 -1.8677
   32DOPE     N 4000   4.444   1.604   3.047  0.2585  0.4324 -0.0899
   32DOPE   HN1 4001   4.466   1.503   3.059  1.8377  0.6652 -0.7548
   32DOPE   HN2 4002   4.369   1.606   2.975  1.3348 -1.0180 -1.3005
   32DOPE   HN3 4003   4.531   1.638   3.001 -0.0184 -0.1301 -1.0512
   32DOPE   C12 4004   4.420   1.669   3.180 -0.7397 -0.2247  0.6789
   32DOPE  H12A 4005   4.506   1.625   3.235 -0.6257 -1.3743 -0.3902
   32DOPE  H12B 4006   4.323   1.642   3.226 -0.8352 -0.3288  0.4203
   32DOPE   C11 4007   4.412   1.827   3.167 -0.5701  0.5749  0.1796
   32DOPE  H11A 4008   4.505   1.875   3.129 -0.9772  2.1719  1.1090
   32DOPE  H11B 4009   4.390   1.856   3.271  1.7088  0.8512  0.6419
   32DOPE     P 4010   4.325   1.907   2.934  0.0789 -0.5379  0.2866
   32DOPE   O13 4011   4.196   1.961   2.875 -0.3059 -0.0986 -0.0736
   32DOPE   O14 4012   4.382   1.793   2.861 -0.1717 -0.2058 -0.5747
   32DOPE   O11 4013   4.435   2.023   2.934  0.4205  0.5061 -0.1782
   32DOPE   O12 4014   4.300   1.867   3.088  0.0686  0.1511 -0.4284
   32DOPE    C1 4015   4.387   2.153   2.966  0.3789 -0.2709  0.1326
   32DOPE    HA 4016   4.366   2.172   3.073  4.1498  0.6084  0.8797
   32DOPE    HB 4017   4.298   2.188   2.909 -0.8853 -3.2787  0.0343
   32DOPE    C2 4018   4.491   2.268   2.928  0.6801  1.0214  0.4408
   32DOPE    HS 4019   4.533   2.254   2.826  0.9796 -0.5604  0.7552
   32DOPE   O21 4020   4.605   2.252   3.017  0.2208  0.0723 -0.1514
   32DOPE   C21 4021   4.725   2.279   2.978 -0.3764 -0.0070  0.5505
   32DOPE   O22 4022   4.764   2.313   2.865 -0.5266  0.6036 -0.5460
   32DOPE   C22 4023   4.820   2.282   3.098 -0.0359  0.2230  0.0358
   32DOPE   H2R 4024   4.793   2.203   3.171  2.8289 -0.7496  0.1418
   32DOPE   H2S 4025   4.822   2.388   3.131 -0.2286  0.0640  0.5669
   32DOPE    C3 4026   4.422   2.406   2.937  0.4263 -0.2774  0.7535
   32DOPE    HX 4027   4.345   2.407   2.857 -0.3971  1.2268  1.5285
   32DOPE    HY 4028   4.490   2.492   2.920 -1.1195  1.0714  1.2019
   32DOPE   O31 4029   4.353   2.421   3.066  0.5052  0.0984 -0.5140
   32DOPE   C31 4030   4.434   2.452   3.163 -0.0723 -0.2377 -0.1302
   32DOPE   O32 4031   4.553   2.469   3.154  0.2117  0.1176 -0.6801
   32DOPE   C32 4032   4.366   2.441   3.301  0.6152  0.4587 -0.0699
   32DOPE   H2X 4033   4.257   2.455   3.288  0.6576  0.2583 -0.6824
   32DOPE   H2Y 4034   4.379   2.334   3.328  0.8667  0.9675  1.9496
   32DOPE   C23 4035   4.967   2.237   3.060 -0.9722  0.3345  0.1065
   32DOPE   H3R 4036   5.019   2.307   2.990  0.7229 -0.1372  0.8466
   32DOPE   H3S 4037   4.959   2.137   3.013 -3.0806 -0.7986  2.6457
   32DOPE   C24 4038   5.035   2.228   3.193  0.5350  0.7299  0.3183
   32DOPE   H4R 4039   5.139   2.193   3.177 -0.5863 -3.4893  1.1057
   32DOPE   H4S 4040   4.996   2.149   3.261 -0.8896  1.5963  0.5631
   32DOPE   C25 4041   5.040   2.354   3.283 -0.4387 -0.1068  0.2765
   32DOPE   H5R 4042   5.073   2.443   3.224 -0.5331 -0.6913 -0.6817
   32DOPE   H5S 4043   5.127   2.327   3.346 -0.1959 -0.3280 -0.1419
   32DOPE   C26 4044   4.930   2.381   3.388 -0.4770 -0.3017  0.3822
   32DOPE   H6R 4045   4.914   2.283   3.437  0.1585 -1.1679 -1.0779
   32DOPE   H6S 4046   4.837   2.397   3.330 -0.8430  2.3945  1.5347
   32DOPE   C27 4047   4.975   2.489   3.492 -0.1796  0.4100  0.0491
   32DOPE   H7R 4048   5.037   2.569   3.447  0.1870  1.5253  2.4106
   32DOPE   H7S 4049   5.032   2.440   3.575  2.4448 -0.5423 -2.1414
   32DOPE   C28 4050   4.844   2.544   3.551 -0.3249  0.8367  0.2428
   32DOPE   H8R 4051   4.863   2.577   3.655  1.0992  1.0936 -0.0762
   32DOPE   H8S 4052   4.788   2.449   3.569  0.7743  0.3155  1.0505
   32DOPE   C29 4053   4.759   2.641   3.472 -0.1914 -1.3189 -0.5398
   32DOPE   H9R 4054   4.740   2.613   3.367  0.3546  0.1565 -1.0626
   32DOPE  C210 4055   4.701   2.761   3.521 -0.1029  0.1916 -0.7317
   32DOPE  H10R 4056   4.654   2.827   3.447 -0.3410 -0.0906 -0.8339
   32DOPE  C211 4057   4.718   2.819   3.663  0.3474  0.6026  0.6044
   32DOPE  H11R 4058   4.781   2.910   3.662 -1.0049  1.6156  2.3170
   32DOPE  H11S 4059   4.771   2.747   3.729  0.0768  0.4027  0.6099
   32DOPE  C212 4060   4.587   2.850   3.733 -0.1493 -0.6258 -0.3810
   32DOPE  H12R 4061   4.618   2.869   3.838 -0.8761  3.1782 -0.7144
   32DOPE  H12S 4062   4.520   2.762   3.731 -1.2269  0.0200  2.3485
   32DOPE  C213 4063   4.518   2.981   3.691 -0.2457  0.0263 -0.7976
   32DOPE  H13R 4064   4.473   2.954   3.593 -0.2974  0.2130 -0.8257
   32DOPE  H13S 4065   4.598   3.058   3.676 -0.9502  0.7859 -0.7358
   32DOPE  C214 4066   4.400   3.042   3.777 -1.5071  0.2314 -0.9884
   32DOPE  H14R 4067   4.358   3.128   3.720  1.0858  1.6220 -0.9381
   32DOPE  H14S 4068   4.437   3.092   3.869 -1.3623  1.5694 -1.7512
   32DOPE  C215 4069   4.284   2.945   3.806  0.5375 -0.1872  0.2383
   32DOPE  H15R 4070   4.226   2.981   3.893  0.7531  1.7806 -0.3747
   32DOPE  H15S 4071   4.329   2.849   3.838 -0.8186 -0.6664  0.7664
   32DOPE  C216 4072   4.192   2.918   3.687  0.7766 -0.6730  0.5540
   32DOPE  H16R 4073   4.255   2.875   3.606  0.3449 -0.4444  0.0884
   32DOPE  H16S 4074   4.148   3.009   3.641  1.1599  0.1179  1.7104
   32DOPE  C217 4075   4.081   2.821   3.707 -0.9726  0.8903  0.0902
   32DOPE  H17R 4076   4.018   2.839   3.796 -2.2093 -2.4008  0.0206
   32DOPE  H17S 4077   4.115   2.720   3.738  0.7172  2.2188  2.9209
   32DOPE  C218 4078   3.995   2.801   3.574  0.3237  0.1295 -0.2256
   32DOPE  H18R 4079   4.061   2.724   3.529  0.7456 -0.5619  1.4748
   32DOPE  H18S 4080   3.991   2.898   3.520 -0.1511  0.2150 -0.0419
   32DOPE  H18T 4081   3.891   2.766   3.591  1.2887 -2.3973  1.1367
   32DOPE   C33 4082   4.414   2.543   3.407 -0.0421  0.0084 -0.2294
   32DOPE   H3X 4083   4.398   2.642   3.359 -3.1756  0.2517  1.0805
   32DOPE   H3Y 4084   4.521   2.524   3.431 -0.5809 -0.2297  2.2554
   32DOPE   C34 4085   4.317   2.536   3.526  0.2863 -0.0425 -0.5832
   32DOPE   H4X 4086   4.313   2.627   3.590  0.3555 -1.7110  1.9444
   32DOPE   H4Y 4087   4.208   2.537   3.505 -0.1734  0.9325  1.5216
   32DOPE   C35 4088   4.356   2.431   3.636  0.1575 -0.0574  1.0287
   32DOPE   H5X 4089   4.461   2.452   3.665  1.1475  0.3539 -2.3795
   32DOPE   H5Y 4090   4.352   2.324   3.605  0.5050 -0.9416  3.7834
   32DOPE   C36 4091   4.271   2.443   3.761  0.3854  0.1608  0.0436
   32DOPE   H6X 4092   4.283   2.547   3.799  1.9834 -0.1004  0.3365
   32DOPE   H6Y 4093   4.313   2.367   3.831  0.1544 -0.9068 -0.9425
   32DOPE   C37 4094   4.119   2.416   3.736 -0.3592  0.2688  0.3283
   32DOPE   H7X 4095   4.080   2.475   3.650  0.6064  0.7929  0.2352
   32DOPE   H7Y 4096   4.105   2.310   3.705 -2.3979  0.7431 -0.5353
   32DOPE   C38 4097   4.041   2.433   3.864 -0.3178  0.3793 -0.2435
   32DOPE   H8X 4098   3.932   2.413   3.859 -0.3793  0.3813  0.8975
   32DOPE   H8Y 4099   4.056   2.537   3.898  0.2768  0.2288 -0.0450
   32DOPE   C39 4100   4.090   2.336   3.974  0.9805 -0.4006 -0.0339
   32DOPE   H9X 4101   4.144   2.251   3.930  1.0965 -0.2052 -0.2652
   32DOPE  C310 4102   4.067   2.350   4.106 -0.3766 -0.2655  0.0335
   32DOPE  H10X 4103   4.102   2.272   4.175 -1.0314 -0.4714  0.1347
   32DOPE  C311 4104   3.987   2.459   4.171  0.7039 -0.3896 -0.5283
   32DOPE  H11X 4105   3.948   2.532   4.097 -0.3757 -0.9321 -0.5219
   32DOPE  H11Y 4106   3.900   2.431   4.235  0.0067  3.0973  0.2881
   32DOPE  C312 4107   4.088   2.533   4.263  0.4049 -0.9786  0.2106
   32DOPE  H12X 4108   4.163   2.580   4.195 -1.0181  0.9121 -0.1267
   32DOPE  H12Y 4109   4.139   2.464   4.334  0.5260 -1.1629 -0.0521
   32DOPE  C313 4110   4.016   2.634   4.349 -0.2606 -0.8414  0.2096
   32DOPE  H13X 4111   4.007   2.736   4.304 -2.2867 -0.3337  1.6167
   32DOPE  H13Y 4112   3.912   2.608   4.380 -0.1458 -0.6602  0.7614
   32DOPE  C314 4113   4.084   2.665   4.489  0.4962  0.5291 -0.0271
   32DOPE  H14X 4114   4.195   2.667   4.475  0.3693  0.5280 -1.0918
   32DOPE  H14Y 4115   4.059   2.577   4.552  0.7952  2.1161  2.4658
   32DOPE  C315 4116   4.045   2.793   4.557  0.5045  0.1973 -0.0776
   32DOPE  H15X 4117   3.938   2.789   4.586  0.4621  2.8588  0.3195
   32DOPE  H15Y 4118   4.056   2.887   4.499  2.0672  0.4322  0.5452
   32DOPE  C316 4119   4.122   2.828   4.691  0.4904 -0.5111  0.4192
   32DOPE  H16X 4120   4.231   2.825   4.669  0.4345 -1.9091  0.2463
   32DOPE  H16Y 4121   4.091   2.758   4.771  0.1486 -0.3869  0.3967
   32DOPE  C317 4122   4.092   2.966   4.755  0.6344  0.2515  0.3373
   32DOPE  H17X 4123   4.165   2.982   4.837  1.3983  0.3667 -0.3503
   32DOPE  H17Y 4124   4.129   3.037   4.677 -1.4047  0.0206 -0.9129
   32DOPE  C318 4125   3.953   3.001   4.798  0.0713  0.3476 -0.0595
   32DOPE  H18X 4126   3.929   2.938   4.886 -0.9443  0.9489  0.1116
   32DOPE  H18Y 4127   3.956   3.105   4.836  1.3915  0.2838  0.0309
   32DOPE  H18Z 4128   3.883   2.991   4.712  0.5456 -0.5148 -0.3566
   33DOPE     N 4129   3.097   1.431   2.924 -0.0357 -0.2006 -0.3484
   33DOPE   HN1 4130   2.996   1.438   2.946 -0.1072  0.2619 -0.8005
   33DOPE   HN2 4131   3.099   1.465   2.825 -3.3776 -0.0851 -0.4782
   33DOPE   HN3 4132   3.122   1.330   2.926 -1.8403 -0.6552  0.3423
   33DOPE   C12 4133   3.188   1.514   3.011  0.0936  0.3092 -0.4153
   33DOPE  H12A 4134   3.291   1.481   2.989  1.0877  2.0508  1.2704
   33DOPE  H12B 4135   3.164   1.483   3.115 -0.4763  1.0462 -0.3154
   33DOPE   C11 4136   3.176   1.662   2.992 -0.6267  0.2573  0.2943
   33DOPE  H11A 4137   3.242   1.698   2.911  0.3456  0.0303  0.9600
   33DOPE  H11B 4138   3.223   1.700   3.086 -1.7521  0.7501  0.6785
   33DOPE     P 4139   2.992   1.824   3.029  0.4731 -0.0997 -0.2685
   33DOPE   O13 4140   2.859   1.853   2.975 -0.1127 -0.5847  0.1200
   33DOPE   O14 4141   3.089   1.928   2.994  0.0078 -0.4437  0.7348
   33DOPE   O11 4142   2.983   1.798   3.182 -0.1760  0.6027  0.3944
   33DOPE   O12 4143   3.036   1.687   2.970  0.3038 -0.1430 -0.5599
   33DOPE    C1 4144   2.881   1.704   3.231  0.1700 -0.3209  0.8380
   33DOPE    HA 4145   2.880   1.604   3.180  1.5115 -0.4653  1.0751
   33DOPE    HB 4146   2.783   1.752   3.213 -0.1328 -1.4891 -0.9375
   33DOPE    C2 4147   2.915   1.679   3.383  0.1184 -0.4783 -0.2471
   33DOPE    HS 4148   2.851   1.606   3.437 -1.6192  0.4020 -1.0408
   33DOPE   O21 4149   2.920   1.803   3.455  0.4442 -0.3523 -0.0067
   33DOPE   C21 4150   2.806   1.860   3.471 -0.1088  0.6164 -0.7274
   33DOPE   O22 4151   2.692   1.818   3.453  0.0522 -0.4044 -0.6189
   33DOPE   C22 4152   2.847   2.006   3.507  0.0420 -0.7688 -0.5485
   33DOPE   H2R 4153   2.771   2.069   3.456  1.6263  1.9900  0.2894
   33DOPE   H2S 4154   2.949   2.042   3.480 -0.1678  0.5188  0.2862
   33DOPE    C3 4155   3.053   1.612   3.394  0.4388 -1.1670 -0.3774
   33DOPE    HX 4156   3.112   1.706   3.399  0.3483 -1.0395 -1.5801
   33DOPE    HY 4157   3.080   1.545   3.310  0.4482 -1.0707 -0.4506
   33DOPE   O31 4158   3.068   1.554   3.524  0.4884  0.3887  0.1945
   33DOPE   C31 4159   3.066   1.425   3.528  0.3653  0.5705 -0.3646
   33DOPE   O32 4160   3.087   1.355   3.430  0.3390  0.0566  0.1261
   33DOPE   C32 4161   2.989   1.378   3.656 -0.3864 -0.0890 -0.4771
   33DOPE   H2X 4162   3.040   1.422   3.745 -2.0436  1.2451 -0.1372
   33DOPE   H2Y 4163   2.898   1.442   3.659  0.4210  1.1182  2.8171
   33DOPE   C23 4164   2.840   2.029   3.667  0.2730  0.3267  0.6727
   33DOPE   H3R 4165   2.754   1.966   3.700 -0.7541  1.3717  0.0736
   33DOPE   H3S 4166   2.816   2.134   3.692  0.3448 -0.3206  3.7988
   33DOPE   C24 4167   2.967   1.990   3.739  0.2738  0.3238  0.5650
   33DOPE   H4R 4168   3.056   2.051   3.712 -1.8057  3.7827  0.9230
   33DOPE   H4S 4169   2.999   1.888   3.708  3.2561  1.3755 -0.1858
   33DOPE   C25 4170   2.943   1.994   3.890  1.2994  0.1900 -0.5223
   33DOPE   H5R 4171   3.002   1.917   3.944  0.3968  0.8115  1.4455
   33DOPE   H5S 4172   2.835   1.982   3.915  1.2351  1.0257 -0.3690
   33DOPE   C26 4173   2.991   2.126   3.958 -0.8055 -0.9066 -0.2711
   33DOPE   H6R 4174   2.958   2.221   3.909 -0.1111 -0.0134  0.9493
   33DOPE   H6S 4175   3.100   2.142   3.946 -1.2389  2.5501 -0.7996
   33DOPE   C27 4176   2.942   2.135   4.105  0.0820 -0.5635  0.1343
   33DOPE   H7R 4177   2.986   2.046   4.155 -1.0157 -0.2862  1.6295
   33DOPE   H7S 4178   2.834   2.121   4.124  0.3835 -0.2512  2.3299
   33DOPE   C28 4179   2.990   2.265   4.170 -0.2426  0.8754 -0.5467
   33DOPE   H8R 4180   2.951   2.347   4.106 -0.5440  1.2977  0.1572
   33DOPE   H8S 4181   3.099   2.284   4.169 -0.0709  0.2255  1.4315
   33DOPE   C29 4182   2.930   2.294   4.309  0.2883 -0.3502 -0.0251
   33DOPE   H9R 4183   2.822   2.270   4.310 -0.0711  1.1348  1.4398
   33DOPE  C210 4184   2.996   2.335   4.414 -0.0011 -0.5904 -0.0391
   33DOPE  H10R 4185   2.941   2.363   4.505  0.1969 -1.9162  0.5259
   33DOPE  C211 4186   3.149   2.356   4.426  0.1968 -0.2761  0.0808
   33DOPE  H11R 4187   3.169   2.463   4.449 -0.4813 -0.1539  0.1232
   33DOPE  H11S 4188   3.206   2.324   4.336 -3.2503 -2.9470 -1.3563
   33DOPE  C212 4189   3.199   2.294   4.553 -0.4245 -0.1771 -0.0213
   33DOPE  H12R 4190   3.303   2.333   4.559 -0.4202  0.2435 -2.2730
   33DOPE  H12S 4191   3.218   2.184   4.548 -0.8013 -0.2914  0.8095
   33DOPE  C213 4192   3.126   2.332   4.682  0.2553 -0.2119 -0.7127
   33DOPE  H13R 4193   3.023   2.290   4.680  0.9813 -2.1439 -0.0333
   33DOPE  H13S 4194   3.114   2.440   4.707  1.3099 -0.3083  0.2879
   33DOPE  C214 4195   3.184   2.250   4.800 -0.2610 -0.3697  0.3055
   33DOPE  H14R 4196   3.175   2.141   4.785  0.1858 -0.2547 -0.9502
   33DOPE  H14S 4197   3.124   2.292   4.883  0.8577 -0.0631  0.9879
   33DOPE  C215 4198   3.325   2.291   4.834 -0.0210  0.3353  0.5881
   33DOPE  H15R 4199   3.334   2.402   4.837 -0.8151  0.4057  0.5307
   33DOPE  H15S 4200   3.403   2.254   4.764  1.0131  1.7369  0.9511
   33DOPE  C216 4201   3.367   2.232   4.970  0.2930  0.3919  0.3972
   33DOPE  H16R 4202   3.312   2.276   5.056 -1.3605  0.1851 -0.5123
   33DOPE  H16S 4203   3.477   2.245   4.977  0.9034 -3.2320 -0.5252
   33DOPE  C217 4204   3.345   2.077   4.989 -0.4283  0.0496  0.0136
   33DOPE  H17R 4205   3.242   2.043   4.964 -0.1224 -0.3308 -0.7571
   33DOPE  H17S 4206   3.361   2.059   5.098  0.2219  0.0753 -0.0742
   33DOPE  C218 4207   3.437   1.987   4.909 -0.1769 -0.3028  0.5336
   33DOPE  H18R 4208   3.396   1.961   4.810 -2.1827  1.9816  0.6653
   33DOPE  H18S 4209   3.446   1.888   4.958  0.3038  1.1169  3.5637
   33DOPE  H18T 4210   3.537   2.036   4.917 -0.1694 -0.4745  1.7181
   33DOPE   C33 4211   2.941   1.227   3.649  0.0440  0.2477  0.5929
   33DOPE   H3X 4212   3.040   1.175   3.655  0.2553  0.5239 -0.3694
   33DOPE   H3Y 4213   2.892   1.199   3.554  1.2977  0.8309 -0.2523
   33DOPE   C34 4214   2.864   1.178   3.772 -0.7217 -0.5964 -0.5456
   33DOPE   H4X 4215   2.772   1.241   3.781 -1.2488 -1.4222 -0.0794
   33DOPE   H4Y 4216   2.836   1.076   3.740 -1.6365 -0.7368  0.6374
   33DOPE   C35 4217   2.950   1.157   3.894 -0.2885  0.3079 -0.2334
   33DOPE   H5X 4218   2.976   1.255   3.939 -0.9247 -0.3974  1.7556
   33DOPE   H5Y 4219   3.048   1.117   3.859 -0.5926  0.7281 -1.6486
   33DOPE   C36 4220   2.885   1.079   4.004 -0.1600  0.2388  0.3746
   33DOPE   H6X 4221   2.849   0.988   3.953  2.6539 -0.7386 -0.0712
   33DOPE   H6Y 4222   2.789   1.127   4.032 -0.9159 -0.0979 -1.5339
   33DOPE   C37 4223   2.981   1.062   4.128 -0.1738  0.1628  0.2763
   33DOPE   H7X 4224   3.059   0.999   4.081 -2.0321 -0.7162 -1.8038
   33DOPE   H7Y 4225   3.012   1.163   4.164  1.8145 -1.1760  2.6015
   33DOPE   C38 4226   2.929   0.980   4.246 -0.6969 -0.4509 -0.6198
   33DOPE   H8X 4227   2.844   1.030   4.298 -0.1817 -0.9653  0.7734
   33DOPE   H8Y 4228   3.009   0.978   4.323 -0.2104 -0.6177 -1.1236
   33DOPE   C39 4229   2.890   0.838   4.213 -0.4765  0.2457 -0.2539
   33DOPE   H9X 4230   2.951   0.782   4.141 -1.6659  0.5338 -1.5252
   33DOPE  C310 4231   2.786   0.784   4.274  0.1517  0.2964 -0.1208
   33DOPE  H10X 4232   2.762   0.678   4.256  2.5358 -0.8075  2.4635
   33DOPE  C311 4233   2.695   0.854   4.377 -0.5143 -0.6631 -0.4927
   33DOPE  H11X 4234   2.761   0.908   4.448  0.2630  0.6158 -2.1244
   33DOPE  H11Y 4235   2.646   0.947   4.343  0.0434  0.6076  1.9320
   33DOPE  C312 4236   2.593   0.758   4.447  0.1582 -0.5489 -0.4949
   33DOPE  H12X 4237   2.528   0.737   4.360  2.3254 -1.0755 -2.0658
   33DOPE  H12Y 4238   2.538   0.818   4.523 -1.4907 -2.3807 -0.1729
   33DOPE  C313 4239   2.663   0.639   4.515  0.1856  0.8656 -0.1473
   33DOPE  H13X 4240   2.718   0.582   4.437  0.7788  1.1432  0.0571
   33DOPE  H13Y 4241   2.742   0.680   4.582  2.9925 -2.1128 -1.3563
   33DOPE  C314 4242   2.564   0.549   4.598  0.1542 -0.4050  0.1011
   33DOPE  H14X 4243   2.466   0.548   4.545  0.9975  1.5765 -1.6140
   33DOPE  H14Y 4244   2.539   0.603   4.692  1.0281 -0.4547  0.3684
   33DOPE  C315 4245   2.619   0.419   4.640  0.2170  0.2507  0.5792
   33DOPE  H15X 4246   2.712   0.435   4.698  0.0694 -1.1286  1.2399
   33DOPE  H15Y 4247   2.650   0.360   4.552 -1.2106  0.3774 -0.0476
   33DOPE  C316 4248   2.513   0.343   4.732 -0.1955 -0.3037  0.0217
   33DOPE  H16X 4249   2.415   0.331   4.681 -0.3431 -1.7103  0.5900
   33DOPE  H16Y 4250   2.499   0.413   4.816  0.6651 -0.0644 -0.0296
   33DOPE  C317 4251   2.566   0.209   4.767  0.6053 -0.3937 -0.2107
   33DOPE  H17X 4252   2.550   0.144   4.677  0.9605  0.4962 -0.9284
   33DOPE  H17Y 4253   2.676   0.212   4.782  0.7352 -1.3639 -0.8733
   33DOPE  C318 4254   2.496   0.156   4.897  0.1665  1.0667 -0.2541
   33DOPE  H18X 4255   2.533   0.054   4.923 -1.4192  0.8026  1.1307
   33DOPE  H18Y 4256   2.513   0.230   4.978  0.2575  3.1108 -2.0438
   33DOPE  H18Z 4257   2.385   0.156   4.891 -0.1248  0.4980  3.0064
   34DOPE     N 4258   1.302   2.998   3.063 -0.1589  0.0303  0.0385
   34DOPE   HN1 4259   1.198   2.994   3.065 -0.1339 -0.4475  0.8290
   34DOPE   HN2 4260   1.358   2.916   3.092 -0.9539 -1.1582 -1.6199
   34DOPE   HN3 4261   1.335   3.076   3.123  0.9863  0.0020 -0.5222
   34DOPE   C12 4262   1.339   3.032   2.929 -1.1243  0.1275  0.8315
   34DOPE  H12A 4263   1.299   2.957   2.857  3.6061 -1.9584  0.0427
   34DOPE  H12B 4264   1.449   3.027   2.916 -1.2395  0.1649 -0.1877
   34DOPE   C11 4265   1.273   3.164   2.884 -0.3744 -0.1367 -0.4077
   34DOPE  H11A 4266   1.165   3.143   2.867 -0.2697 -1.5133  0.4406
   34DOPE  H11B 4267   1.306   3.207   2.788 -1.1523  1.1470 -0.1327
   34DOPE     P 4268   1.420   3.361   2.973  0.1382  0.0844 -1.0681
   34DOPE   O13 4269   1.392   3.464   2.869 -0.3897 -0.0630  0.1999
   34DOPE   O14 4270   1.540   3.280   2.946  0.1319  0.3318  0.4256
   34DOPE   O11 4271   1.435   3.444   3.113 -0.5045 -0.3078 -0.8954
   34DOPE   O12 4272   1.286   3.270   2.981 -0.3405  0.0981 -0.3121
   34DOPE    C1 4273   1.319   3.472   3.187  1.0691 -0.0871 -0.5866
   34DOPE    HA 4274   1.309   3.407   3.277 -1.7065  3.5249  1.9810
   34DOPE    HB 4275   1.223   3.475   3.132 -1.8193 -0.7554  3.8658
   34DOPE    C2 4276   1.324   3.612   3.252  0.0454  0.1984  0.1134
   34DOPE    HS 4277   1.342   3.681   3.168  4.1904  1.4231  1.7487
   34DOPE   O21 4278   1.428   3.626   3.352  0.4939  0.2192  0.4891
   34DOPE   C21 4279   1.456   3.749   3.390 -0.5331  0.6179  0.0730
   34DOPE   O22 4280   1.411   3.855   3.343  0.0322  0.5030  0.0771
   34DOPE   C22 4281   1.565   3.734   3.495  0.3573  0.0140 -0.3679
   34DOPE   H2R 4282   1.637   3.651   3.479 -0.7832 -1.3706  1.3269
   34DOPE   H2S 4283   1.524   3.696   3.592 -0.6191  0.5040 -0.5789
   34DOPE    C3 4284   1.184   3.645   3.319 -0.4992  0.0789 -0.0292
   34DOPE    HX 4285   1.113   3.659   3.235 -0.4217 -1.1075 -0.3107
   34DOPE    HY 4286   1.172   3.740   3.376 -3.8386 -0.1692 -0.1118
   34DOPE   O31 4287   1.132   3.535   3.399  0.3502  0.3229  0.7266
   34DOPE   C31 4288   1.190   3.518   3.522  0.2927  0.1781  0.1542
   34DOPE   O32 4289   1.276   3.592   3.561  0.9079  0.0601 -0.0414
   34DOPE   C32 4290   1.137   3.402   3.604 -0.0649 -0.1440 -0.0883
   34DOPE   H2X 4291   1.039   3.377   3.558  1.1152 -2.2372 -1.6356
   34DOPE   H2Y 4292   1.202   3.316   3.579 -0.7882 -0.7954  0.2332
   34DOPE   C23 4293   1.637   3.869   3.504 -0.1634  0.6328  0.2073
   34DOPE   H3R 4294   1.573   3.957   3.525  0.7664  1.5538 -0.7091
   34DOPE   H3S 4295   1.690   3.896   3.410  0.7495 -0.6725  0.3111
   34DOPE   C24 4296   1.735   3.866   3.624 -0.5033 -0.4578 -0.3784
   34DOPE   H4R 4297   1.818   3.938   3.605 -1.8522  1.1395 -0.4618
   34DOPE   H4S 4298   1.783   3.766   3.621 -3.0879 -1.7430 -1.0179
   34DOPE   C25 4299   1.668   3.895   3.760 -0.1069 -0.3687  0.4165
   34DOPE   H5R 4300   1.595   3.814   3.780  1.0235 -1.8492 -1.1637
   34DOPE   H5S 4301   1.618   3.994   3.766 -0.3582 -0.5164  0.7888
   34DOPE   C26 4302   1.768   3.889   3.879 -0.3075  0.5554 -0.5449
   34DOPE   H6R 4303   1.854   3.959   3.868  0.8259 -1.0278 -2.4674
   34DOPE   H6S 4304   1.810   3.787   3.890  0.5902  0.8220 -1.2762
   34DOPE   C27 4305   1.703   3.928   4.018 -0.1593  0.1228 -0.4854
   34DOPE   H7R 4306   1.614   3.864   4.037 -0.6881  0.7428 -0.8177
   34DOPE   H7S 4307   1.678   4.035   4.000 -0.2654 -0.0056 -1.1223
   34DOPE   C28 4308   1.804   3.912   4.138 -0.2618 -0.1889  0.0556
   34DOPE   H8R 4309   1.897   3.965   4.109 -0.4606  0.3805  0.4566
   34DOPE   H8S 4310   1.821   3.802   4.143 -1.9483 -0.5299 -0.8544
   34DOPE   C29 4311   1.766   3.967   4.273 -0.7906 -0.6660  0.4904
   34DOPE   H9R 4312   1.767   4.077   4.269  2.9269 -0.6028 -0.7336
   34DOPE  C210 4313   1.737   3.899   4.382 -0.2790  0.0522 -0.3131
   34DOPE  H10R 4314   1.728   3.961   4.472  0.1383 -0.2619 -0.0484
   34DOPE  C211 4315   1.735   3.749   4.396 -0.1471  0.0354  0.0672
   34DOPE  H11R 4316   1.692   3.694   4.309  2.3743 -0.8955 -0.6604
   34DOPE  H11S 4317   1.674   3.731   4.487  2.2072  0.2796  1.7806
   34DOPE  C212 4318   1.872   3.707   4.443 -0.1144  0.1089 -0.6668
   34DOPE  H12R 4319   1.897   3.741   4.546  1.2277 -1.5632 -0.4009
   34DOPE  H12S 4320   1.949   3.750   4.376 -0.4919  0.5589 -0.8220
   34DOPE  C213 4321   1.892   3.556   4.454 -0.6041 -0.3853 -0.4002
   34DOPE  H13R 4322   1.834   3.505   4.375 -2.5353  1.5217 -0.3056
   34DOPE  H13S 4323   1.858   3.520   4.554 -2.5144 -1.7310 -1.4742
   34DOPE  C214 4324   2.047   3.507   4.466  0.5625  0.2425  0.1316
   34DOPE  H14R 4325   2.091   3.507   4.364 -0.0654  0.0211 -0.1444
   34DOPE  H14S 4326   2.045   3.403   4.506 -1.1820  0.6336  1.2243
   34DOPE  C215 4327   2.132   3.597   4.558 -0.1268 -0.2661 -0.2063
   34DOPE  H15R 4328   2.122   3.697   4.510  2.4419 -0.6859 -1.7994
   34DOPE  H15S 4329   2.237   3.565   4.544  0.1689  0.3661  0.4876
   34DOPE  C216 4330   2.086   3.609   4.704 -0.5263 -0.6540 -0.1383
   34DOPE  H16R 4331   2.100   3.512   4.756  1.4818  0.0028  0.6358
   34DOPE  H16S 4332   1.978   3.636   4.702  0.0205  1.7806  0.8435
   34DOPE  C217 4333   2.153   3.718   4.784  0.1502  0.0373  0.0432
   34DOPE  H17R 4334   2.132   3.813   4.729 -0.4526  2.0570  3.4471
   34DOPE  H17S 4335   2.263   3.703   4.786  0.0537 -0.7142 -0.2613
   34DOPE  C218 4336   2.090   3.728   4.926 -0.5127  1.1158 -0.0459
   34DOPE  H18R 4337   1.987   3.767   4.935 -0.7998  0.2202  0.6485
   34DOPE  H18S 4338   2.161   3.798   4.975 -0.4478  0.1544  1.2792
   34DOPE  H18T 4339   2.101   3.638   4.989  3.0143  0.1463 -1.7892
   34DOPE   C33 4340   1.125   3.445   3.750  0.1865  0.4334  0.2882
   34DOPE   H3X 4341   1.068   3.365   3.801 -0.0207  0.4338  0.0577
   34DOPE   H3Y 4342   1.065   3.536   3.771  0.0570 -0.0466  2.1225
   34DOPE   C34 4343   1.259   3.440   3.817  0.3211 -0.5608  0.5189
   34DOPE   H4X 4344   1.304   3.338   3.815  0.7814 -0.4113  2.1647
   34DOPE   H4Y 4345   1.333   3.511   3.775  0.0978 -0.0478  0.9821
   34DOPE   C35 4346   1.248   3.496   3.968 -0.9347 -0.5488 -0.1434
   34DOPE   H5X 4347   1.176   3.430   4.020  1.0773 -1.3444  1.8175
   34DOPE   H5Y 4348   1.205   3.598   3.962 -1.3119 -0.7374 -0.6579
   34DOPE   C36 4349   1.383   3.488   4.046 -0.1299 -0.2548  0.5303
   34DOPE   H6X 4350   1.462   3.536   3.985  0.6534  1.0024  2.4661
   34DOPE   H6Y 4351   1.395   3.378   4.055  0.2481 -0.5659 -2.6026
   34DOPE   C37 4352   1.388   3.545   4.187  1.0368  0.6521 -0.1133
   34DOPE   H7X 4353   1.489   3.527   4.231  1.7040  1.6215 -1.1935
   34DOPE   H7Y 4354   1.374   3.655   4.180  1.7201  0.6752 -1.4088
   34DOPE   C38 4355   1.275   3.494   4.286 -0.2845 -0.0520  0.5627
   34DOPE   H8X 4356   1.170   3.509   4.256 -0.2733  0.9841  0.9892
   34DOPE   H8Y 4357   1.289   3.551   4.380  0.0437 -0.3974  0.7300
   34DOPE   C39 4358   1.300   3.343   4.312  0.5288 -0.1529 -0.3692
   34DOPE   H9X 4359   1.243   3.280   4.242  0.7380 -0.5181 -0.2119
   34DOPE  C310 4360   1.385   3.286   4.406  0.4197  0.3435  0.0192
   34DOPE  H10X 4361   1.403   3.178   4.405 -0.6098  0.1337  1.2060
   34DOPE  C311 4362   1.473   3.347   4.511 -0.0562 -0.2975 -0.2465
   34DOPE  H11X 4363   1.574   3.301   4.508  0.2517  0.4009 -0.6155
   34DOPE  H11Y 4364   1.471   3.457   4.494 -4.3898  0.4524  3.2194
   34DOPE  C312 4365   1.422   3.331   4.653 -1.2139 -0.6280  0.0995
   34DOPE  H12X 4366   1.415   3.220   4.661  0.4519 -0.9705 -2.0758
   34DOPE  H12Y 4367   1.325   3.380   4.672  0.7159  3.0324  1.4889
   34DOPE  C313 4368   1.510   3.389   4.764 -0.2842 -0.0227  0.5152
   34DOPE  H13X 4369   1.618   3.367   4.755 -0.3854 -0.7193  0.9368
   34DOPE  H13Y 4370   1.502   3.499   4.777 -1.2809 -0.1430  1.0665
   34DOPE  C314 4371   1.461   3.338   4.900 -0.8550 -0.0457 -0.2009
   34DOPE  H14X 4372   1.545   3.346   4.972  0.7594 -1.3935 -1.8343
   34DOPE  H14Y 4373   1.444   3.229   4.885  0.3103 -0.3364  0.4741
   34DOPE  C315 4374   1.348   3.412   4.967 -0.3374 -0.4837 -0.0219
   34DOPE  H15X 4375   1.254   3.370   4.927 -0.1105  1.2508 -2.5994
   34DOPE  H15Y 4376   1.355   3.516   4.928  1.0225 -1.2766 -2.0804
   34DOPE  C316 4377   1.342   3.391   5.120 -0.5170  0.4341 -0.1382
   34DOPE  H16X 4378   1.432   3.431   5.173 -0.2082  1.3454 -1.3109
   34DOPE  H16Y 4379   1.341   3.283   5.142  0.7643  0.6462  1.1393
   34DOPE  C317 4380   1.220   3.459   5.176  0.3142  0.5575 -0.2802
   34DOPE  H17X 4381   1.126   3.410   5.146 -0.3242  1.0047  0.9413
   34DOPE  H17Y 4382   1.232   3.459   5.287  2.6255 -3.0903 -0.3334
   34DOPE  C318 4383   1.215   3.611   5.141  0.4057 -0.0516  0.4464
   34DOPE  H18X 4384   1.124   3.665   5.175  1.3258  2.8010 -1.3403
   34DOPE  H18Y 4385   1.310   3.642   5.188  0.8904  0.1470 -0.6312
   34DOPE  H18Z 4386   1.237   3.635   5.035  0.0393 -0.4240  0.2796
   35DOPE     N 4387   6.520   2.461   2.898  0.0004  0.0097  0.2387
   35DOPE   HN1 4388   6.624   2.449   2.891  0.0708  0.8229 -0.2099
   35DOPE   HN2 4389   6.472   2.376   2.934 -2.2821  1.1623  0.0775
   35DOPE   HN3 4390   6.474   2.485   2.808  0.8528  1.0524  0.0603
   35DOPE   C12 4391   6.485   2.560   2.991  0.5385  0.1333 -0.5570
   35DOPE  H12A 4392   6.544   2.651   2.967 -0.1142  0.9779  0.8629
   35DOPE  H12B 4393   6.514   2.521   3.091  0.0004  1.6807  0.2404
   35DOPE   C11 4394   6.336   2.579   2.983  0.8484  0.1465 -0.0427
   35DOPE  H11A 4395   6.292   2.640   3.065  1.5237  1.3183 -0.5216
   35DOPE  H11B 4396   6.289   2.479   2.999 -0.7359  0.9697  0.7691
   35DOPE     P 4397   6.299   2.780   2.817 -0.1209 -0.1555 -0.6707
   35DOPE   O13 4398   6.256   2.793   2.680  0.4050 -0.4218 -0.1658
   35DOPE   O14 4399   6.432   2.847   2.840 -0.3981  0.1202 -0.2208
   35DOPE   O11 4400   6.190   2.841   2.907  0.6610 -0.0536 -0.0829
   35DOPE   O12 4401   6.298   2.629   2.852  0.1170 -0.3252  0.1660
   35DOPE    C1 4402   6.166   2.976   2.927  0.9259  0.1126 -0.3937
   35DOPE    HA 4403   6.164   3.031   2.831  1.8214  0.6998 -0.0826
   35DOPE    HB 4404   6.233   3.021   3.003 -1.9903  1.0641  1.8023
   35DOPE    C2 4405   6.020   2.993   2.977  0.0799  0.1332 -0.4387
   35DOPE    HS 4406   6.001   3.102   2.967 -2.4135 -0.3263 -1.4849
   35DOPE   O21 4407   5.999   2.936   3.108 -0.3391  0.3302 -0.1489
   35DOPE   C21 4408   6.015   3.007   3.209 -0.0069  0.6398  0.4357
   35DOPE   O22 4409   6.074   3.114   3.213 -0.1908  0.5438 -0.0470
   35DOPE   C22 4410   5.953   2.938   3.332 -0.3412 -0.0000 -0.4960
   35DOPE   H2R 4411   5.980   2.831   3.337 -0.8798 -0.1697 -1.0059
   35DOPE   H2S 4412   5.845   2.938   3.306 -0.8812 -1.1705  1.5372
   35DOPE    C3 4413   5.920   2.917   2.877  0.5136 -0.5022 -0.0018
   35DOPE    HX 4414   5.947   2.809   2.871 -0.0174 -0.8356  2.5550
   35DOPE    HY 4415   5.936   2.968   2.780  1.5615 -1.0466 -0.1299
   35DOPE   O31 4416   5.781   2.929   2.919 -0.2377  0.0366  0.0337
   35DOPE   C31 4417   5.688   2.881   2.834  0.2937 -0.2604  0.2341
   35DOPE   O32 4418   5.704   2.849   2.717 -0.2501  0.0590  0.3027
   35DOPE   C32 4419   5.555   2.876   2.907 -0.0758  0.5480 -0.1208
   35DOPE   H2X 4420   5.578   2.853   3.013 -0.0924 -0.8419 -0.3948
   35DOPE   H2Y 4421   5.513   2.978   2.894 -2.1119 -0.3614 -1.2053
   35DOPE   C23 4422   5.975   2.997   3.470  0.6616 -0.1108 -0.5343
   35DOPE   H3R 4423   6.003   3.105   3.467 -3.1210  1.0358 -0.4444
   35DOPE   H3S 4424   6.058   2.951   3.527  1.3117  1.1365 -0.4421
   35DOPE   C24 4425   5.845   2.999   3.566 -0.2828  0.7297 -0.1503
   35DOPE   H4R 4426   5.770   3.068   3.520  0.6775  1.4890 -0.6199
   35DOPE   H4S 4427   5.865   3.042   3.666 -0.1856  4.1988 -1.5107
   35DOPE   C25 4428   5.802   2.855   3.596  0.1157 -0.2544 -0.3813
   35DOPE   H5R 4429   5.878   2.790   3.645 -0.3842 -1.3721 -1.0453
   35DOPE   H5S 4430   5.770   2.811   3.499 -0.2711  0.8139 -0.7493
   35DOPE   C26 4431   5.674   2.853   3.689 -0.4624  0.3250  0.4177
   35DOPE   H6R 4432   5.592   2.911   3.640  1.0820  1.0877 -1.4386
   35DOPE   H6S 4433   5.698   2.904   3.784 -1.4180  0.6680  0.4895
   35DOPE   C27 4434   5.640   2.712   3.727 -0.4892 -0.0273 -0.1616
   35DOPE   H7R 4435   5.722   2.682   3.796  0.7579 -0.2862 -1.7068
   35DOPE   H7S 4436   5.638   2.641   3.642  1.7423 -1.5066  0.9218
   35DOPE   C28 4437   5.506   2.708   3.795 -0.6890  0.5677 -0.3352
   35DOPE   H8R 4438   5.484   2.599   3.800 -0.0026  0.4515  0.4282
   35DOPE   H8S 4439   5.436   2.761   3.727  0.1766 -0.1347 -1.8184
   35DOPE   C29 4440   5.513   2.766   3.933  0.3927  0.1395 -0.9640
   35DOPE   H9R 4441   5.604   2.745   3.991 -1.4278 -2.5304  1.1737
   35DOPE  C210 4442   5.419   2.851   3.993 -0.0055 -0.3753 -0.1118
   35DOPE  H10R 4443   5.444   2.888   4.094 -0.6257  1.3683 -0.5731
   35DOPE  C211 4444   5.292   2.899   3.932 -0.0936  0.2532 -0.4758
   35DOPE  H11R 4445   5.260   2.844   3.841 -3.6552  0.1871  0.6682
   35DOPE  H11S 4446   5.281   3.005   3.901  1.0517  1.3211  2.4431
   35DOPE  C212 4447   5.184   2.883   4.044 -0.1271 -0.2432  0.5947
   35DOPE  H12R 4448   5.202   2.961   4.121 -2.7310  0.1232  0.9354
   35DOPE  H12S 4449   5.188   2.784   4.095  0.2290 -1.2221 -1.2483
   35DOPE  C213 4450   5.040   2.902   3.993 -0.2495 -0.8024 -0.9688
   35DOPE  H13R 4451   5.031   2.808   3.933  2.1398 -0.8449 -1.3506
   35DOPE  H13S 4452   5.019   2.986   3.923 -1.0838 -0.3523 -0.1997
   35DOPE  C214 4453   4.930   2.922   4.101 -0.1498 -0.4382  0.0781
   35DOPE  H14R 4454   4.943   2.834   4.168  1.7049 -1.2060 -1.2206
   35DOPE  H14S 4455   4.827   2.926   4.058  0.2743  0.4763 -0.9060
   35DOPE  C215 4456   4.931   3.049   4.181  0.3751 -0.5229  0.0254
   35DOPE  H15R 4457   5.035   3.066   4.215  0.1884  2.8540 -0.7201
   35DOPE  H15S 4458   4.858   3.042   4.264 -0.4686  0.3563 -0.6313
   35DOPE  C216 4459   4.896   3.168   4.083  0.6075 -0.1912 -0.0136
   35DOPE  H16R 4460   4.807   3.163   4.017  0.0067  1.0831  0.6870
   35DOPE  H16S 4461   4.978   3.182   4.009 -0.7908  0.1100 -1.5685
   35DOPE  C217 4462   4.892   3.300   4.156 -0.0824  0.5002  0.0333
   35DOPE  H17R 4463   4.809   3.286   4.229  0.5647  1.5555  1.0023
   35DOPE  H17S 4464   4.857   3.370   4.077  1.3019  1.2159  0.0300
   35DOPE  C218 4465   5.021   3.353   4.212  0.8669 -0.1436 -0.3680
   35DOPE  H18R 4466   5.057   3.287   4.295 -1.9021 -1.0366  0.2603
   35DOPE  H18S 4467   5.013   3.455   4.254  1.7111 -1.1926  2.6782
   35DOPE  H18T 4468   5.107   3.378   4.147  0.4558  0.5450 -0.6512
   35DOPE   C33 4469   5.459   2.764   2.856  0.6757 -0.0629 -0.0605
   35DOPE   H3X 4470   5.512   2.667   2.864 -0.1540 -0.4889  0.3168
   35DOPE   H3Y 4471   5.437   2.778   2.748  3.1991  0.6157 -0.5466
   35DOPE   C34 4472   5.329   2.770   2.937  0.6707 -0.6625  0.3339
   35DOPE   H4X 4473   5.368   2.729   3.033  2.5968 -0.3251 -0.2594
   35DOPE   H4Y 4474   5.316   2.877   2.964  0.7651 -0.6700  0.4089
   35DOPE   C35 4475   5.206   2.694   2.889 -0.1977  0.1449  0.6979
   35DOPE   H5X 4476   5.245   2.590   2.886 -1.1722 -0.2303 -2.1946
   35DOPE   H5Y 4477   5.192   2.713   2.781  1.7663 -0.9310  0.2088
   35DOPE   C36 4478   5.094   2.712   2.994 -0.1242  0.5401  0.1288
   35DOPE   H6X 4479   5.104   2.820   3.020 -0.0719  0.4128  0.6395
   35DOPE   H6Y 4480   5.125   2.657   3.085 -0.0503  1.6084  0.7622
   35DOPE   C37 4481   4.950   2.670   2.937 -0.5975 -0.2723  0.2997
   35DOPE   H7X 4482   4.934   2.719   2.839  1.1157 -1.5689 -0.6854
   35DOPE   H7Y 4483   4.964   2.563   2.910  2.4960  0.3956 -1.2237
   35DOPE   C38 4484   4.828   2.697   3.029  0.2110 -0.5654  0.0161
   35DOPE   H8X 4485   4.846   2.647   3.126  1.4023 -0.1305  0.0376
   35DOPE   H8Y 4486   4.741   2.650   2.979 -0.3808 -0.5388  0.9985
   35DOPE   C39 4487   4.801   2.839   3.061 -0.0578 -0.2907  0.3210
   35DOPE   H9X 4488   4.885   2.904   3.090 -0.6078  1.4094 -1.5870
   35DOPE  C310 4489   4.688   2.903   3.021 -0.0200  0.2270 -0.3427
   35DOPE  H10X 4490   4.681   3.007   3.055  0.0679  0.1399 -0.0548
   35DOPE  C311 4491   4.571   2.848   2.944  0.3986 -0.1124  0.1076
   35DOPE  H11X 4492   4.539   2.921   2.867  0.9312 -1.5701 -1.5486
   35DOPE  H11Y 4493   4.594   2.759   2.882  2.0608  0.6378 -0.4039
   35DOPE  C312 4494   4.453   2.831   3.039 -0.0404 -0.2051 -0.1361
   35DOPE  H12X 4495   4.444   2.921   3.104  0.3217 -0.9212  0.9392
   35DOPE  H12Y 4496   4.477   2.751   3.112  0.2398 -1.3529 -1.4536
   35DOPE  C313 4497   4.322   2.786   2.967 -0.1208 -0.8489 -0.2288
   35DOPE  H13X 4498   4.275   2.856   2.895 -0.7275  0.1936  1.1487
   35DOPE  H13Y 4499   4.345   2.692   2.913 -0.3939 -1.1104  0.1020
   35DOPE  C314 4500   4.215   2.751   3.072  0.0071 -0.3664  0.0519
   35DOPE  H14X 4501   4.185   2.844   3.125  0.7549 -0.1501  0.1159
   35DOPE  H14Y 4502   4.269   2.684   3.142  0.2547 -1.5197 -1.2144
   35DOPE  C315 4503   4.100   2.679   3.008 -0.4364  0.0786  0.1435
   35DOPE  H15X 4504   4.143   2.612   2.931  0.9570  0.5030  0.5262
   35DOPE  H15Y 4505   4.031   2.754   2.964 -1.7805 -0.4511  1.2545
   35DOPE  C316 4506   4.012   2.584   3.103 -0.6196 -0.4113  0.3943
   35DOPE  H16X 4507   4.078   2.495   3.116 -0.1542  0.1348  2.0853
   35DOPE  H16Y 4508   3.928   2.547   3.041  0.7756 -1.5937 -0.8719
   35DOPE  C317 4509   3.965   2.656   3.233  0.2640 -0.0947  0.3925
   35DOPE  H17X 4510   3.915   2.583   3.300 -0.2081 -0.6348 -0.5265
   35DOPE  H17Y 4511   4.045   2.702   3.296  2.0463 -0.1583 -1.6936
   35DOPE  C318 4512   3.849   2.753   3.217  0.3491  0.2310 -0.0152
   35DOPE  H18X 4513   3.850   2.806   3.315  0.5900 -2.9303  1.8056
   35DOPE  H18Y 4514   3.880   2.825   3.138  0.1513  1.5687  1.0847
   35DOPE  H18Z 4515   3.753   2.698   3.218  0.3351  0.2597  0.5680
   36DOPE     N 4516   7.534   3.977   3.025 -0.3965  0.3781 -0.7498
   36DOPE   HN1 4517   7.606   4.052   3.016  1.2373 -1.3216 -2.8410
   36DOPE   HN2 4518   7.563   3.917   3.104  0.8458 -0.0787 -1.5213
   36DOPE   HN3 4519   7.546   3.920   2.939 -1.1550 -2.1908  0.7491
   36DOPE   C12 4520   7.392   4.035   3.033  0.4208 -0.6746  0.3741
   36DOPE  H12A 4521   7.399   4.110   3.115 -0.7968 -0.5795  0.4139
   36DOPE  H12B 4522   7.325   3.956   3.073 -1.9581  1.0127 -0.0773
   36DOPE   C11 4523   7.355   4.101   2.900  0.6135  0.6700 -0.6794
   36DOPE  H11A 4524   7.248   4.129   2.903  0.3166 -0.4336  1.9187
   36DOPE  H11B 4525   7.361   4.016   2.830 -1.4723 -1.0639  1.1092
   36DOPE     P 4526   7.418   4.355   2.920  0.0775  0.0268  0.0289
   36DOPE   O13 4527   7.502   4.455   2.845 -0.7788 -0.4818  0.2637
   36DOPE   O14 4528   7.432   4.362   3.065 -0.0815  0.7731  0.0813
   36DOPE   O11 4529   7.268   4.376   2.874  0.6552 -0.2600  0.3810
   36DOPE   O12 4530   7.448   4.208   2.876 -0.0276 -0.1518 -0.4025
   36DOPE    C1 4531   7.234   4.363   2.740 -0.1818 -0.3785  0.0030
   36DOPE    HA 4532   7.186   4.264   2.727 -2.8117  0.5813  1.6151
   36DOPE    HB 4533   7.322   4.355   2.673  1.1467 -0.1391  1.6641
   36DOPE    C2 4534   7.146   4.480   2.690  0.1596  0.5667 -0.0227
   36DOPE    HS 4535   7.202   4.576   2.683 -0.1556  0.8311  0.8837
   36DOPE   O21 4536   7.034   4.490   2.783 -0.3218  0.5363  0.0189
   36DOPE   C21 4537   7.016   4.604   2.842  0.3483 -0.7892 -0.6806
   36DOPE   O22 4538   7.074   4.709   2.827  0.1570 -0.0692  0.0943
   36DOPE   C22 4539   6.888   4.595   2.928  0.2052  0.4506  0.3032
   36DOPE   H2R 4540   6.902   4.513   3.002 -0.4982  0.1551  0.1141
   36DOPE   H2S 4541   6.802   4.570   2.863  0.3512  0.2070  0.2021
   36DOPE    C3 4542   7.092   4.468   2.547  1.0801 -0.0293 -0.0664
   36DOPE    HX 4543   7.040   4.370   2.539 -0.6566  0.8421  0.1178
   36DOPE    HY 4544   7.184   4.464   2.484  0.0017  1.0322 -1.7631
   36DOPE   O31 4545   7.002   4.575   2.513 -0.4034 -0.6798  0.5347
   36DOPE   C31 4546   6.979   4.570   2.376  0.5539 -0.2382 -0.3163
   36DOPE   O32 4547   7.020   4.490   2.299  0.0558 -0.2674  0.7658
   36DOPE   C32 4548   6.890   4.690   2.331 -0.0861 -0.2579 -0.7728
   36DOPE   H2X 4549   6.930   4.782   2.381  2.0222 -1.1086 -0.7846
   36DOPE   H2Y 4550   6.885   4.700   2.221  2.0402 -1.9627 -1.0843
   36DOPE   C23 4551   6.857   4.724   3.002 -0.1357 -0.0397  0.5373
   36DOPE   H3R 4552   6.853   4.799   2.920  0.6094  0.4332  0.9184
   36DOPE   H3S 4553   6.941   4.757   3.067 -0.1671  1.7334 -0.2652
   36DOPE   C24 4554   6.724   4.718   3.068  1.0599 -0.3011  0.2677
   36DOPE   H4R 4555   6.716   4.642   3.149  0.8834 -1.8634 -1.1624
   36DOPE   H4S 4556   6.641   4.682   3.004  0.0578 -2.7933  2.7364
   36DOPE   C25 4557   6.684   4.853   3.135  0.7656 -0.5619 -0.1101
   36DOPE   H5R 4558   6.698   4.930   3.056 -1.1825  1.8101  1.7188
   36DOPE   H5S 4559   6.759   4.875   3.214  0.5476  1.7175 -0.4722
   36DOPE   C26 4560   6.539   4.874   3.188 -0.3066  0.2706 -0.3310
   36DOPE   H6R 4561   6.471   4.848   3.104 -1.6799  0.4495  0.6984
   36DOPE   H6S 4562   6.522   4.979   3.221 -1.9636  0.4835 -1.7376
   36DOPE   C27 4563   6.497   4.778   3.303 -0.8139  0.7083  0.2964
   36DOPE   H7R 4564   6.595   4.760   3.353 -0.0969 -1.9095 -1.8175
   36DOPE   H7S 4565   6.456   4.684   3.261  1.2071  0.7047 -1.8910
   36DOPE   C28 4566   6.401   4.832   3.405 -0.2558  0.4833 -0.6889
   36DOPE   H8R 4567   6.397   4.751   3.481 -0.5577  0.3465 -0.8495
   36DOPE   H8S 4568   6.297   4.845   3.368 -0.3286  1.1577 -0.2520
   36DOPE   C29 4569   6.452   4.950   3.478  0.4378 -0.2625  0.6201
   36DOPE   H9R 4570   6.511   5.025   3.424  0.1753 -1.0288 -0.7942
   36DOPE  C210 4571   6.433   4.973   3.611 -0.3940 -0.0966  1.1369
   36DOPE  H10R 4572   6.472   5.067   3.654  0.7570  0.0352 -0.1353
   36DOPE  C211 4573   6.362   4.881   3.697  0.3038 -0.1289 -0.7655
   36DOPE  H11R 4574   6.357   4.776   3.662 -2.0727  0.0412 -1.0945
   36DOPE  H11S 4575   6.255   4.910   3.697 -0.2645 -2.0129  1.2287
   36DOPE  C212 4576   6.410   4.869   3.842 -0.3110  0.4332  1.0324
   36DOPE  H12R 4577   6.519   4.889   3.851  0.2093 -2.2063  1.5227
   36DOPE  H12S 4578   6.401   4.761   3.868  0.5682 -0.2486 -1.2170
   36DOPE  C213 4579   6.327   4.949   3.938  0.0533 -0.0213 -0.3792
   36DOPE  H13R 4580   6.225   4.908   3.926  0.1940 -0.4672 -0.0930
   36DOPE  H13S 4581   6.319   5.055   3.907 -1.7283 -0.3400 -1.1029
   36DOPE  C214 4582   6.370   4.935   4.087 -0.0211 -0.3664 -0.5676
   36DOPE  H14R 4583   6.479   4.956   4.101  0.0628 -0.2595 -1.3310
   36DOPE  H14S 4584   6.358   4.830   4.120 -0.6283  0.2228  1.1931
   36DOPE  C215 4585   6.286   5.026   4.187  0.1878  0.0518  0.4617
   36DOPE  H15R 4586   6.183   4.986   4.194 -0.6138  1.7315 -0.9383
   36DOPE  H15S 4587   6.273   5.128   4.143  0.2084 -0.0213  0.2857
   36DOPE  C216 4588   6.338   5.024   4.331  0.2054 -0.1119  0.1934
   36DOPE  H16R 4589   6.449   5.037   4.336  0.4345 -1.1552 -1.5178
   36DOPE  H16S 4590   6.320   4.919   4.362 -2.1445  0.3012  0.3804
   36DOPE  C217 4591   6.253   5.122   4.417 -0.2845  0.2052  0.8871
   36DOPE  H17R 4592   6.143   5.107   4.411  0.0139 -2.0055  0.2106
   36DOPE  H17S 4593   6.258   5.225   4.375  2.1022  0.1577  0.9059
   36DOPE  C218 4594   6.304   5.130   4.557 -0.0276  0.0438 -0.2116
   36DOPE  H18R 4595   6.412   5.155   4.560  0.5558 -2.3150  0.4434
   36DOPE  H18S 4596   6.291   5.024   4.588  0.7786  0.5763  2.1545
   36DOPE  H18T 4597   6.249   5.187   4.635  1.1656 -0.7210  1.2420
   36DOPE   C33 4598   6.743   4.671   2.372 -0.3727  0.2630  0.0588
   36DOPE   H3X 4599   6.718   4.563   2.360  2.7859 -0.7310  1.5085
   36DOPE   H3Y 4600   6.675   4.728   2.305 -1.7261  0.4089  1.4727
   36DOPE   C34 4601   6.722   4.714   2.517  0.5032 -0.7449  0.1559
   36DOPE   H4X 4602   6.781   4.641   2.576 -1.2240 -0.8207  1.9155
   36DOPE   H4Y 4603   6.773   4.812   2.533  2.3157 -1.4456 -1.0495
   36DOPE   C35 4604   6.577   4.709   2.561 -0.1274 -0.1626  0.0706
   36DOPE   H5X 4605   6.541   4.619   2.506 -0.8360  0.9425 -1.3577
   36DOPE   H5Y 4606   6.516   4.788   2.512 -1.1007 -2.2139 -2.2991
   36DOPE   C36 4607   6.550   4.704   2.710  0.1059  0.2629  0.2728
   36DOPE   H6X 4608   6.594   4.794   2.757 -2.2776  2.0352 -0.6875
   36DOPE   H6Y 4609   6.596   4.615   2.758 -2.8296 -0.9637  1.0182
   36DOPE   C37 4610   6.394   4.687   2.733 -0.0584  0.0455 -0.0288
   36DOPE   H7X 4611   6.344   4.764   2.671  0.1393 -0.1233 -0.4028
   36DOPE   H7Y 4612   6.365   4.586   2.697  0.3811  0.3788 -1.3607
   36DOPE   C38 4613   6.349   4.730   2.869  0.2651 -0.5832 -0.3644
   36DOPE   H8X 4614   6.357   4.838   2.893 -1.1248 -0.8448  1.5365
   36DOPE   H8Y 4615   6.413   4.678   2.944  1.0803  0.6300 -0.1935
   36DOPE   C39 4616   6.202   4.695   2.886  0.0870 -0.3463  0.6499
   36DOPE   H9X 4617   6.144   4.745   2.808  0.3193 -2.3920 -0.9195
   36DOPE  C310 4618   6.139   4.625   2.983 -0.2694 -0.1240  0.2528
   36DOPE  H10X 4619   6.030   4.610   2.976 -0.1950  0.0049 -3.1821
   36DOPE  C311 4620   6.199   4.567   3.110  0.3595  0.3160  0.2810
   36DOPE  H11X 4621   6.212   4.456   3.106 -1.6085  0.0651 -0.5398
   36DOPE  H11Y 4622   6.298   4.611   3.132  0.2904  0.9062 -0.5523
   36DOPE  C312 4623   6.110   4.603   3.231 -0.1411 -0.2167 -0.1226
   36DOPE  H12X 4624   6.008   4.562   3.211 -0.3934  0.4280 -0.1592
   36DOPE  H12Y 4625   6.103   4.713   3.242 -0.2612 -0.4323  2.5432
   36DOPE  C313 4626   6.171   4.537   3.360  1.1023 -0.2992 -0.3589
   36DOPE  H13X 4627   6.135   4.432   3.359 -0.1819  0.0880  0.7424
   36DOPE  H13Y 4628   6.280   4.535   3.342  1.3195 -2.7020  0.7883
   36DOPE  C314 4629   6.119   4.599   3.486  0.1455  0.1198  0.2694
   36DOPE  H14X 4630   6.007   4.601   3.488  0.1106 -0.3214  2.8513
   36DOPE  H14Y 4631   6.162   4.700   3.500 -0.4071  0.3879  0.0914
   36DOPE  C315 4632   6.171   4.526   3.611  0.7980 -0.3851  0.1760
   36DOPE  H15X 4633   6.282   4.520   3.611  0.9334  1.6519  0.3583
   36DOPE  H15Y 4634   6.133   4.422   3.599  1.0819 -0.5289  0.5006
   36DOPE  C316 4635   6.114   4.566   3.749 -0.1033 -0.8332  0.1234
   36DOPE  H16X 4636   6.008   4.533   3.742 -0.2595 -0.6922  1.5093
   36DOPE  H16Y 4637   6.126   4.675   3.763 -3.7556 -0.3914  0.9316
   36DOPE  C317 4638   6.168   4.491   3.868  0.2315 -0.0523  0.2249
   36DOPE  H17X 4639   6.160   4.383   3.845  0.7521  0.3485 -2.2110
   36DOPE  H17Y 4640   6.277   4.507   3.884  0.7036 -2.4656 -0.2266
   36DOPE  C318 4641   6.093   4.502   4.006 -0.5254  0.2162 -0.5731
   36DOPE  H18X 4642   6.134   4.427   4.076 -2.0638 -1.6958 -1.6300
   36DOPE  H18Y 4643   6.082   4.602   4.053  1.7702 -0.5596  1.8765
   36DOPE  H18Z 4644   5.994   4.463   3.975 -0.7846  0.1600  0.3091
   37DOPE     N 4645   1.927   2.686   2.989  0.7828  0.4103  0.5654
   37DOPE   HN1 4646   1.868   2.746   3.050  0.6536 -0.8284  1.7053
   37DOPE   HN2 4647   1.960   2.617   3.060 -0.1044 -1.7744 -1.0069
   37DOPE   HN3 4648   2.011   2.737   2.955  0.2490  0.3362 -0.9337
   37DOPE   C12 4649   1.858   2.605   2.880  0.0456  0.1537 -0.7224
   37DOPE  H12A 4650   1.911   2.639   2.789 -0.7843 -0.4097 -1.4411
   37DOPE  H12B 4651   1.748   2.621   2.875 -0.1628 -1.4563 -3.3045
   37DOPE   C11 4652   1.877   2.451   2.906  0.0231  0.5018 -0.8873
   37DOPE  H11A 4653   1.984   2.426   2.889  0.6229  0.4791  2.2633
   37DOPE  H11B 4654   1.820   2.407   2.822 -0.2933 -0.6989 -0.0702
   37DOPE     P 4655   1.696   2.382   3.080  0.3301 -0.0160 -0.1153
   37DOPE   O13 4656   1.673   2.242   3.042 -0.1624 -0.6095  0.3294
   37DOPE   O14 4657   1.604   2.483   3.015  0.0814 -0.0402 -0.6887
   37DOPE   O11 4658   1.698   2.400   3.232  0.7619  0.1577  0.3388
   37DOPE   O12 4659   1.846   2.412   3.040 -0.3101  0.0034 -0.1241
   37DOPE    C1 4660   1.737   2.529   3.287  0.1968 -0.1382  0.1246
   37DOPE    HA 4661   1.657   2.605   3.280  0.6898  0.8273  3.4070
   37DOPE    HB 4662   1.829   2.570   3.242  0.1569  1.8983  1.7536
   37DOPE    C2 4663   1.781   2.504   3.432 -0.3140  0.2500  0.1903
   37DOPE    HS 4664   1.798   2.605   3.476 -0.1971  0.8188 -1.1063
   37DOPE   O21 4665   1.900   2.421   3.419 -0.1544 -0.0443 -0.6255
   37DOPE   C21 4666   1.995   2.454   3.507 -0.2960 -0.5636 -1.0143
   37DOPE   O22 4667   1.986   2.546   3.589 -0.3878  0.6957 -0.2338
   37DOPE   C22 4668   2.116   2.356   3.512  0.3114 -0.6323 -0.0617
   37DOPE   H2R 4669   2.190   2.382   3.433  3.0755  1.1055  2.8641
   37DOPE   H2S 4670   2.081   2.252   3.494 -0.3908 -0.1945 -1.3220
   37DOPE    C3 4671   1.665   2.436   3.510  0.0913 -0.4419  0.0269
   37DOPE    HX 4672   1.655   2.333   3.470  0.5477 -0.5917  0.2918
   37DOPE    HY 4673   1.566   2.484   3.493  0.6704 -0.0420 -2.5538
   37DOPE   O31 4674   1.707   2.425   3.640  0.5631  0.1193 -0.4239
   37DOPE   C31 4675   1.667   2.527   3.717  0.1042  1.0679  0.5572
   37DOPE   O32 4676   1.591   2.617   3.683 -0.2021  0.8612 -0.5041
   37DOPE   C32 4677   1.743   2.520   3.853  0.1277 -0.3242  0.0576
   37DOPE   H2X 4678   1.835   2.459   3.840  0.7049  0.7881 -1.3223
   37DOPE   H2Y 4679   1.781   2.623   3.876 -1.3887 -0.3447  3.2577
   37DOPE   C23 4680   2.197   2.356   3.643  0.2341  0.1261  0.1655
   37DOPE   H3R 4681   2.117   2.343   3.720 -0.8546 -0.4759 -1.0229
   37DOPE   H3S 4682   2.243   2.457   3.648  1.0771 -0.2116 -0.5654
   37DOPE   C24 4683   2.301   2.245   3.650  0.3362 -0.0242 -0.2214
   37DOPE   H4R 4684   2.371   2.250   3.564  0.9788 -0.0834  0.2912
   37DOPE   H4S 4685   2.254   2.144   3.646  0.6976 -0.1812 -0.5816
   37DOPE   C25 4686   2.382   2.247   3.779  0.2710  0.0308 -0.4352
   37DOPE   H5R 4687   2.315   2.231   3.866  1.8486  0.4602  0.9249
   37DOPE   H5S 4688   2.421   2.350   3.793 -0.1975  0.0538  0.8510
   37DOPE   C26 4689   2.487   2.143   3.785 -1.2437  0.8902 -0.8700
   37DOPE   H6R 4690   2.551   2.152   3.694  1.7326  0.1817  1.0091
   37DOPE   H6S 4691   2.439   2.044   3.796  1.1095 -0.1024  2.1031
   37DOPE   C27 4692   2.590   2.146   3.898 -0.6472 -0.3678  0.2106
   37DOPE   H7R 4693   2.676   2.202   3.855 -0.5387 -0.7697 -0.1063
   37DOPE   H7S 4694   2.633   2.043   3.908  2.0855  0.7593  1.2181
   37DOPE   C28 4695   2.553   2.201   4.033  0.1693 -0.0755  0.1642
   37DOPE   H8R 4696   2.502   2.298   4.019 -1.5091 -0.7290  1.4010
   37DOPE   H8S 4697   2.644   2.220   4.093 -0.7856  2.2260  0.9875
   37DOPE   C29 4698   2.458   2.107   4.112  0.2187  0.0046  0.1046
   37DOPE   H9R 4699   2.350   2.128   4.110  0.0962 -0.6092  0.0854
   37DOPE  C210 4700   2.491   2.001   4.189  0.0947 -0.0187 -0.0597
   37DOPE  H10R 4701   2.418   1.932   4.235  0.4787  0.7740  1.7945
   37DOPE  C211 4702   2.632   1.959   4.208  0.1142 -0.4813  0.4040
   37DOPE  H11R 4703   2.681   2.042   4.262  0.7773 -1.1992  0.9224
   37DOPE  H11S 4704   2.677   1.940   4.109 -2.1627 -0.5766 -0.6689
   37DOPE  C212 4705   2.665   1.837   4.292 -0.4527  0.4236 -0.6572
   37DOPE  H12R 4706   2.774   1.820   4.278 -0.4244 -0.1062  0.1166
   37DOPE  H12S 4707   2.617   1.746   4.249 -0.6700  0.4598 -0.4927
   37DOPE  C213 4708   2.631   1.857   4.443 -0.6143  0.4240  0.0997
   37DOPE  H13R 4709   2.523   1.885   4.448 -0.4133  1.0383  1.0201
   37DOPE  H13S 4710   2.691   1.944   4.477  0.2946 -0.0479 -0.2636
   37DOPE  C214 4711   2.655   1.726   4.516  0.3536 -0.0884  0.1815
   37DOPE  H14R 4712   2.763   1.704   4.524  0.3528  0.3095  1.4358
   37DOPE  H14S 4713   2.614   1.639   4.460  1.4692 -0.0210 -0.7591
   37DOPE  C215 4714   2.589   1.722   4.657 -0.8514 -0.2387  0.4573
   37DOPE  H15R 4715   2.606   1.622   4.703 -1.4431  0.9192  3.3887
   37DOPE  H15S 4716   2.480   1.736   4.645 -0.7159 -0.8007 -1.9898
   37DOPE  C216 4717   2.652   1.824   4.754 -0.0599  0.6737  0.1385
   37DOPE  H16R 4718   2.674   1.920   4.703  1.8367  0.6681  0.8503
   37DOPE  H16S 4719   2.743   1.778   4.799 -0.4515 -1.5115 -1.1701
   37DOPE  C217 4720   2.564   1.850   4.880  0.5044 -0.1465 -0.4529
   37DOPE  H17R 4721   2.614   1.933   4.935 -0.1274 -0.7778  1.1129
   37DOPE  H17S 4722   2.577   1.764   4.949  0.8282  0.2779  0.0254
   37DOPE  C218 4723   2.416   1.889   4.850  0.4892 -0.6349 -0.5413
   37DOPE  H18R 4724   2.359   1.795   4.839  1.2745 -1.1126 -0.6220
   37DOPE  H18S 4725   2.400   1.946   4.756  0.4554  0.4500  0.1016
   37DOPE  H18T 4726   2.371   1.945   4.935  0.7680  2.3832 -2.2120
   37DOPE   C33 4727   1.652   2.464   3.963  0.3067 -0.2530 -1.0002
   37DOPE   H3X 4728   1.717   2.412   4.037 -2.2045 -0.5878  1.1432
   37DOPE   H3Y 4729   1.571   2.395   3.931 -0.6310  1.4262 -2.4172
   37DOPE   C34 4730   1.584   2.582   4.032 -0.1606 -0.6218 -0.1952
   37DOPE   H4X 4731   1.554   2.651   3.951  0.2270  1.9004  1.6893
   37DOPE   H4Y 4732   1.493   2.546   4.084  0.7754 -0.4397  1.6660
   37DOPE   C35 4733   1.662   2.674   4.128  0.2718  0.8129 -0.7551
   37DOPE   H5X 4734   1.735   2.729   4.064  1.4581 -0.1980 -0.3117
   37DOPE   H5Y 4735   1.714   2.612   4.204 -0.9551  1.3201  0.5383
   37DOPE   C36 4736   1.591   2.789   4.208  0.0704  0.1737  0.3593
   37DOPE   H6X 4737   1.500   2.750   4.258 -0.9552 -1.0104 -2.2597
   37DOPE   H6Y 4738   1.542   2.865   4.144 -2.2969 -3.0740 -2.0164
   37DOPE   C37 4739   1.683   2.858   4.314 -0.5147 -0.0769 -0.0063
   37DOPE   H7X 4740   1.716   2.779   4.384  2.2361  1.6146  0.7673
   37DOPE   H7Y 4741   1.776   2.888   4.261 -0.6110 -0.4701 -0.4023
   37DOPE   C38 4742   1.615   2.973   4.386  0.2969 -0.2563 -0.2305
   37DOPE   H8X 4743   1.563   3.035   4.309  0.0349 -1.2347 -0.8635
   37DOPE   H8Y 4744   1.687   3.037   4.441  1.6968 -2.2598  0.3884
   37DOPE   C39 4745   1.522   2.914   4.489  0.5283 -0.2726 -0.1391
   37DOPE   H9X 4746   1.422   2.880   4.459 -0.1723  2.2566 -0.9843
   37DOPE  C310 4747   1.546   2.902   4.623 -0.8509  0.4051 -0.0420
   37DOPE  H10X 4748   1.467   2.875   4.694  1.2298 -0.7936  1.9445
   37DOPE  C311 4749   1.682   2.939   4.679 -0.0321 -0.1158 -0.0757
   37DOPE  H11X 4750   1.763   2.883   4.628 -0.6736  0.0868 -1.3453
   37DOPE  H11Y 4751   1.705   3.046   4.664 -0.9026  0.0799 -0.0990
   37DOPE  C312 4752   1.686   2.906   4.829 -0.3065 -0.9340 -0.7219
   37DOPE  H12X 4753   1.790   2.926   4.861 -0.4575  0.1158 -0.8610
   37DOPE  H12Y 4754   1.657   2.799   4.838 -1.2993 -0.5987  0.2592
   37DOPE  C313 4755   1.593   2.994   4.916  0.1593 -0.3313 -0.2352
   37DOPE  H13X 4756   1.636   3.096   4.900  0.0146 -0.0815  0.8810
   37DOPE  H13Y 4757   1.492   2.989   4.870  0.2413  3.9500 -1.3488
   37DOPE  C314 4758   1.595   2.946   5.055  0.0173  0.4026  0.0057
   37DOPE  H14X 4759   1.696   2.958   5.101 -0.2208  0.6995  0.4500
   37DOPE  H14Y 4760   1.578   2.837   5.068 -0.1407  0.3872 -0.3130
   37DOPE  C315 4761   1.508   3.023   5.154  0.1480  0.2554 -0.9361
   37DOPE  H15X 4762   1.404   2.989   5.137 -0.1777 -0.0509  1.3641
   37DOPE  H15Y 4763   1.526   3.130   5.131 -1.4642  0.8725  0.4757
   37DOPE  C316 4764   1.541   2.983   5.302  0.1439 -0.3496  0.1393
   37DOPE  H16X 4765   1.642   3.023   5.326 -0.4168  1.3967 -0.2824
   37DOPE  H16Y 4766   1.533   2.874   5.320 -0.6569 -0.5863 -1.5052
   37DOPE  C317 4767   1.432   3.035   5.404  0.3484 -0.3881  0.0191
   37DOPE  H17X 4768   1.456   2.996   5.505 -1.7602 -1.2713  0.2250
   37DOPE  H17Y 4769   1.448   3.145   5.406  2.6833 -0.6484 -0.6865
   37DOPE  C318 4770   1.288   2.980   5.376 -0.1233 -0.0002  0.1209
   37DOPE  H18X 4771   1.210   3.017   5.446 -1.3925  1.2267 -1.8553
   37DOPE  H18Y 4772   1.258   3.021   5.278  0.6719 -2.9418 -1.4811
   37DOPE  H18Z 4773   1.282   2.869   5.379 -0.2116  0.0111  0.4361
   38DOPE     N 4774   6.433   7.176   3.016  0.2735 -0.0499  0.1193
   38DOPE   HN1 4775   6.373   7.250   2.975  0.3224 -0.7955 -1.3834
   38DOPE   HN2 4776   6.528   7.213   3.035 -0.4476  1.6175  0.6196
   38DOPE   HN3 4777   6.453   7.094   2.955  1.2346 -0.1381  0.5297
   38DOPE   C12 4778   6.378   7.128   3.151  0.4637  0.1003  0.0318
   38DOPE  H12A 4779   6.270   7.107   3.140  0.6770 -0.6645 -0.7829
   38DOPE  H12B 4780   6.390   7.215   3.219  0.8446  0.2711 -0.2496
   38DOPE   C11 4781   6.457   6.995   3.184  0.4930 -0.2540 -0.3993
   38DOPE  H11A 4782   6.407   6.953   3.274 -0.7982  1.7918 -0.0922
   38DOPE  H11B 4783   6.560   7.010   3.221  0.1233 -0.4891  0.7903
   38DOPE     P 4784   6.504   6.760   3.082  0.5354 -0.1846 -0.1093
   38DOPE   O13 4785   6.648   6.764   3.093 -0.2418 -0.0046  0.3974
   38DOPE   O14 4786   6.445   6.677   2.973  0.2977 -0.0231  0.2971
   38DOPE   O11 4787   6.446   6.716   3.228 -0.0171  0.4614 -0.3506
   38DOPE   O12 4788   6.453   6.908   3.070  0.3093 -0.5015  0.0154
   38DOPE    C1 4789   6.506   6.619   3.310 -0.2451  0.3272 -0.2900
   38DOPE    HA 4790   6.599   6.671   3.340 -0.0284  1.0189 -2.0222
   38DOPE    HB 4791   6.535   6.534   3.245  0.9771  1.6839 -1.5981
   38DOPE    C2 4792   6.409   6.576   3.416 -0.6228 -0.3903 -0.4594
   38DOPE    HS 4793   6.475   6.507   3.474 -0.7481 -0.8788 -0.8943
   38DOPE   O21 4794   6.296   6.506   3.355  0.1129  0.7034  0.2467
   38DOPE   C21 4795   6.218   6.442   3.436 -0.1714 -0.6343  0.4535
   38DOPE   O22 4796   6.226   6.419   3.553  0.6805  0.3351  0.2671
   38DOPE   C22 4797   6.111   6.376   3.352  0.0839 -0.2089 -0.5759
   38DOPE   H2R 4798   6.162   6.324   3.269  1.7435  1.8296 -0.9129
   38DOPE   H2S 4799   6.036   6.445   3.308  1.5548  0.0575 -2.8080
   38DOPE    C3 4800   6.381   6.697   3.511 -0.1753  0.0323 -0.3768
   38DOPE    HX 4801   6.337   6.776   3.447 -0.3180 -0.0527 -0.3816
   38DOPE    HY 4802   6.478   6.746   3.536 -0.3250 -1.0955  2.8802
   38DOPE   O31 4803   6.307   6.679   3.635  0.0976 -0.0950  0.1014
   38DOPE   C31 4804   6.363   6.610   3.732 -0.3748 -0.0189  0.0400
   38DOPE   O32 4805   6.475   6.560   3.723 -0.3210 -0.2535 -0.0802
   38DOPE   C32 4806   6.280   6.629   3.863  0.1529  0.3123 -0.0319
   38DOPE   H2X 4807   6.356   6.636   3.944  0.6377 -0.7524 -0.3796
   38DOPE   H2Y 4808   6.234   6.730   3.854  0.5374  0.3074 -3.1646
   38DOPE   C23 4809   6.034   6.266   3.431 -0.1189  0.8405  0.1390
   38DOPE   H3R 4810   5.975   6.309   3.514  0.5542  0.7044  0.6976
   38DOPE   H3S 4811   6.114   6.202   3.475 -1.0914  1.4171  2.9308
   38DOPE   C24 4812   5.938   6.177   3.349  0.0526 -0.1090 -0.4325
   38DOPE   H4R 4813   5.995   6.148   3.259 -0.1514  3.1584 -1.7410
   38DOPE   H4S 4814   5.847   6.222   3.304 -0.7352 -2.3915 -1.2739
   38DOPE   C25 4815   5.881   6.053   3.418  0.2636  0.1987  0.2026
   38DOPE   H5R 4816   5.785   6.034   3.364  1.1962 -0.4626 -1.2776
   38DOPE   H5S 4817   5.844   6.078   3.520  0.1664  3.2026 -0.4782
   38DOPE   C26 4818   5.985   5.937   3.414 -0.3914  0.2912 -0.5250
   38DOPE   H6R 4819   6.067   5.974   3.478 -1.0219  0.9764 -0.0936
   38DOPE   H6S 4820   6.029   5.925   3.312  1.5167 -0.2714  0.3365
   38DOPE   C27 4821   5.934   5.804   3.456  0.1779  0.0186 -0.2962
   38DOPE   H7R 4822   5.835   5.785   3.409 -0.7837 -1.4801  2.1436
   38DOPE   H7S 4823   5.922   5.796   3.566  0.1667  0.5899 -0.2523
   38DOPE   C28 4824   6.019   5.683   3.403 -0.2010  0.2683  0.1849
   38DOPE   H8R 4825   6.036   5.694   3.294  0.0100  2.9078  0.4100
   38DOPE   H8S 4826   5.971   5.585   3.424  1.0367  0.0075  2.0403
   38DOPE   C29 4827   6.158   5.682   3.465 -0.2586 -0.0986 -0.3141
   38DOPE   H9R 4828   6.216   5.773   3.445  0.7322 -0.7281 -0.4133
   38DOPE  C210 4829   6.217   5.581   3.527  0.0246 -0.0600  0.2287
   38DOPE  H10R 4830   6.321   5.589   3.560 -0.1994  2.5768  0.4691
   38DOPE  C211 4831   6.158   5.452   3.558  0.6294  0.0559 -0.4581
   38DOPE  H11R 4832   6.241   5.379   3.559  1.0749  0.5371  1.4889
   38DOPE  H11S 4833   6.089   5.419   3.477  2.2049 -1.4244 -1.2455
   38DOPE  C212 4834   6.096   5.441   3.701 -0.2040 -0.2832 -1.3505
   38DOPE  H12R 4835   6.070   5.335   3.721  2.3874 -0.7742 -0.1276
   38DOPE  H12S 4836   6.009   5.510   3.707  1.2857  1.5607  0.2976
   38DOPE  C213 4837   6.188   5.477   3.825 -0.5977 -0.1454  0.4596
   38DOPE  H13R 4838   6.142   5.474   3.926  2.8555 -0.8011  2.1912
   38DOPE  H13S 4839   6.213   5.585   3.814 -0.4628 -0.0854  1.2388
   38DOPE  C214 4840   6.330   5.400   3.822  0.6178  0.2157  0.0293
   38DOPE  H14R 4841   6.400   5.451   3.753 -0.2830 -1.2397 -2.0834
   38DOPE  H14S 4842   6.309   5.293   3.801 -2.2179  0.3532  1.6886
   38DOPE  C215 4843   6.402   5.386   3.950  0.5229  0.4587 -0.3790
   38DOPE  H15R 4844   6.340   5.333   4.026 -0.5815  1.1613 -0.7596
   38DOPE  H15S 4845   6.418   5.481   4.005  0.2079  0.9831 -1.1706
   38DOPE  C216 4846   6.546   5.329   3.944  0.9283 -0.8866 -0.5348
   38DOPE  H16R 4847   6.598   5.378   3.859 -1.6947 -0.4975 -2.0190
   38DOPE  H16S 4848   6.544   5.220   3.920  2.1647 -1.4715  1.7408
   38DOPE  C217 4849   6.617   5.344   4.080  0.1312 -0.5610 -0.9037
   38DOPE  H17R 4850   6.543   5.323   4.161 -0.5513  0.5992 -1.2045
   38DOPE  H17S 4851   6.644   5.450   4.101 -0.5194 -0.2004 -1.7966
   38DOPE  C218 4852   6.735   5.252   4.092  0.6336  0.6595 -0.0131
   38DOPE  H18R 4853   6.826   5.268   4.030  0.6812  0.2603 -0.0477
   38DOPE  H18S 4854   6.697   5.149   4.073 -0.8620  1.1050  0.4141
   38DOPE  H18T 4855   6.779   5.249   4.194  0.2555  0.6208  0.1505
   38DOPE   C33 4856   6.180   6.509   3.884  0.3704 -0.7409  0.4463
   38DOPE   H3X 4857   6.144   6.485   3.781 -0.4188  1.6862  0.1024
   38DOPE   H3Y 4858   6.085   6.538   3.935 -0.9500 -1.0305 -1.7124
   38DOPE   C34 4859   6.244   6.389   3.955 -0.2431  0.1890 -0.4453
   38DOPE   H4X 4860   6.323   6.347   3.889  0.8361  1.1877  0.1835
   38DOPE   H4Y 4861   6.290   6.431   4.046  0.0076  1.5321 -1.1718
   38DOPE   C35 4862   6.141   6.283   3.980 -0.1368 -0.1541 -0.0672
   38DOPE   H5X 4863   6.060   6.316   4.048 -0.0160  2.9012 -1.2457
   38DOPE   H5Y 4864   6.197   6.208   4.039  1.8590  0.4861 -1.0515
   38DOPE   C36 4865   6.090   6.233   3.849 -0.1529  0.2746  0.9220
   38DOPE   H6X 4866   6.168   6.234   3.770 -0.3641 -0.9940  0.6656
   38DOPE   H6Y 4867   6.008   6.295   3.806  1.3651  0.1336 -2.5551
   38DOPE   C37 4868   6.043   6.080   3.846 -0.2476 -0.7734  0.2057
   38DOPE   H7X 4869   6.060   6.041   3.743  1.2456  1.4883 -0.4812
   38DOPE   H7Y 4870   6.104   6.018   3.914  0.0280 -0.3967  0.3041
   38DOPE   C38 4871   5.897   6.070   3.897  0.2043 -0.4480  0.6594
   38DOPE   H8X 4872   5.834   6.141   3.841 -0.7971  0.2321  2.5676
   38DOPE   H8Y 4873   5.901   6.098   4.005  0.1614 -1.1157  0.8397
   38DOPE   C39 4874   5.841   5.940   3.880 -0.1764  0.2221  0.0788
   38DOPE   H9X 4875   5.760   5.936   3.805  0.9050 -2.2547 -1.0810
   38DOPE  C310 4876   5.867   5.830   3.960  0.2264 -0.2584  0.5237
   38DOPE  H10X 4877   5.801   5.742   3.956 -2.7301  1.8185  0.9501
   38DOPE  C311 4878   5.959   5.815   4.083  0.1934 -0.3583 -0.5001
   38DOPE  H11X 4879   6.046   5.751   4.060 -1.7101 -2.8199 -1.3284
   38DOPE  H11Y 4880   6.009   5.908   4.119  0.1086 -0.6987  0.5302
   38DOPE  C312 4881   5.888   5.768   4.209  0.1578 -0.5691  0.1554
   38DOPE  H12X 4882   5.793   5.815   4.242 -0.7355 -2.6991  0.7797
   38DOPE  H12Y 4883   5.959   5.795   4.290  1.1191 -2.0979 -0.1217
   38DOPE  C313 4884   5.876   5.617   4.218  0.2081 -0.0715  0.0813
   38DOPE  H13X 4885   5.768   5.593   4.206  0.2306 -0.4686  0.6599
   38DOPE  H13Y 4886   5.917   5.562   4.130 -0.1964 -0.7014  0.2801
   38DOPE  C314 4887   5.932   5.554   4.351 -0.0849  0.2320  0.0194
   38DOPE  H14X 4888   6.041   5.572   4.338  0.2422 -0.1539  1.9048
   38DOPE  H14Y 4889   5.919   5.444   4.341 -0.6344  0.2045  0.9754
   38DOPE  C315 4890   5.867   5.605   4.479 -0.2365 -0.1485  0.4389
   38DOPE  H15X 4891   5.763   5.633   4.451 -0.4097 -1.4501 -0.3306
   38DOPE  H15Y 4892   5.922   5.692   4.519 -0.9265 -0.1415  1.3950
   38DOPE  C316 4893   5.873   5.489   4.576 -0.1357 -1.0173  0.2536
   38DOPE  H16X 4894   5.982   5.475   4.593  0.2666  1.9632  0.7520
   38DOPE  H16Y 4895   5.813   5.404   4.537  0.4255 -2.9984  3.3993
   38DOPE  C317 4896   5.802   5.519   4.717 -0.5382  0.4900  0.4652
   38DOPE  H17X 4897   5.857   5.451   4.786  0.5867 -1.2484 -1.9775
   38DOPE  H17Y 4898   5.817   5.625   4.745 -1.7423  1.4150 -2.0739
   38DOPE  C318 4899   5.658   5.490   4.717 -0.6551 -0.1566 -0.0500
   38DOPE  H18X 4900   5.623   5.502   4.822  0.1287 -0.0216  0.2007
   38DOPE  H18Y 4901   5.603   5.570   4.662  0.7312  0.5971 -0.3774
   38DOPE  H18Z 4902   5.639   5.385   4.685 -3.0510 -0.2863  1.5060
   39DOPE     N 4903   1.316   2.704   2.725 -0.9416  0.4892 -0.1426
   39DOPE   HN1 4904   1.374   2.640   2.667  1.7767  2.3341  0.4123
   39DOPE   HN2 4905   1.298   2.786   2.665 -0.5989  1.3267  0.8722
   39DOPE   HN3 4906   1.371   2.726   2.810 -1.1822 -1.7821  0.6740
   39DOPE   C12 4907   1.199   2.625   2.769  0.4172 -0.2616 -0.0788
   39DOPE  H12A 4908   1.221   2.518   2.748  0.6608  0.2597 -2.8188
   39DOPE  H12B 4909   1.119   2.655   2.699  0.9057 -2.4691 -1.6938
   39DOPE   C11 4910   1.152   2.652   2.912  0.2832 -0.4166 -0.0649
   39DOPE  H11A 4911   1.214   2.596   2.985 -1.3712  1.7668  3.2652
   39DOPE  H11B 4912   1.053   2.602   2.917  0.5756 -0.8516  2.5808
   39DOPE     P 4913   0.999   2.857   2.951 -0.2852  0.1002  0.1232
   39DOPE   O13 4914   0.922   2.823   2.826  0.1837  0.0525  0.0948
   39DOPE   O14 4915   1.020   2.997   2.987 -0.7957  0.0531  0.1561
   39DOPE   O11 4916   0.930   2.778   3.071  0.1224  0.6477  0.4605
   39DOPE   O12 4917   1.144   2.794   2.935  0.7534  0.1331 -0.1901
   39DOPE    C1 4918   0.985   2.779   3.203 -0.0990 -0.0742  0.5863
   39DOPE    HA 4919   1.095   2.762   3.202 -0.0073  0.5223  0.2545
   39DOPE    HB 4920   0.959   2.691   3.265 -0.5510 -0.7021 -0.4613
   39DOPE    C2 4921   0.949   2.910   3.277  0.4764  0.3354 -0.1971
   39DOPE    HS 4922   0.993   2.998   3.225  1.2562 -1.1782 -2.1843
   39DOPE   O21 4923   1.015   2.910   3.402 -0.5232  0.6540 -0.1192
   39DOPE   C21 4924   1.031   3.019   3.463  0.3467  0.4173  0.5837
   39DOPE   O22 4925   1.015   3.132   3.422  0.0328  1.0051  0.3194
   39DOPE   C22 4926   1.049   2.992   3.612 -0.0164 -0.3571 -0.2596
   39DOPE   H2R 4927   1.095   3.085   3.652 -0.2674 -0.0030 -0.7861
   39DOPE   H2S 4928   1.110   2.900   3.628 -1.4418 -1.4229 -0.7401
   39DOPE    C3 4929   0.795   2.927   3.288  0.3980 -0.0411  0.3942
   39DOPE    HX 4930   0.755   2.825   3.304 -0.0031  0.1343  0.5221
   39DOPE    HY 4931   0.767   2.948   3.182 -0.8145 -0.9271  0.5264
   39DOPE   O31 4932   0.758   3.031   3.381 -0.0548  0.0613  0.0372
   39DOPE   C31 4933   0.716   3.146   3.335 -0.1186  0.0934 -0.0343
   39DOPE   O32 4934   0.724   3.179   3.216  0.6834  0.1912 -0.2762
   39DOPE   C32 4935   0.647   3.234   3.429 -0.2209  0.4769 -0.5844
   39DOPE   H2X 4936   0.728   3.295   3.474  0.0607  0.3643 -0.9388
   39DOPE   H2Y 4937   0.587   3.303   3.365  0.9784  1.6265 -0.5093
   39DOPE   C23 4938   0.913   2.965   3.680  0.6191 -0.4646 -0.7478
   39DOPE   H3R 4939   0.891   2.859   3.658 -0.2892 -0.6478  0.8968
   39DOPE   H3S 4940   0.828   3.028   3.648  2.0514  1.6995 -0.5295
   39DOPE   C24 4941   0.912   2.984   3.836 -0.3982  0.2864 -0.0394
   39DOPE   H4R 4942   0.975   2.906   3.884 -0.4965 -0.2321 -0.7432
   39DOPE   H4S 4943   0.807   2.960   3.865 -0.8250  0.4734 -1.3640
   39DOPE   C25 4944   0.941   3.129   3.878  0.2029  0.8837 -0.9466
   39DOPE   H5R 4945   0.916   3.200   3.797  4.8015  2.9778 -0.8274
   39DOPE   H5S 4946   1.051   3.139   3.887  0.4162 -1.1360 -0.7080
   39DOPE   C26 4947   0.874   3.159   4.014  0.1882  0.6965 -0.2998
   39DOPE   H6R 4948   0.894   3.070   4.078  0.6370  1.4929  0.6937
   39DOPE   H6S 4949   0.763   3.161   4.006  0.1893 -0.1861 -0.6797
   39DOPE   C27 4950   0.927   3.287   4.070 -0.2718  0.3834 -0.2086
   39DOPE   H7R 4951   0.923   3.372   3.999 -0.2148 -1.4189 -2.5006
   39DOPE   H7S 4952   1.036   3.277   4.091 -0.7031  0.1889  2.1713
   39DOPE   C28 4953   0.852   3.315   4.202 -0.3399  0.2387  0.7774
   39DOPE   H8R 4954   0.872   3.230   4.272  1.1016  0.5822  0.8002
   39DOPE   H8S 4955   0.744   3.315   4.177  0.1870  0.4678 -1.6591
   39DOPE   C29 4956   0.884   3.450   4.251 -0.1228  0.4239  0.2193
   39DOPE   H9R 4957   0.873   3.540   4.189  0.9750 -0.3815 -1.1984
   39DOPE  C210 4958   0.923   3.474   4.375 -0.3838  0.4446  0.6402
   39DOPE  H10R 4959   0.921   3.579   4.408 -1.1675  0.2143  1.3633
   39DOPE  C211 4960   0.932   3.368   4.485  0.1541 -0.1380  0.0887
   39DOPE  H11R 4961   1.033   3.321   4.486  1.2619  2.1059 -0.5434
   39DOPE  H11S 4962   0.855   3.288   4.482  1.3173 -1.3281  0.7213
   39DOPE  C212 4963   0.927   3.422   4.630  0.4666 -0.1652 -0.2940
   39DOPE  H12R 4964   0.926   3.334   4.697 -0.4228  1.0799  1.4159
   39DOPE  H12S 4965   0.828   3.474   4.626  0.5919  0.0961  0.0191
   39DOPE  C213 4966   1.052   3.507   4.658 -0.4172 -0.3514  0.1055
   39DOPE  H13R 4967   1.049   3.600   4.597  0.8561 -0.8311 -0.7372
   39DOPE  H13S 4968   1.139   3.453   4.615  0.4607  1.8450 -0.9884
   39DOPE  C214 4969   1.068   3.543   4.799  0.5810  0.4136 -0.4059
   39DOPE  H14R 4970   1.164   3.596   4.818  0.9157 -0.0794 -0.7089
   39DOPE  H14S 4971   1.080   3.452   4.861 -0.5965 -0.4922 -1.4713
   39DOPE  C215 4972   0.938   3.619   4.851  0.2577  0.2146 -0.4091
   39DOPE  H15R 4973   0.933   3.598   4.960  0.5177  1.7522 -0.0632
   39DOPE  H15S 4974   0.848   3.583   4.797  1.0216  0.6022 -2.0148
   39DOPE  C216 4975   0.943   3.773   4.846 -0.2129 -0.2375  0.7612
   39DOPE  H16R 4976   0.933   3.806   4.741  0.6081  0.6266  0.9409
   39DOPE  H16S 4977   1.040   3.811   4.883 -0.5920  1.3059  0.2411
   39DOPE  C217 4978   0.828   3.829   4.930 -0.1205 -0.4514  0.1481
   39DOPE  H17R 4979   0.735   3.787   4.885  0.8679 -0.8899 -1.5566
   39DOPE  H17S 4980   0.824   3.940   4.918 -1.0138 -0.2873  1.6223
   39DOPE  C218 4981   0.830   3.782   5.081 -0.2131 -0.2127  0.1716
   39DOPE  H18R 4982   0.793   3.867   5.141 -0.6630 -0.6034  0.4517
   39DOPE  H18S 4983   0.936   3.778   5.116 -0.2401 -1.7787  0.1654
   39DOPE  H18T 4984   0.784   3.682   5.097 -0.0265 -0.4454 -0.7089
   39DOPE   C33 4985   0.569   3.163   3.542 -0.1560 -0.0843  0.3624
   39DOPE   H3X 4986   0.634   3.087   3.590 -0.2820  0.0494  0.7502
   39DOPE   H3Y 4987   0.479   3.114   3.500  1.8996 -1.9154 -2.1399
   39DOPE   C34 4988   0.536   3.265   3.649 -0.4384 -0.3235 -0.3776
   39DOPE   H4X 4989   0.629   3.320   3.675 -0.2668  1.0707 -3.5127
   39DOPE   H4Y 4990   0.466   3.341   3.608  1.5241  0.8981 -1.6825
   39DOPE   C35 4991   0.484   3.186   3.772  0.2020 -0.3522  0.0462
   39DOPE   H5X 4992   0.573   3.122   3.791  1.1035  1.0402  0.6241
   39DOPE   H5Y 4993   0.393   3.124   3.753  0.5366 -0.7065 -0.4076
   39DOPE   C36 4994   0.475   3.264   3.900 -0.0380 -0.4359 -0.4364
   39DOPE   H6X 4995   0.560   3.335   3.914  0.3469 -0.7148 -1.3233
   39DOPE   H6Y 4996   0.476   3.189   3.982  1.1283 -1.8206 -1.6705
   39DOPE   C37 4997   0.336   3.339   3.898 -0.4185 -0.7615 -0.0963
   39DOPE   H7X 4998   0.320   3.398   3.804 -1.4208 -0.1442  0.4417
   39DOPE   H7Y 4999   0.261   3.258   3.887 -1.0122 -0.2860  0.3882
   39DOPE   C38 5000   0.299   3.432   4.017  0.0902 -1.0682 -0.5678
   39DOPE   H8X 5001   0.220   3.507   3.997  1.4467  1.3642  2.3297
   39DOPE   H8Y 5002   0.383   3.503   4.035 -0.5117 -0.4616 -0.1504
   39DOPE   C39 5003   0.267   3.342   4.142  0.0303 -0.1014 -0.1068
   39DOPE   H9X 5004   0.186   3.269   4.128 -0.4729  0.1647  1.3049
   39DOPE  C310 5005   0.331   3.346   4.260  0.1461  0.3246 -0.0413
   39DOPE  H10X 5006   0.289   3.282   4.339  0.0339 -0.7841 -0.9804
   39DOPE  C311 5007   0.452   3.436   4.298 -0.4000  0.2956 -0.1960
   39DOPE  H11X 5008   0.532   3.368   4.336 -0.5227  0.2704  0.0177
   39DOPE  H11Y 5009   0.490   3.488   4.208 -2.6493 -0.7032 -1.8281
   39DOPE  C312 5010   0.407   3.543   4.394  0.6073  0.0276 -0.2526
   39DOPE  H12X 5011   0.331   3.500   4.463 -0.5624  0.2758 -1.3556
   39DOPE  H12Y 5012   0.362   3.632   4.345 -1.4831 -0.9776 -0.2503
   39DOPE  C313 5013   0.502   3.598   4.497 -0.3323 -0.0724 -0.7945
   39DOPE  H13X 5014   0.538   3.510   4.555 -1.0169 -1.0234 -1.7657
   39DOPE  H13Y 5015   0.586   3.634   4.435 -0.3764  0.3663 -0.6024
   39DOPE  C314 5016   0.426   3.704   4.578 -0.3340  0.4404 -0.0392
   39DOPE  H14X 5017   0.316   3.697   4.584 -0.2599  0.0986  1.3390
   39DOPE  H14Y 5018   0.470   3.804   4.562  1.5177 -0.0202  1.7089
   39DOPE  C315 5019   0.455   3.681   4.734  0.6416  0.0888  0.5197
   39DOPE  H15X 5020   0.563   3.682   4.760  0.2945  1.6981  2.1628
   39DOPE  H15Y 5021   0.417   3.580   4.759  0.2446  0.6113  2.1647
   39DOPE  C316 5022   0.397   3.791   4.820  0.3910  0.8040 -0.6440
   39DOPE  H16X 5023   0.289   3.776   4.839  0.4195  1.0824 -0.2473
   39DOPE  H16Y 5024   0.400   3.894   4.779 -3.0104  1.3922  0.2810
   39DOPE  C317 5025   0.466   3.794   4.954 -0.2187 -0.6496 -0.2482
   39DOPE  H17X 5026   0.497   3.693   4.990  1.7570 -0.2304 -0.6856
   39DOPE  H17Y 5027   0.550   3.866   4.950  0.0155 -0.8652  0.5057
   39DOPE  C318 5028   0.378   3.856   5.062 -0.1903 -0.4198 -0.3383
   39DOPE  H18X 5029   0.440   3.890   5.148 -1.4515 -0.1749  0.4923
   39DOPE  H18Y 5030   0.336   3.949   5.018 -0.7762 -0.5284 -0.0166
   39DOPE  H18Z 5031   0.297   3.788   5.097  0.8591 -1.0100  1.0450
   40DOPE     N 5032   4.983   7.649   2.871 -0.2875 -0.2929 -0.3023
   40DOPE   HN1 5033   4.937   7.584   2.805 -1.8447  2.0855 -1.7021
   40DOPE   HN2 5034   4.916   7.707   2.926  1.0980  1.7704 -0.6710
   40DOPE   HN3 5035   5.036   7.718   2.814 -1.7813  0.4455 -0.8515
   40DOPE   C12 5036   5.058   7.564   2.959  0.3471 -0.1291  0.3298
   40DOPE  H12A 5037   5.115   7.623   3.034 -0.0772  0.1977  0.3970
   40DOPE  H12B 5038   5.125   7.498   2.899  0.0071  0.0741 -0.2865
   40DOPE   C11 5039   4.970   7.467   3.043  0.8864 -0.3237 -0.7539
   40DOPE  H11A 5040   4.903   7.534   3.102 -1.7964 -2.1460 -1.5371
   40DOPE  H11B 5041   5.045   7.412   3.103  3.5576  3.5473 -0.1793
   40DOPE     P 5042   4.805   7.264   3.037 -0.2344 -0.0036 -0.0626
   40DOPE   O13 5043   4.829   7.143   2.956 -0.2972 -0.0401  0.2895
   40DOPE   O14 5044   4.661   7.318   3.046 -0.1842  0.6057 -0.5305
   40DOPE   O11 5045   4.874   7.248   3.180 -0.1567  0.6067 -0.4008
   40DOPE   O12 5046   4.890   7.383   2.963 -0.0920 -0.2260 -0.0149
   40DOPE    C1 5047   4.806   7.209   3.299  0.0519  0.1710 -0.0984
   40DOPE    HA 5048   4.711   7.267   3.300 -0.3283 -0.4429 -0.3411
   40DOPE    HB 5049   4.873   7.238   3.383 -1.2841  2.9196  0.1430
   40DOPE    C2 5050   4.776   7.052   3.303  0.2029 -0.1668 -0.3511
   40DOPE    HS 5051   4.718   7.023   3.213 -0.9291  0.5359  0.1409
   40DOPE   O21 5052   4.701   7.020   3.421  0.3215 -0.0696  0.2691
   40DOPE   C21 5053   4.580   7.065   3.438  0.2216 -0.9956 -0.0875
   40DOPE   O22 5054   4.517   7.144   3.365 -0.2152  0.6551 -0.1965
   40DOPE   C22 5055   4.536   7.019   3.576  0.4660 -0.2129 -0.1760
   40DOPE   H2R 5056   4.620   7.036   3.647  0.2312 -5.0502  1.6408
   40DOPE   H2S 5057   4.526   6.908   3.573 -2.0941 -0.0254 -1.5310
   40DOPE    C3 5058   4.907   6.960   3.299  0.8463 -0.1205 -0.4733
   40DOPE    HX 5059   4.987   7.009   3.358  0.9346  1.4502 -1.8378
   40DOPE    HY 5060   4.938   6.970   3.193  0.2278  0.3639 -0.6200
   40DOPE   O31 5061   4.879   6.820   3.328  0.9028  0.6791  0.3960
   40DOPE   C31 5062   4.821   6.743   3.238  0.0381  0.8848  0.4095
   40DOPE   O32 5063   4.805   6.775   3.122  0.0387  0.1277 -0.0965
   40DOPE   C32 5064   4.777   6.617   3.297  0.7372 -0.4945  0.5382
   40DOPE   H2X 5065   4.752   6.552   3.209  1.6830  2.1502 -1.8266
   40DOPE   H2Y 5066   4.861   6.562   3.344  2.0206 -1.4107 -2.5319
   40DOPE   C23 5067   4.407   7.088   3.633 -0.5171 -0.4944 -0.1401
   40DOPE   H3R 5068   4.320   7.051   3.574  0.6671 -0.9647 -1.6630
   40DOPE   H3S 5069   4.411   7.199   3.633  0.7457 -0.5212 -1.1399
   40DOPE   C24 5070   4.390   7.054   3.783 -0.0250  0.3537  0.5236
   40DOPE   H4R 5071   4.481   7.085   3.839  0.2512 -1.4953  1.1871
   40DOPE   H4S 5072   4.384   6.943   3.792 -0.4908  0.2397 -0.9528
   40DOPE   C25 5073   4.263   7.102   3.848  0.3828 -0.1581  0.5834
   40DOPE   H5R 5074   4.179   7.033   3.824  1.7442 -3.0916  3.4010
   40DOPE   H5S 5075   4.240   7.204   3.811 -3.0834 -1.7109 -2.0732
   40DOPE   C26 5076   4.273   7.102   4.001 -0.1892 -0.4117  0.5786
   40DOPE   H6R 5077   4.181   7.147   4.043 -0.9589  0.9060 -2.2891
   40DOPE   H6S 5078   4.362   7.161   4.032  0.2315  0.6778 -2.3888
   40DOPE   C27 5079   4.280   6.965   4.068  0.4107 -0.1763 -0.1068
   40DOPE   H7R 5080   4.381   6.919   4.054  1.6064  1.5292  2.1667
   40DOPE   H7S 5081   4.202   6.903   4.020  0.0217 -0.4679  0.8864
   40DOPE   C28 5082   4.245   6.956   4.218  0.8003 -0.3697  0.3434
   40DOPE   H8R 5083   4.141   6.992   4.230  0.3912 -0.9531 -1.1816
   40DOPE   H8S 5084   4.315   7.022   4.274  0.3826  0.2894  0.1021
   40DOPE   C29 5085   4.251   6.816   4.263 -0.0122  0.1007  0.0248
   40DOPE   H9R 5086   4.235   6.738   4.187  0.0937  0.0755  0.0269
   40DOPE  C210 5087   4.278   6.780   4.390  0.9538  0.6317 -0.5613
   40DOPE  H10R 5088   4.293   6.674   4.417 -0.2691  0.5327 -0.2206
   40DOPE  C211 5089   4.299   6.871   4.514 -0.0558  0.5669 -0.1633
   40DOPE  H11R 5090   4.363   6.956   4.484  2.1878 -1.0670 -0.2198
   40DOPE  H11S 5091   4.365   6.820   4.588  0.3071  0.6370 -0.4365
   40DOPE  C212 5092   4.167   6.921   4.581  0.3042 -0.4682 -0.0334
   40DOPE  H12R 5093   4.116   6.995   4.515  1.7955 -0.2731 -0.9880
   40DOPE  H12S 5094   4.197   6.976   4.673 -1.4578  1.7585 -0.6952
   40DOPE  C213 5095   4.071   6.812   4.613  0.1970 -0.3381  0.3508
   40DOPE  H13R 5096   4.127   6.741   4.677  1.5714 -0.8180 -1.2905
   40DOPE  H13S 5097   4.048   6.754   4.520 -0.6209 -1.8154  1.4332
   40DOPE  C214 5098   3.943   6.869   4.680  0.7373  0.1489 -0.2941
   40DOPE  H14R 5099   3.886   6.919   4.598  3.4748  2.2190 -1.0704
   40DOPE  H14S 5100   3.971   6.948   4.753  1.3053 -0.5852  0.2994
   40DOPE  C215 5101   3.858   6.764   4.746  0.6084  0.0518  0.0328
   40DOPE  H15R 5102   3.927   6.707   4.812  0.0918 -1.8721 -1.0182
   40DOPE  H15S 5103   3.818   6.691   4.673  0.7308 -1.1779  1.1461
   40DOPE  C216 5104   3.748   6.836   4.823 -0.7500  0.0930  0.4505
   40DOPE  H16R 5105   3.666   6.865   4.754 -0.2715  1.3214  0.3739
   40DOPE  H16S 5106   3.791   6.930   4.864 -1.0055  1.3271 -1.9534
   40DOPE  C217 5107   3.686   6.755   4.939 -0.0583 -0.0197 -0.4618
   40DOPE  H17R 5108   3.649   6.657   4.902 -4.5909  0.9385  0.9015
   40DOPE  H17S 5109   3.589   6.799   4.971 -1.2707 -1.0487 -2.5063
   40DOPE  C218 5110   3.770   6.736   5.064 -0.1951 -0.4487  0.2573
   40DOPE  H18R 5111   3.788   6.831   5.118 -0.5689 -1.1416  1.6618
   40DOPE  H18S 5112   3.868   6.686   5.046  0.1859  0.8499 -1.4976
   40DOPE  H18T 5113   3.704   6.677   5.132 -3.5906  0.8428 -1.7055
   40DOPE   C33 5114   4.653   6.619   3.392 -0.1273  0.1749  0.5791
   40DOPE   H3X 5115   4.579   6.542   3.362  0.5268 -0.7742  1.3355
   40DOPE   H3Y 5116   4.603   6.718   3.392  2.3819  1.7271  4.9438
   40DOPE   C34 5117   4.690   6.605   3.539 -0.0805  0.2782 -0.0993
   40DOPE   H4X 5118   4.599   6.583   3.598  0.4553  0.7004  0.9241
   40DOPE   H4Y 5119   4.759   6.517   3.545  1.3159  1.3538  0.2081
   40DOPE   C35 5120   4.774   6.718   3.594  0.2384  0.7849  0.1257
   40DOPE   H5X 5121   4.738   6.815   3.554  0.2252  0.9851  0.6123
   40DOPE   H5Y 5122   4.880   6.715   3.559  0.1170  0.9908 -0.2657
   40DOPE   C36 5123   4.773   6.739   3.749  0.0047 -0.7365 -0.3801
   40DOPE   H6X 5124   4.681   6.791   3.782 -0.7804 -2.4207  0.1991
   40DOPE   H6Y 5125   4.864   6.776   3.802 -0.8846  0.4448  0.3660
   40DOPE   C37 5126   4.763   6.605   3.830 -0.1143 -0.6094  0.5992
   40DOPE   H7X 5127   4.702   6.530   3.775  0.5257 -0.7078  0.0028
   40DOPE   H7Y 5128   4.867   6.566   3.839  0.5600  0.9463 -0.0640
   40DOPE   C38 5129   4.684   6.615   3.966 -0.1062  0.5725 -0.2145
   40DOPE   H8X 5130   4.667   6.512   4.003  2.2874  0.1961  0.0028
   40DOPE   H8Y 5131   4.587   6.665   3.942  0.7833  1.2815 -2.5983
   40DOPE   C39 5132   4.752   6.700   4.068 -0.1758 -0.1826  0.4013
   40DOPE   H9X 5133   4.810   6.778   4.016 -1.8351  0.9015  0.0819
   40DOPE  C310 5134   4.728   6.702   4.198  0.3767 -0.5573 -0.2891
   40DOPE  H10X 5135   4.772   6.782   4.260  0.0014  0.9373 -1.8823
   40DOPE  C311 5136   4.623   6.616   4.275 -0.1346  0.4110  0.0583
   40DOPE  H11X 5137   4.524   6.627   4.226 -0.4395  0.0048  0.5772
   40DOPE  H11Y 5138   4.658   6.511   4.267  1.7887  1.0386 -0.4214
   40DOPE  C312 5139   4.605   6.647   4.423  0.3924 -0.0071  0.0754
   40DOPE  H12X 5140   4.534   6.575   4.469 -1.2353  1.4873 -0.0038
   40DOPE  H12Y 5141   4.566   6.749   4.443 -0.5361 -0.3437  0.0285
   40DOPE  C313 5142   4.742   6.639   4.490 -0.6290  0.0347 -0.2242
   40DOPE  H13X 5143   4.798   6.553   4.446 -0.6641 -1.2758  2.1386
   40DOPE  H13Y 5144   4.796   6.733   4.466 -0.3244 -0.2039 -0.4919
   40DOPE  C314 5145   4.733   6.619   4.639  0.0453  0.0771 -0.1061
   40DOPE  H14X 5146   4.661   6.535   4.651  0.5816 -0.7615 -2.3148
   40DOPE  H14Y 5147   4.689   6.706   4.692  0.1358  0.0133  0.0742
   40DOPE  C315 5148   4.866   6.597   4.712  0.6756  0.1490  0.2266
   40DOPE  H15X 5149   4.932   6.686   4.700  0.8833 -0.1106 -0.6318
   40DOPE  H15Y 5150   4.923   6.516   4.663 -0.6757 -2.7873  3.1552
   40DOPE  C316 5151   4.855   6.573   4.862  0.4225  0.8625 -0.1896
   40DOPE  H16X 5152   4.952   6.548   4.909  0.4347 -1.6732 -1.3941
   40DOPE  H16Y 5153   4.797   6.478   4.862  0.5614  0.7775 -0.3182
   40DOPE  C317 5154   4.767   6.667   4.944 -0.4928 -0.3637  0.2692
   40DOPE  H17X 5155   4.799   6.770   4.916  0.1455 -0.7044 -0.2693
   40DOPE  H17Y 5156   4.662   6.651   4.912 -0.5756 -2.6708  1.5127
   40DOPE  C318 5157   4.786   6.636   5.093  0.6339 -0.1434 -0.2746
   40DOPE  H18X 5158   4.707   6.690   5.150 -0.5964 -0.5808 -1.4864
   40DOPE  H18Y 5159   4.775   6.528   5.120 -0.3670 -0.1188 -0.5177
   40DOPE  H18Z 5160   4.886   6.674   5.122 -0.1368  1.3529  0.5233
   41DOPE     N 5161   1.417   4.103   3.216 -0.8072  0.5670 -0.3206
   41DOPE   HN1 5162   1.398   4.033   3.290  3.3079  0.6697  1.0711
   41DOPE   HN2 5163   1.362   4.078   3.131 -0.8068  0.9460 -0.4363
   41DOPE   HN3 5164   1.518   4.090   3.197 -0.0392  2.6347  1.8742
   41DOPE   C12 5165   1.394   4.255   3.240 -0.1222 -0.1673 -0.9000
   41DOPE  H12A 5166   1.472   4.299   3.306 -0.4515  0.5345 -0.9768
   41DOPE  H12B 5167   1.295   4.277   3.286  0.0302 -0.6220 -0.3370
   41DOPE   C11 5168   1.406   4.329   3.110  0.0256 -0.0002 -0.2897
   41DOPE  H11A 5169   1.334   4.287   3.037 -0.4866 -0.5327  0.4919
   41DOPE  H11B 5170   1.506   4.327   3.063  0.7342 -0.6825  1.1799
   41DOPE     P 5171   1.415   4.586   3.059 -0.1301 -0.3686 -0.0755
   41DOPE   O13 5172   1.312   4.692   3.088  0.0159  0.1603  0.4986
   41DOPE   O14 5173   1.430   4.545   2.919  0.5191 -0.4899 -0.1064
   41DOPE   O11 5174   1.559   4.624   3.123  0.0623 -0.1136 -0.0119
   41DOPE   O12 5175   1.377   4.462   3.147  0.2438 -0.4780  0.3666
   41DOPE    C1 5176   1.573   4.676   3.250 -0.1398 -0.8337 -0.1139
   41DOPE    HA 5177   1.612   4.598   3.319  2.0109  1.0802  0.9598
   41DOPE    HB 5178   1.474   4.711   3.287  0.7392  1.2878  0.3817
   41DOPE    C2 5179   1.670   4.798   3.256  0.4175 -0.0980 -0.0966
   41DOPE    HS 5180   1.768   4.761   3.217  0.9472 -0.7222  1.7392
   41DOPE   O21 5181   1.673   4.864   3.383 -1.1462 -0.5515 -0.1892
   41DOPE   C21 5182   1.762   4.819   3.472  0.4029  0.5176 -0.0803
   41DOPE   O22 5183   1.846   4.732   3.446 -0.0818  0.5539 -0.6514
   41DOPE   C22 5184   1.763   4.898   3.596  0.2470  0.6970 -0.1693
   41DOPE   H2R 5185   1.663   4.938   3.624 -1.2393 -2.0258 -1.2070
   41DOPE   H2S 5186   1.832   4.983   3.578  0.7662  0.2149 -0.4506
   41DOPE    C3 5187   1.627   4.904   3.147 -0.3670 -0.1514 -0.3757
   41DOPE    HX 5188   1.518   4.921   3.158 -0.5409 -1.7350  0.7307
   41DOPE    HY 5189   1.639   4.846   3.053  0.2257  0.3673 -0.6254
   41DOPE   O31 5190   1.706   5.028   3.142 -0.3075 -0.3270 -0.3179
   41DOPE   C31 5191   1.838   5.021   3.116 -0.3201 -0.0559  0.2599
   41DOPE   O32 5192   1.891   4.927   3.064 -0.3958 -0.4883  0.2153
   41DOPE   C32 5193   1.901   5.140   3.180 -0.5823  0.0839  0.5749
   41DOPE   H2X 5194   1.911   5.224   3.108 -0.0812 -1.7780 -1.6430
   41DOPE   H2Y 5195   1.836   5.178   3.263  1.2685 -1.4218  2.8488
   41DOPE   C23 5196   1.815   4.823   3.719  0.5456  0.4279 -0.4251
   41DOPE   H3R 5197   1.923   4.799   3.709  0.1505 -1.2920 -0.9311
   41DOPE   H3S 5198   1.766   4.723   3.727  2.6790 -0.5227  1.9031
   41DOPE   C24 5199   1.785   4.911   3.848 -0.0476  0.1790  0.2266
   41DOPE   H4R 5200   1.676   4.931   3.843 -0.0503  0.0421 -0.4034
   41DOPE   H4S 5201   1.832   5.011   3.841 -1.3459  0.7552 -0.4855
   41DOPE   C25 5202   1.814   4.844   3.987  0.3161  0.2499  0.3320
   41DOPE   H5R 5203   1.922   4.861   4.007 -0.1026  2.3989  0.9931
   41DOPE   H5S 5204   1.785   4.739   3.969 -2.1483  1.1778 -1.7883
   41DOPE   C26 5205   1.721   4.910   4.091  0.0367  0.4576  0.0525
   41DOPE   H6R 5206   1.632   4.959   4.046  0.3492  1.0862  0.1043
   41DOPE   H6S 5207   1.782   4.992   4.136  0.1636  0.5846 -0.3490
   41DOPE   C27 5208   1.664   4.821   4.207 -0.4583  0.0276 -0.0238
   41DOPE   H7R 5209   1.583   4.753   4.174  0.5770 -0.0923 -2.5663
   41DOPE   H7S 5210   1.613   4.891   4.278 -2.1263 -0.5689 -0.5798
   41DOPE   C28 5211   1.774   4.749   4.286 -0.1575  0.0599  0.3370
   41DOPE   H8R 5212   1.803   4.673   4.210 -1.6864  1.1960 -1.4748
   41DOPE   H8S 5213   1.726   4.682   4.360 -0.6230 -1.4578 -1.2574
   41DOPE   C29 5214   1.891   4.833   4.341  1.0051  0.7709  0.4440
   41DOPE   H9R 5215   1.963   4.867   4.265 -0.2579  0.2309 -1.0299
   41DOPE  C210 5216   1.910   4.858   4.476 -0.6530  0.5239  0.5846
   41DOPE  H10R 5217   1.999   4.921   4.490 -1.1982  1.5441 -0.3529
   41DOPE  C211 5218   1.832   4.824   4.599 -0.0713 -0.0105 -0.1380
   41DOPE  H11R 5219   1.746   4.756   4.581  1.2274 -1.9723  0.7583
   41DOPE  H11S 5220   1.800   4.916   4.653  0.2842  1.5186 -2.3984
   41DOPE  C212 5221   1.934   4.755   4.699  0.3806  0.0826 -0.0963
   41DOPE  H12R 5222   1.890   4.760   4.800 -0.5106 -0.2519 -0.4550
   41DOPE  H12S 5223   2.032   4.808   4.697 -0.8092  2.3828 -1.0842
   41DOPE  C213 5224   1.951   4.614   4.657  0.1228  0.7525 -0.2688
   41DOPE  H13R 5225   1.954   4.608   4.546  0.3358  0.0804 -0.2320
   41DOPE  H13S 5226   1.864   4.553   4.688  0.5357  0.6339  0.7047
   41DOPE  C214 5227   2.071   4.544   4.727  0.3901  0.3488  0.0575
   41DOPE  H14R 5228   2.051   4.543   4.837  0.9125  0.7939  0.1632
   41DOPE  H14S 5229   2.154   4.618   4.724  0.6815  0.0173 -0.0993
   41DOPE  C215 5230   2.105   4.407   4.666  0.3226  1.0229  0.2436
   41DOPE  H15R 5231   2.192   4.360   4.717  1.1130  0.4824 -1.5222
   41DOPE  H15S 5232   2.111   4.417   4.556 -2.2162  2.9085  0.2106
   41DOPE  C216 5233   1.995   4.300   4.683  0.1182 -0.0165 -0.2229
   41DOPE  H16R 5234   1.918   4.316   4.604  1.1653 -0.9460 -1.4778
   41DOPE  H16S 5235   1.950   4.311   4.784  1.4857  1.0926  0.3063
   41DOPE  C217 5236   2.029   4.146   4.657  0.4552 -0.0686 -0.1812
   41DOPE  H17R 5237   1.934   4.091   4.674  0.9264 -2.3411 -3.7965
   41DOPE  H17S 5238   2.101   4.114   4.736 -2.1348  1.5150  3.0357
   41DOPE  C218 5239   2.089   4.131   4.519 -0.1059 -0.1401 -0.4075
   41DOPE  H18R 5240   2.098   4.022   4.502 -0.2961 -0.5294  1.6301
   41DOPE  H18S 5241   2.186   4.186   4.512 -0.0650  0.5517  3.2083
   41DOPE  H18T 5242   2.025   4.183   4.445  1.1272  1.2524 -0.5527
   41DOPE   C33 5243   2.038   5.116   3.245 -0.3060 -0.3815  0.0342
   41DOPE   H3X 5244   2.101   5.208   3.245 -1.2847  0.3083  0.8567
   41DOPE   H3Y 5245   2.110   5.049   3.192 -1.4890 -0.3181 -1.7443
   41DOPE   C34 5246   2.021   5.073   3.390 -0.2012 -0.0279 -0.1952
   41DOPE   H4X 5247   1.948   5.148   3.427 -0.5617  0.1176 -1.1548
   41DOPE   H4Y 5248   1.975   4.972   3.391 -1.4638  0.4934 -1.5651
   41DOPE   C35 5249   2.144   5.067   3.487  0.0584 -0.3286  0.2597
   41DOPE   H5X 5250   2.202   5.159   3.466 -0.8001  0.1608 -0.0007
   41DOPE   H5Y 5251   2.208   4.982   3.454  0.5091  0.4005 -0.7998
   41DOPE   C36 5252   2.108   5.059   3.634 -0.7938 -0.2487 -0.0190
   41DOPE   H6X 5253   2.067   4.957   3.646  2.0660 -2.2115 -4.3697
   41DOPE   H6Y 5254   2.022   5.127   3.651  0.1356  0.8537  0.4253
   41DOPE   C37 5255   2.227   5.092   3.724 -0.1370  0.4891  0.2423
   41DOPE   H7X 5256   2.304   5.016   3.702 -2.7839 -1.9269 -1.3460
   41DOPE   H7Y 5257   2.260   5.195   3.698 -1.0099  0.0605 -3.0779
   41DOPE   C38 5258   2.195   5.078   3.876  0.1984 -0.3159  0.1230
   41DOPE   H8X 5259   2.284   5.102   3.938  1.3575 -0.9501 -1.2441
   41DOPE   H8Y 5260   2.172   4.971   3.894 -0.8876  0.2778  2.8298
   41DOPE   C39 5261   2.082   5.173   3.920 -0.2602 -0.2154  0.2276
   41DOPE   H9X 5262   2.003   5.197   3.847 -0.1620  1.3481  0.5852
   41DOPE  C310 5263   2.057   5.224   4.038 -0.2071 -0.5589 -0.0111
   41DOPE  H10X 5264   1.974   5.295   4.054  0.1612 -0.0045 -0.5050
   41DOPE  C311 5265   2.138   5.202   4.161  0.7015 -0.8388 -0.3162
   41DOPE  H11X 5266   2.083   5.128   4.224 -1.5407  1.6553  0.8618
   41DOPE  H11Y 5267   2.242   5.170   4.136  0.4184 -2.7653  0.7705
   41DOPE  C312 5268   2.140   5.338   4.245 -0.0665  0.4028 -0.0615
   41DOPE  H12X 5269   2.035   5.359   4.277  0.0684  2.8593 -0.9840
   41DOPE  H12Y 5270   2.173   5.425   4.184 -1.7075  0.5359 -0.8272
   41DOPE  C313 5271   2.231   5.324   4.372  1.0389  0.1846 -0.1836
   41DOPE  H13X 5272   2.337   5.307   4.342  1.2714  1.8673 -0.4649
   41DOPE  H13Y 5273   2.247   5.425   4.418  0.1366  0.7259 -1.0210
   41DOPE  C314 5274   2.176   5.218   4.475 -0.6450  0.4468 -0.2600
   41DOPE  H14X 5275   2.175   5.113   4.438 -1.5140 -0.7172  2.7744
   41DOPE  H14Y 5276   2.075   5.253   4.504 -0.2888  0.1489  1.4743
   41DOPE  C315 5277   2.241   5.230   4.618 -0.1036 -0.6749  0.2776
   41DOPE  H15X 5278   2.229   5.337   4.644  1.2287  0.1641 -2.2224
   41DOPE  H15Y 5279   2.351   5.215   4.615 -0.2244 -1.6150  0.2677
   41DOPE  C316 5280   2.181   5.149   4.733  0.6838  0.2152  0.1248
   41DOPE  H16X 5281   2.233   5.191   4.822 -0.0787  0.3274  0.5230
   41DOPE  H16Y 5282   2.198   5.041   4.714 -0.2325  0.2230 -0.8486
   41DOPE  C317 5283   2.028   5.175   4.762  0.1034  0.6771  1.3101
   41DOPE  H17X 5284   2.021   5.285   4.772  1.2846  1.1365 -1.8354
   41DOPE  H17Y 5285   1.965   5.151   4.673  0.2685 -0.1060  1.3971
   41DOPE  C318 5286   1.955   5.101   4.879 -0.4349  0.1314 -1.0142
   41DOPE  H18X 5287   1.938   4.996   4.848  0.6504 -0.2684 -0.2992
   41DOPE  H18Y 5288   2.010   5.107   4.975  0.2436 -0.4197 -1.3612
   41DOPE  H18Z 5289   1.856   5.147   4.899  0.3687  0.8633  1.6880
   42DOPE     N 5290   0.726   4.020   2.906 -0.0793 -0.1943  0.0908
   42DOPE   HN1 5291   0.781   4.101   2.942 -0.6063 -1.0004  2.9741
   42DOPE   HN2 5292   0.643   4.056   2.854  1.3159 -0.8049 -2.7730
   42DOPE   HN3 5293   0.673   3.976   2.984  0.2881  0.2276  0.5863
   42DOPE   C12 5294   0.802   3.922   2.810  0.0892 -0.1895 -0.3909
   42DOPE  H12A 5295   0.837   3.979   2.721  0.6934 -0.0425 -0.0620
   42DOPE  H12B 5296   0.731   3.845   2.773  1.9882 -1.7145 -1.0362
   42DOPE   C11 5297   0.909   3.834   2.876 -0.2719 -0.5252  0.3066
   42DOPE  H11A 5298   0.938   3.751   2.808 -1.4095  0.4547 -1.4495
   42DOPE  H11B 5299   0.854   3.808   2.969 -0.4435  0.0063  0.3615
   42DOPE     P 5300   1.118   3.886   3.028  0.1967 -0.2672  0.0693
   42DOPE   O13 5301   1.197   4.011   3.050  0.3552  0.6367  0.2461
   42DOPE   O14 5302   1.189   3.765   2.995 -0.3704  0.1106  0.2138
   42DOPE   O11 5303   1.014   3.866   3.152 -0.1997  0.2483 -0.8046
   42DOPE   O12 5304   1.021   3.919   2.906 -0.5907  0.5362  0.2516
   42DOPE    C1 5305   0.951   3.988   3.203 -0.3919  0.0378  0.7303
   42DOPE    HA 5306   0.852   3.968   3.249 -0.7417  2.4143  1.1764
   42DOPE    HB 5307   0.928   4.054   3.117  0.9217  0.8231  0.9490
   42DOPE    C2 5308   1.033   4.065   3.315 -0.0000 -0.0743 -0.8185
   42DOPE    HS 5309   1.122   4.107   3.264 -0.3261 -1.4075 -2.5668
   42DOPE   O21 5310   1.055   3.966   3.422  0.3528  0.3949 -0.1729
   42DOPE   C21 5311   1.166   3.991   3.485 -1.2574  0.4006  0.3232
   42DOPE   O22 5312   1.243   4.083   3.463  0.9117  0.2257 -0.0013
   42DOPE   C22 5313   1.172   3.893   3.601 -0.0646  0.0148 -0.2558
   42DOPE   H2R 5314   1.276   3.853   3.603  0.7346  1.7726 -2.1429
   42DOPE   H2S 5315   1.110   3.803   3.582  1.1870 -1.3007  1.5364
   42DOPE    C3 5316   0.944   4.183   3.362 -0.1555 -0.3149 -0.6669
   42DOPE    HX 5317   0.878   4.138   3.440  2.3326  0.0419  1.8236
   42DOPE    HY 5318   0.880   4.226   3.283  0.3219  3.1680  0.6561
   42DOPE   O31 5319   1.023   4.289   3.428  0.2494 -0.2395  0.0963
   42DOPE   C31 5320   1.061   4.387   3.343  0.1666 -0.7752 -0.4730
   42DOPE   O32 5321   1.058   4.370   3.219 -0.1515  0.1811 -0.7652
   42DOPE   C32 5322   1.123   4.507   3.413 -0.1463 -0.8246  0.4866
   42DOPE   H2X 5323   1.182   4.562   3.337 -1.5831  1.4671  0.9475
   42DOPE   H2Y 5324   1.051   4.588   3.440 -1.9778 -2.7140  1.6054
   42DOPE   C23 5325   1.138   3.954   3.738 -0.6881  0.2799 -0.3881
   42DOPE   H3R 5326   1.032   3.989   3.733 -0.4357  1.1807  0.2716
   42DOPE   H3S 5327   1.198   4.040   3.775 -2.4754  1.5602 -0.3284
   42DOPE   C24 5328   1.165   3.849   3.846  0.0664 -0.3472 -0.0738
   42DOPE   H4R 5329   1.270   3.813   3.836  0.0363 -0.1961 -1.0294
   42DOPE   H4S 5330   1.099   3.761   3.829 -0.3129  0.0045 -0.4337
   42DOPE   C25 5331   1.142   3.905   3.990  0.0363  0.4871 -0.0252
   42DOPE   H5R 5332   1.119   3.810   4.043 -0.6663  1.6578  1.8707
   42DOPE   H5S 5333   1.052   3.971   3.996  0.8807  1.7875 -1.0956
   42DOPE   C26 5334   1.252   3.967   4.067 -0.7772  0.3501 -0.2757
   42DOPE   H6R 5335   1.286   4.065   4.027  0.4268  1.4913  3.1557
   42DOPE   H6S 5336   1.341   3.901   4.073 -1.1107  0.0055  1.7455
   42DOPE   C27 5337   1.203   3.992   4.212 -0.0462  0.6384 -0.2732
   42DOPE   H7R 5338   1.183   3.891   4.255 -0.1175  0.2723 -1.1380
   42DOPE   H7S 5339   1.114   4.058   4.212 -0.1795  0.4714  0.7579
   42DOPE   C28 5340   1.309   4.052   4.307  0.2048 -0.8226 -0.0929
   42DOPE   H8R 5341   1.326   4.158   4.275  0.1367 -0.5529  0.7450
   42DOPE   H8S 5342   1.405   3.996   4.302  1.6433  1.4506  0.1876
   42DOPE   C29 5343   1.242   4.052   4.443  0.1237 -0.0856 -0.1086
   42DOPE   H9R 5344   1.191   4.144   4.472 -1.9615 -0.3749 -2.5287
   42DOPE  C210 5345   1.268   3.958   4.534 -0.0997 -1.0379 -0.7527
   42DOPE  H10R 5346   1.237   3.989   4.635 -1.5219  0.1341 -1.5039
   42DOPE  C211 5347   1.370   3.840   4.523  0.5004 -0.5722  0.5624
   42DOPE  H11R 5348   1.476   3.868   4.505  0.4497  0.3906  1.6022
   42DOPE  H11S 5349   1.344   3.759   4.452  0.2806 -0.0126 -0.0066
   42DOPE  C212 5350   1.371   3.777   4.663  0.2721  1.0155  0.2878
   42DOPE  H12R 5351   1.421   3.678   4.656 -2.5732 -0.4956 -0.0055
   42DOPE  H12S 5352   1.268   3.747   4.691  0.5948 -1.5359 -0.9876
   42DOPE  C213 5353   1.453   3.847   4.770 -0.8947  0.2991 -0.8765
   42DOPE  H13R 5354   1.397   3.847   4.866  0.4774 -0.1951 -0.0491
   42DOPE  H13S 5355   1.477   3.954   4.748  0.2449  0.0900 -0.7017
   42DOPE  C214 5356   1.588   3.788   4.807 -0.7474  0.3614  0.2926
   42DOPE  H14R 5357   1.645   3.759   4.716 -0.2078  1.4257  0.2806
   42DOPE  H14S 5358   1.579   3.698   4.872 -1.3209 -0.5473 -0.9942
   42DOPE  C215 5359   1.685   3.884   4.883  0.6603  0.4421 -0.3289
   42DOPE  H15R 5360   1.712   3.955   4.801  1.9208 -1.6375 -1.8175
   42DOPE  H15S 5361   1.773   3.821   4.905  1.2278  0.9888 -0.9720
   42DOPE  C216 5362   1.634   3.944   5.018 -0.3880  0.6114 -0.3245
   42DOPE  H16R 5363   1.590   3.858   5.073  0.8263 -0.2401 -0.6389
   42DOPE  H16S 5364   1.568   4.029   4.992 -1.0743  0.0608 -0.4078
   42DOPE  C217 5365   1.743   4.002   5.112  0.8303 -0.6599 -0.1000
   42DOPE  H17R 5366   1.779   4.099   5.070 -0.8396 -0.6729 -1.7148
   42DOPE  H17S 5367   1.826   3.929   5.106  1.6727  0.4063 -2.5175
   42DOPE  C218 5368   1.693   4.015   5.251  0.1899 -0.1480  0.4726
   42DOPE  H18R 5369   1.772   4.064   5.311  1.2718 -1.7820  0.4435
   42DOPE  H18S 5370   1.674   3.919   5.304 -2.2790 -0.0143 -0.0181
   42DOPE  H18T 5371   1.597   4.070   5.262 -0.2553 -0.8169  0.0365
   42DOPE   C33 5372   1.212   4.477   3.526  0.2087 -0.2081  0.3803
   42DOPE   H3X 5373   1.250   4.373   3.521 -1.6376 -0.8622 -0.8698
   42DOPE   H3Y 5374   1.145   4.484   3.615  0.0887  1.4534  0.1944
   42DOPE   C34 5375   1.345   4.556   3.533 -0.4716  0.6019 -0.0221
   42DOPE   H4X 5376   1.398   4.535   3.438  0.5838  1.9928  0.2413
   42DOPE   H4Y 5377   1.317   4.663   3.537  2.3677  1.3901  0.4432
   42DOPE   C35 5378   1.439   4.525   3.652  0.4697  0.7989  0.3267
   42DOPE   H5X 5379   1.519   4.603   3.651 -0.7800  2.1634  1.6028
   42DOPE   H5Y 5380   1.482   4.423   3.642  0.5759  0.8304  0.4466
   42DOPE   C36 5381   1.366   4.551   3.786  0.1561  0.8257  0.3505
   42DOPE   H6X 5382   1.309   4.461   3.819 -0.9278  0.4422 -2.3909
   42DOPE   H6Y 5383   1.284   4.623   3.769 -0.4015  0.2837  0.6591
   42DOPE   C37 5384   1.471   4.590   3.902  0.2109  0.6039  0.1472
   42DOPE   H7X 5385   1.514   4.691   3.882  1.3749  0.1304  0.1761
   42DOPE   H7Y 5386   1.415   4.607   3.997  3.8586  0.1099  2.5749
   42DOPE   C38 5387   1.584   4.497   3.935  0.4082  0.4074  0.8242
   42DOPE   H8X 5388   1.656   4.555   3.996 -0.4640  1.3876  0.9527
   42DOPE   H8Y 5389   1.650   4.475   3.849 -0.8128  1.7383 -0.5059
   42DOPE   C39 5390   1.549   4.360   3.986 -0.5426  0.1817  0.0540
   42DOPE   H9X 5391   1.505   4.288   3.915  1.7856 -1.8336  0.5147
   42DOPE  C310 5392   1.568   4.325   4.116  0.4148 -0.2299 -0.2812
   42DOPE  H10X 5393   1.535   4.226   4.148  1.1076 -0.8392 -1.3894
   42DOPE  C311 5394   1.618   4.419   4.222 -0.2596  0.4529  0.2936
   42DOPE  H11X 5395   1.729   4.433   4.223 -0.0089 -1.1572 -0.6188
   42DOPE  H11Y 5396   1.575   4.518   4.196 -2.9101 -0.5415  0.6235
   42DOPE  C312 5397   1.551   4.381   4.351  0.1173 -0.0244  0.7183
   42DOPE  H12X 5398   1.589   4.281   4.380  0.8880 -0.3815 -1.3172
   42DOPE  H12Y 5399   1.442   4.367   4.341  0.2099 -0.2707 -0.0603
   42DOPE  C313 5400   1.571   4.481   4.463 -0.2713  0.7709  0.1432
   42DOPE  H13X 5401   1.678   4.497   4.489 -0.2241  1.9821 -0.7330
   42DOPE  H13Y 5402   1.528   4.578   4.432 -0.7039  0.1129 -1.4637
   42DOPE  C314 5403   1.505   4.424   4.582 -0.5867 -0.0869 -0.8269
   42DOPE  H14X 5404   1.417   4.358   4.567 -1.2906  0.7999 -0.6389
   42DOPE  H14Y 5405   1.472   4.503   4.653  1.8843  0.1137  0.1944
   42DOPE  C315 5406   1.601   4.343   4.677  0.6914  0.0775  0.3229
   42DOPE  H15X 5407   1.690   4.397   4.716  1.4546 -0.7079 -0.2912
   42DOPE  H15Y 5408   1.634   4.260   4.610 -0.2176  0.2721 -0.3805
   42DOPE  C316 5409   1.523   4.292   4.803  0.3862 -0.3230  0.3746
   42DOPE  H16X 5410   1.569   4.205   4.853 -0.2968 -0.4846  0.7392
   42DOPE  H16Y 5411   1.420   4.260   4.775  0.1797 -0.4975  1.2995
   42DOPE  C317 5412   1.492   4.399   4.911 -0.2864 -0.6519  0.2512
   42DOPE  H17X 5413   1.577   4.460   4.948 -1.3992  1.9091 -1.1402
   42DOPE  H17Y 5414   1.419   4.474   4.873  0.8578  0.3557 -0.0590
   42DOPE  C318 5415   1.425   4.330   5.028  0.4798  0.7911 -0.2725
   42DOPE  H18X 5416   1.333   4.273   5.002  1.2679 -0.1683 -1.0476
   42DOPE  H18Y 5417   1.490   4.246   5.061  0.2475  1.6750  2.7673
   42DOPE  H18Z 5418   1.397   4.397   5.112 -0.6973  0.6000 -0.4828
   43DOPE     N 5419   0.398   2.390   3.327  0.2205  0.3297  0.3781
   43DOPE   HN1 5420   0.411   2.297   3.282  0.4354  0.7529 -0.4329
   43DOPE   HN2 5421   0.372   2.372   3.427  2.0351 -1.2070  0.6299
   43DOPE   HN3 5422   0.319   2.444   3.286  0.4457  0.6355  0.3482
   43DOPE   C12 5423   0.534   2.465   3.330  0.5455  0.1218  0.1927
   43DOPE  H12A 5424   0.608   2.409   3.393 -0.4918  0.1902  1.5172
   43DOPE  H12B 5425   0.501   2.564   3.367 -1.1452  0.1406 -1.2267
   43DOPE   C11 5426   0.582   2.470   3.181  0.4446 -0.5232 -0.6570
   43DOPE  H11A 5427   0.678   2.527   3.178  0.7283 -0.8486  1.1149
   43DOPE  H11B 5428   0.512   2.531   3.120  3.1857  0.8980 -2.6181
   43DOPE     P 5429   0.645   2.318   2.983  0.0386  0.0576  0.3003
   43DOPE   O13 5430   0.659   2.441   2.907 -0.2302 -0.2556 -0.1166
   43DOPE   O14 5431   0.545   2.230   2.914 -0.0140 -0.0709 -0.1869
   43DOPE   O11 5432   0.783   2.250   2.998  0.1655  0.1962 -0.2800
   43DOPE   O12 5433   0.602   2.341   3.132 -0.2777 -0.1935  0.1671
   43DOPE    C1 5434   0.894   2.324   3.054  0.1803  0.2328 -0.1047
   43DOPE    HA 5435   0.871   2.432   3.042 -1.2624 -0.3051 -3.0268
   43DOPE    HB 5436   0.985   2.292   2.999 -0.4272 -1.8487  0.0049
   43DOPE    C2 5437   0.899   2.291   3.205  0.0773  0.1853 -0.0066
   43DOPE    HS 5438   0.808   2.328   3.257 -0.2584 -2.0657  1.1655
   43DOPE   O21 5439   1.011   2.358   3.254  0.0855  0.4904  0.4109
   43DOPE   C21 5440   1.000   2.417   3.372  0.2877 -0.2920 -0.4645
   43DOPE   O22 5441   0.905   2.410   3.450 -0.1296 -0.4040  0.7083
   43DOPE   C22 5442   1.131   2.487   3.391 -0.6170 -0.2346 -0.6993
   43DOPE   H2R 5443   1.158   2.541   3.298  0.4992  1.3107  0.4763
   43DOPE   H2S 5444   1.213   2.415   3.407  0.7416  0.6331 -3.2555
   43DOPE    C3 5445   0.906   2.141   3.244  0.1689  0.0621 -0.5879
   43DOPE    HX 5446   0.999   2.102   3.198 -1.2437 -2.1308 -1.7635
   43DOPE    HY 5447   0.821   2.085   3.199 -0.5980  0.6166  0.1328
   43DOPE   O31 5448   0.917   2.117   3.391 -0.7895 -0.3298  0.5263
   43DOPE   C31 5449   0.787   2.117   3.445 -0.4418  0.1791  0.1919
   43DOPE   O32 5450   0.680   2.128   3.385  0.5621  0.1729  0.2011
   43DOPE   C32 5451   0.792   2.085   3.598 -0.0265 -0.4833  0.2592
   43DOPE   H2X 5452   0.809   1.977   3.617 -1.1047 -0.3140  2.5905
   43DOPE   H2Y 5453   0.879   2.139   3.639 -0.1830  0.5959 -0.7535
   43DOPE   C23 5454   1.125   2.593   3.507 -0.1054 -0.7829  0.2990
   43DOPE   H3R 5455   1.023   2.635   3.520  0.7086  1.4144  0.0484
   43DOPE   H3S 5456   1.188   2.678   3.473 -0.2538 -1.1036 -0.8185
   43DOPE   C24 5457   1.180   2.540   3.633 -0.6757  0.0133 -0.6829
   43DOPE   H4R 5458   1.150   2.622   3.702 -0.2472  0.3477 -0.8923
   43DOPE   H4S 5459   1.291   2.536   3.637 -0.5898  1.2839 -1.3778
   43DOPE   C25 5460   1.128   2.409   3.687 -0.7571 -0.5177 -0.2715
   43DOPE   H5R 5461   1.176   2.327   3.630  1.9404 -0.9458  2.3611
   43DOPE   H5S 5462   1.019   2.399   3.669 -0.9810 -0.6614  1.0794
   43DOPE   C26 5463   1.145   2.402   3.837  0.0823  0.1145  0.4309
   43DOPE   H6R 5464   1.102   2.496   3.878  0.0049  1.2013 -2.0038
   43DOPE   H6S 5465   1.252   2.398   3.867  0.7530 -1.3884 -1.9169
   43DOPE   C27 5466   1.087   2.277   3.904  0.2494 -0.4122  0.6054
   43DOPE   H7R 5467   1.123   2.188   3.848  2.0521  0.6691 -0.0339
   43DOPE   H7S 5468   0.977   2.286   3.891  0.1046 -0.0963  1.9071
   43DOPE   C28 5469   1.120   2.259   4.056  0.0235 -0.3366  0.1184
   43DOPE   H8R 5470   1.227   2.288   4.059 -0.1035  0.2512 -0.7242
   43DOPE   H8S 5471   1.109   2.151   4.082  0.0694 -1.0941 -2.6678
   43DOPE   C29 5472   1.029   2.354   4.133 -0.0774 -0.1915 -0.0827
   43DOPE   H9R 5473   0.923   2.324   4.131 -0.0823 -0.1574 -0.7719
   43DOPE  C210 5474   1.068   2.468   4.199 -0.1707 -0.9007 -0.2267
   43DOPE  H10R 5475   0.993   2.526   4.254  1.5196  0.0577  1.1660
   43DOPE  C211 5476   1.205   2.536   4.214  0.1157  0.4632  0.5868
   43DOPE  H11R 5477   1.194   2.645   4.195 -1.4667 -0.0001 -1.6342
   43DOPE  H11S 5478   1.277   2.503   4.136  0.2022 -2.5009  1.7796
   43DOPE  C212 5479   1.284   2.505   4.345  0.2649  0.0101 -0.2209
   43DOPE  H12R 5480   1.382   2.556   4.327  0.4032  0.8761  2.5962
   43DOPE  H12S 5481   1.286   2.396   4.361 -1.6278 -0.0184  0.0047
   43DOPE  C213 5482   1.227   2.584   4.459 -0.2474  0.1284 -0.0352
   43DOPE  H13R 5483   1.120   2.562   4.478  0.0211  0.9199  2.9852
   43DOPE  H13S 5484   1.236   2.690   4.430 -0.1997  0.1561  0.0795
   43DOPE  C214 5485   1.307   2.569   4.584  0.3594 -0.6780 -0.0918
   43DOPE  H14R 5486   1.406   2.620   4.585  0.3319 -0.4187  3.8741
   43DOPE  H14S 5487   1.332   2.464   4.613 -0.9173 -0.1016  3.6155
   43DOPE  C215 5488   1.241   2.635   4.707  0.4347  0.0912  0.6790
   43DOPE  H15R 5489   1.142   2.584   4.718  1.8189 -3.8579 -2.4778
   43DOPE  H15S 5490   1.222   2.741   4.681 -2.9234 -0.8662 -1.4832
   43DOPE  C216 5491   1.330   2.619   4.826 -0.6748 -0.1264  0.2327
   43DOPE  H16R 5492   1.431   2.657   4.798 -0.4153 -0.5063  0.6386
   43DOPE  H16S 5493   1.341   2.510   4.838  1.2391 -0.1336 -1.1395
   43DOPE  C217 5494   1.283   2.687   4.954  0.1792 -0.1567  1.3043
   43DOPE  H17R 5495   1.276   2.796   4.937  0.0428 -0.3028  0.3617
   43DOPE  H17S 5496   1.362   2.672   5.030  2.0541  0.1328 -0.5007
   43DOPE  C218 5497   1.145   2.632   4.998 -0.0720 -1.3147  0.9405
   43DOPE  H18R 5498   1.140   2.523   4.976 -0.9759 -1.1028 -0.0203
   43DOPE  H18S 5499   1.058   2.660   4.935 -0.4367 -4.2320 -0.0288
   43DOPE  H18T 5500   1.122   2.651   5.105 -0.5925 -0.1306  0.6270
   43DOPE   C33 5501   0.673   2.135   3.679  0.6663  0.5458  0.6052
   43DOPE   H3X 5502   0.580   2.086   3.643 -1.5402  3.5389  1.7605
   43DOPE   H3Y 5503   0.664   2.244   3.661 -0.0340  0.2311 -1.1711
   43DOPE   C34 5504   0.677   2.093   3.827 -1.1604 -0.4172 -0.5139
   43DOPE   H4X 5505   0.675   1.982   3.828 -2.0154 -0.4083  0.0269
   43DOPE   H4Y 5506   0.766   2.124   3.885 -1.7773 -0.3676  0.4347
   43DOPE   C35 5507   0.570   2.150   3.922  0.4374 -0.1127 -0.7520
   43DOPE   H5X 5508   0.471   2.141   3.873 -0.5817  2.0582  0.7839
   43DOPE   H5Y 5509   0.588   2.260   3.930 -1.6984  0.3029 -1.1174
   43DOPE   C36 5510   0.558   2.086   4.058 -0.8356 -0.4125  0.2317
   43DOPE   H6X 5511   0.542   1.977   4.045 -0.5221 -0.2863 -1.5983
   43DOPE   H6Y 5512   0.466   2.138   4.091  0.6440  2.1263  0.5851
   43DOPE   C37 5513   0.665   2.084   4.162 -0.0432  0.6859 -0.0884
   43DOPE   H7X 5514   0.758   2.030   4.133  0.5858  1.2018  0.8990
   43DOPE   H7Y 5515   0.698   2.190   4.169  1.1755  0.2707  1.0538
   43DOPE   C38 5516   0.637   2.036   4.311  0.3760 -0.7606 -0.7669
   43DOPE   H8X 5517   0.624   1.926   4.302  0.9810 -0.8510 -0.6262
   43DOPE   H8Y 5518   0.537   2.079   4.333  0.0812 -1.9146  0.2820
   43DOPE   C39 5519   0.744   2.085   4.406  0.0736  0.1171 -0.0901
   43DOPE   H9X 5520   0.848   2.063   4.378  0.1349  0.0225  0.2010
   43DOPE  C310 5521   0.729   2.132   4.531  0.3608  0.1576 -0.1907
   43DOPE  H10X 5522   0.820   2.147   4.591  0.0122  1.6478 -0.0058
   43DOPE  C311 5523   0.604   2.161   4.616  0.4063  0.4973 -0.8532
   43DOPE  H11X 5524   0.604   2.266   4.652  1.5712 -0.0667  0.9888
   43DOPE  H11Y 5525   0.510   2.139   4.561 -0.4801 -2.3149  1.4711
   43DOPE  C312 5526   0.595   2.078   4.751 -0.5902  0.1371  0.3113
   43DOPE  H12X 5527   0.657   1.986   4.753  1.0277  1.1877  1.9411
   43DOPE  H12Y 5528   0.489   2.047   4.755 -0.4552 -0.9121 -2.3140
   43DOPE  C313 5529   0.634   2.160   4.875 -0.0532 -0.3271  0.0705
   43DOPE  H13X 5530   0.559   2.238   4.897 -0.0440 -1.0999  3.3232
   43DOPE  H13Y 5531   0.638   2.095   4.965 -1.5268  0.8753  1.0372
   43DOPE  C314 5532   0.777   2.221   4.875 -0.6133 -0.0344  0.0920
   43DOPE  H14X 5533   0.777   2.295   4.792  1.3771 -1.0166 -0.8503
   43DOPE  H14Y 5534   0.858   2.149   4.852 -0.4960 -0.1566  0.8690
   43DOPE  C315 5535   0.823   2.305   5.002  0.1825 -0.8050  0.0067
   43DOPE  H15X 5536   0.742   2.375   5.033  1.3869  0.1169  1.1790
   43DOPE  H15Y 5537   0.915   2.363   4.978 -0.2090 -0.1589  0.0354
   43DOPE  C316 5538   0.849   2.238   5.134  0.0603 -0.1803  0.5417
   43DOPE  H16X 5539   0.757   2.182   5.164  0.9440 -0.8751  2.0722
   43DOPE  H16Y 5540   0.867   2.311   5.216 -1.5252  1.4384 -0.4685
   43DOPE  C317 5541   0.955   2.134   5.128 -0.1076  0.1887 -0.0254
   43DOPE  H17X 5542   0.949   2.069   5.218 -3.3610  0.4120  0.0391
   43DOPE  H17Y 5543   0.941   2.064   5.043 -1.8886 -0.6792  0.9358
   43DOPE  C318 5544   1.095   2.183   5.112 -1.5372 -0.2044 -0.0378
   43DOPE  H18X 5545   1.163   2.098   5.092 -1.1627  0.6789 -2.9879
   43DOPE  H18Y 5546   1.103   2.258   5.030 -1.7349 -0.0351  0.0963
   43DOPE  H18Z 5547   1.128   2.228   5.208  1.3158 -0.9416 -0.5893
   44DOPE     N 5548   2.229   0.498   3.150 -0.7066  0.2874  0.0604
   44DOPE   HN1 5549   2.317   0.461   3.192  1.3192  4.1343 -0.3880
   44DOPE   HN2 5550   2.145   0.448   3.185  0.3021  0.0188  2.2585
   44DOPE   HN3 5551   2.237   0.473   3.049 -0.2884  0.9740 -0.0808
   44DOPE   C12 5552   2.213   0.641   3.185  0.5160  0.1893  0.0099
   44DOPE  H12A 5553   2.230   0.662   3.293 -2.2636 -0.6630  0.6823
   44DOPE  H12B 5554   2.104   0.659   3.176  0.3498 -1.4474 -1.9186
   44DOPE   C11 5555   2.304   0.723   3.097 -0.2748 -0.7055  0.6922
   44DOPE  H11A 5556   2.287   0.832   3.113 -2.5917 -0.5307 -2.0880
   44DOPE  H11B 5557   2.277   0.708   2.990 -2.3423  2.0116  0.7058
   44DOPE     P 5558   2.558   0.755   3.029 -0.0365  0.1598  0.2077
   44DOPE   O13 5559   2.496   0.857   2.940  0.5141  0.7482 -0.2678
   44DOPE   O14 5560   2.638   0.648   2.961 -0.1514 -0.0712  0.0032
   44DOPE   O11 5561   2.642   0.824   3.137 -0.1436 -0.8774 -0.2891
   44DOPE   O12 5562   2.441   0.688   3.121  0.3640 -0.0991 -0.4767
   44DOPE    C1 5563   2.676   0.764   3.261  0.5572  0.3131 -0.3221
   44DOPE    HA 5564   2.591   0.703   3.300  0.4036  1.7495  1.7397
   44DOPE    HB 5565   2.694   0.847   3.333 -1.5846  2.3028 -1.9007
   44DOPE    C2 5566   2.801   0.673   3.241 -0.1203 -0.0588  0.4299
   44DOPE    HS 5567   2.787   0.619   3.145 -0.8909 -2.7648  1.9729
   44DOPE   O21 5568   2.806   0.584   3.347 -0.2031  0.1698 -0.0723
   44DOPE   C21 5569   2.915   0.512   3.359  0.1884  0.2199  0.3758
   44DOPE   O22 5570   2.980   0.467   3.265 -0.2655  0.0941 -0.4000
   44DOPE   C22 5571   2.956   0.504   3.504 -0.2403 -0.0186 -0.3695
   44DOPE   H2R 5572   2.874   0.441   3.544 -1.3154  0.7975 -1.2326
   44DOPE   H2S 5573   2.947   0.609   3.538  1.2871  0.5736 -1.6506
   44DOPE    C3 5574   2.937   0.755   3.211  0.1208 -0.4500  0.1503
   44DOPE    HX 5575   2.903   0.828   3.135 -0.3603 -1.0808 -0.2454
   44DOPE    HY 5576   3.013   0.686   3.169  0.1309 -0.8859  0.8711
   44DOPE   O31 5577   2.982   0.828   3.327  0.4134  0.2955  0.2290
   44DOPE   C31 5578   3.096   0.894   3.319  0.1845 -0.1815  0.3094
   44DOPE   O32 5579   3.171   0.893   3.221 -0.3092  0.9472  0.2822
   44DOPE   C32 5580   3.125   0.956   3.457 -0.0262 -0.2727 -0.0487
   44DOPE   H2X 5581   3.216   1.018   3.441 -0.5767  0.1896 -1.5743
   44DOPE   H2Y 5582   3.032   1.016   3.471 -0.5584 -1.1939  0.5044
   44DOPE   C23 5583   3.094   0.454   3.533 -0.3559  0.8668 -0.3735
   44DOPE   H3R 5584   3.165   0.539   3.519 -1.0830  1.4370 -0.7081
   44DOPE   H3S 5585   3.115   0.366   3.468  0.2844  0.4850  0.3442
   44DOPE   C24 5586   3.118   0.420   3.676 -0.2427 -0.1017  0.2133
   44DOPE   H4R 5587   3.026   0.366   3.705 -0.0984 -0.9940 -0.9211
   44DOPE   H4S 5588   3.108   0.510   3.740 -1.1423  0.8943 -1.2714
   44DOPE   C25 5589   3.250   0.349   3.712  0.3524  0.0884  0.2009
   44DOPE   H5R 5590   3.336   0.413   3.683  0.7097 -0.1930  0.6214
   44DOPE   H5S 5591   3.263   0.254   3.654  2.5541  0.2618  0.3161
   44DOPE   C26 5592   3.261   0.320   3.859 -0.4926 -0.0785 -0.6803
   44DOPE   H6R 5593   3.177   0.250   3.880 -0.2007 -0.8017 -1.8184
   44DOPE   H6S 5594   3.237   0.413   3.914  0.2631 -1.4000  2.0335
   44DOPE   C27 5595   3.394   0.254   3.909  0.1858 -0.4564 -0.0002
   44DOPE   H7R 5596   3.463   0.320   3.852 -0.8315  1.0289  0.4204
   44DOPE   H7S 5597   3.403   0.151   3.869 -2.9929 -1.4993  1.6596
   44DOPE   C28 5598   3.406   0.243   4.061 -0.1056  0.2200 -0.3896
   44DOPE   H8R 5599   3.388   0.343   4.106  1.1090  0.9744 -1.5238
   44DOPE   H8S 5600   3.506   0.205   4.088  1.4024  2.0000 -3.0264
   44DOPE   C29 5601   3.296   0.149   4.105  0.1272  0.0259  0.0769
   44DOPE   H9R 5602   3.210   0.130   4.040  0.1289 -1.9649  0.5992
   44DOPE  C210 5603   3.290   0.107   4.233 -0.6000 -0.4257  0.4192
   44DOPE  H10R 5604   3.203   0.045   4.263 -0.4252  0.2396  2.5244
   44DOPE  C211 5605   3.388   0.152   4.344 -0.5883 -0.6635 -0.1464
   44DOPE  H11R 5606   3.351   0.251   4.377  4.3066  1.8316 -1.1903
   44DOPE  H11S 5607   3.493   0.177   4.315 -0.3206 -1.2273  0.3050
   44DOPE  C212 5608   3.391   0.056   4.462  0.0994 -0.2578 -0.5566
   44DOPE  H12R 5609   3.284   0.033   4.482  0.0985  0.7931  0.8030
   44DOPE  H12S 5610   3.422   0.103   4.558 -1.4963  0.6644 -0.4557
   44DOPE  C213 5611   3.484  -0.060   4.438 -1.0456 -0.4100 -0.5924
   44DOPE  H13R 5612   3.587  -0.020   4.449 -0.7300 -1.3810  0.0250
   44DOPE  H13S 5613   3.471  -0.103   4.336 -0.3476  0.1165 -0.9138
   44DOPE  C214 5614   3.467  -0.162   4.550  0.5550 -0.4371  0.0950
   44DOPE  H14R 5615   3.365  -0.201   4.529  0.2817  0.5730 -0.5511
   44DOPE  H14S 5616   3.453  -0.118   4.650 -2.4791 -2.3022  0.6312
   44DOPE  C215 5617   3.575  -0.273   4.558 -0.7285  0.2332 -0.1435
   44DOPE  H15R 5618   3.674  -0.227   4.583 -1.7053  2.5415 -0.2442
   44DOPE  H15S 5619   3.579  -0.330   4.464  0.4480  0.0222  0.0108
   44DOPE  C216 5620   3.540  -0.378   4.661  0.3813  0.1428 -0.2460
   44DOPE  H16R 5621   3.485  -0.463   4.616  3.3978 -1.9241 -0.3336
   44DOPE  H16S 5622   3.475  -0.336   4.740  2.1746  0.0592  1.3477
   44DOPE  C217 5623   3.657  -0.444   4.735 -0.6194  0.0423  0.1132
   44DOPE  H17R 5624   3.721  -0.361   4.772 -1.4398  0.8013 -0.1552
   44DOPE  H17S 5625   3.710  -0.512   4.665  1.6340  2.6306 -0.8624
   44DOPE  C218 5626   3.620  -0.520   4.854  0.1786 -0.1061  0.1910
   44DOPE  H18R 5627   3.573  -0.618   4.830 -0.2138  0.5887 -2.0921
   44DOPE  H18S 5628   3.539  -0.465   4.907  0.2772  0.5922 -0.3737
   44DOPE  H18T 5629   3.699  -0.529   4.931 -1.1632  3.5752  2.2538
   44DOPE   C33 5630   3.148   0.841   3.555 -0.4659 -0.6689  0.3070
   44DOPE   H3X 5631   3.249   0.801   3.530 -0.7136 -0.8772 -0.3818
   44DOPE   H3Y 5632   3.083   0.752   3.539 -1.9786  0.7732 -2.0142
   44DOPE   C34 5633   3.139   0.871   3.709 -0.1811 -0.0215  0.5551
   44DOPE   H4X 5634   3.161   0.979   3.721 -3.3333  0.5185  2.8142
   44DOPE   H4Y 5635   3.034   0.859   3.745 -0.0491 -2.9489  0.1823
   44DOPE   C35 5636   3.256   0.805   3.784 -0.1660 -0.1328  0.2927
   44DOPE   H5X 5637   3.345   0.842   3.728 -1.7689  1.9362 -1.0571
   44DOPE   H5Y 5638   3.256   0.694   3.778  0.8787 -0.0712 -2.2511
   44DOPE   C36 5639   3.252   0.852   3.927 -0.4026 -0.2169  0.3814
   44DOPE   H6X 5640   3.161   0.813   3.977  1.1251 -1.9698  1.9576
   44DOPE   H6Y 5641   3.247   0.963   3.929 -0.2830 -0.2231  1.7061
   44DOPE   C37 5642   3.375   0.838   4.010  0.9212 -0.0520 -0.5071
   44DOPE   H7X 5643   3.414   0.735   4.022 -0.3372 -0.4359  0.4208
   44DOPE   H7Y 5644   3.456   0.901   3.966 -0.1176  0.7105 -1.3672
   44DOPE   C38 5645   3.344   0.893   4.153  0.0153  1.1337  0.2683
   44DOPE   H8X 5646   3.266   0.825   4.193  0.1885 -1.5778 -3.4455
   44DOPE   H8Y 5647   3.303   0.995   4.144 -1.9516  0.2976 -0.9278
   44DOPE   C39 5648   3.481   0.879   4.227 -0.2270  0.1914  0.0221
   44DOPE   H9X 5649   3.518   0.776   4.217 -0.8650 -0.2688  2.0299
   44DOPE  C310 5650   3.552   0.978   4.278  0.0222 -0.1194 -0.8772
   44DOPE  H10X 5651   3.653   0.973   4.321 -0.2167  0.8041 -0.1743
   44DOPE  C311 5652   3.500   1.120   4.270  0.0015 -0.1027 -0.5340
   44DOPE  H11X 5653   3.535   1.182   4.185 -1.5921 -1.8420 -2.6031
   44DOPE  H11Y 5654   3.389   1.128   4.272 -0.2496 -2.6358  1.1887
   44DOPE  C312 5655   3.567   1.181   4.397 -0.4340  0.1907  0.6402
   44DOPE  H12X 5656   3.580   1.291   4.382  1.2748 -0.3565 -3.0390
   44DOPE  H12Y 5657   3.674   1.152   4.405 -0.5396 -1.9384 -3.3695
   44DOPE  C313 5658   3.489   1.168   4.531  0.5773  0.0382 -0.7880
   44DOPE  H13X 5659   3.396   1.227   4.513  0.3423 -0.4843 -1.3194
   44DOPE  H13Y 5660   3.452   1.069   4.565 -0.2693  0.7173  0.3403
   44DOPE  C314 5661   3.572   1.227   4.648  0.3420 -0.5029 -0.3983
   44DOPE  H14X 5662   3.596   1.332   4.622  0.2902 -0.8251 -1.8288
   44DOPE  H14Y 5663   3.673   1.181   4.646  1.3565  1.6097 -0.8011
   44DOPE  C315 5664   3.493   1.218   4.778  0.3351  0.4002 -0.0058
   44DOPE  H15X 5665   3.480   1.112   4.809 -3.8703  0.4441 -1.0200
   44DOPE  H15Y 5666   3.387   1.250   4.764 -0.1191  0.4755  2.9654
   44DOPE  C316 5667   3.550   1.315   4.882  0.0313  0.8615  0.3407
   44DOPE  H16X 5668   3.660   1.307   4.893  0.2420  1.6223 -1.0677
   44DOPE  H16Y 5669   3.507   1.297   4.983 -2.4204 -0.6697 -0.9012
   44DOPE  C317 5670   3.501   1.462   4.845  0.1297 -0.5377 -0.5653
   44DOPE  H17X 5671   3.518   1.488   4.738  1.3468  0.6511 -0.1085
   44DOPE  H17Y 5672   3.391   1.456   4.860  0.3313  0.6511  1.9543
   44DOPE  C318 5673   3.567   1.571   4.928  0.2285 -0.3227 -0.2797
   44DOPE  H18X 5674   3.562   1.667   4.872  0.3894  0.4952  1.0586
   44DOPE  H18Y 5675   3.510   1.590   5.021 -0.4887  1.1922 -0.9820
   44DOPE  H18Z 5676   3.673   1.554   4.953  0.2218  1.2638  0.9784
   45DOPE     N 5677   3.603   0.149   2.966 -0.4091  0.2120 -0.0214
   45DOPE   HN1 5678   3.541   0.072   2.998 -0.5659 -0.3101 -1.5157
   45DOPE   HN2 5679   3.598   0.176   2.866 -2.0767  0.2137  0.0310
   45DOPE   HN3 5680   3.698   0.114   2.987  0.0511  2.0846  1.3187
   45DOPE   C12 5681   3.577   0.258   3.061  0.1843 -0.1889 -0.4028
   45DOPE  H12A 5682   3.599   0.236   3.168 -0.5587 -1.9489 -0.5783
   45DOPE  H12B 5683   3.469   0.284   3.053  0.6173  2.1585  0.3816
   45DOPE   C11 5684   3.658   0.387   3.015 -0.4969 -0.3861  0.0605
   45DOPE  H11A 5685   3.657   0.463   3.096 -1.9109  0.6421 -0.8823
   45DOPE  H11B 5686   3.618   0.432   2.922 -1.6733 -0.5095  0.5018
   45DOPE     P 5687   3.903   0.446   2.983 -0.2262 -0.1001 -0.2749
   45DOPE   O13 5688   3.850   0.584   2.996 -0.0902  0.4391 -0.2546
   45DOPE   O14 5689   3.984   0.414   2.863  0.0632  0.7437 -0.2030
   45DOPE   O11 5690   3.991   0.415   3.109  0.1409  0.1685  0.0791
   45DOPE   O12 5691   3.793   0.340   2.998 -0.3272  0.0235  0.0923
   45DOPE    C1 5692   3.950   0.398   3.240 -0.5881 -0.2511 -0.7265
   45DOPE    HA 5693   3.979   0.295   3.270  0.8147 -0.1668 -1.6790
   45DOPE    HB 5694   3.844   0.411   3.267 -0.6792 -0.1959 -1.1064
   45DOPE    C2 5695   4.037   0.480   3.341 -0.5037  0.2404  0.4425
   45DOPE    HS 5696   4.020   0.588   3.319 -2.3871 -0.0763  0.1921
   45DOPE   O21 5697   4.179   0.443   3.321  0.4977  0.0488 -0.3452
   45DOPE   C21 5698   4.269   0.533   3.370  0.3738 -0.2052  0.2535
   45DOPE   O22 5699   4.244   0.651   3.393 -0.0239 -0.1753 -0.1485
   45DOPE   C22 5700   4.413   0.469   3.358  0.7649 -0.9514  0.6337
   45DOPE   H2R 5701   4.453   0.496   3.258 -1.6403 -1.0598 -0.4119
   45DOPE   H2S 5702   4.402   0.358   3.360  0.7400 -1.0564 -1.9044
   45DOPE    C3 5703   3.997   0.440   3.483 -0.1955  0.8417 -0.3753
   45DOPE    HX 5704   4.030   0.335   3.504  0.8597  0.9506 -1.3630
   45DOPE    HY 5705   3.886   0.436   3.487 -0.2424  0.4384 -1.5837
   45DOPE   O31 5706   4.038   0.534   3.578  0.2649 -0.3581  0.5300
   45DOPE   C31 5707   4.122   0.488   3.670 -0.2231  0.1003 -0.0734
   45DOPE   O32 5708   4.168   0.376   3.674  0.2446  0.8654  0.5489
   45DOPE   C32 5709   4.148   0.594   3.775  0.2698  0.1277  0.5526
   45DOPE   H2X 5710   4.205   0.679   3.730 -1.0795 -0.0617 -1.6766
   45DOPE   H2Y 5711   4.053   0.623   3.824 -0.1227 -2.8341  1.7720
   45DOPE   C23 5712   4.509   0.523   3.457 -0.0355 -0.4575 -0.2066
   45DOPE   H3R 5713   4.476   0.510   3.562 -1.1470 -1.9216 -0.6914
   45DOPE   H3S 5714   4.520   0.631   3.434  1.8725 -0.7584 -0.8411
   45DOPE   C24 5715   4.642   0.452   3.447  0.1575  0.1997  0.0939
   45DOPE   H4R 5716   4.689   0.456   3.346  1.7887  0.7538  0.8317
   45DOPE   H4S 5717   4.629   0.343   3.466  1.1381  0.1746  0.7194
   45DOPE   C25 5718   4.743   0.504   3.545 -0.8433 -0.3096 -0.0692
   45DOPE   H5R 5719   4.730   0.614   3.548 -1.1947 -0.3692  1.0882
   45DOPE   H5S 5720   4.846   0.474   3.517 -0.7920  1.0150 -1.4253
   45DOPE   C26 5721   4.733   0.445   3.687 -0.1555 -0.3526 -0.8573
   45DOPE   H6R 5722   4.758   0.337   3.686  0.2448 -0.2758 -0.0194
   45DOPE   H6S 5723   4.642   0.478   3.742  1.2473  1.9509  0.2478
   45DOPE   C27 5724   4.849   0.504   3.773  0.0059 -0.5146  0.3212
   45DOPE   H7R 5725   4.861   0.615   3.770  0.5862 -0.5785  0.0770
   45DOPE   H7S 5726   4.948   0.465   3.739  0.8721 -1.1832  3.2976
   45DOPE   C28 5727   4.846   0.463   3.919 -0.5295  0.1331  0.6363
   45DOPE   H8R 5728   4.951   0.437   3.944 -0.3461  0.2224 -0.0129
   45DOPE   H8S 5729   4.793   0.365   3.918  1.1438 -0.8323  1.7015
   45DOPE   C29 5730   4.782   0.561   4.013 -0.3323 -0.0024 -0.4429
   45DOPE   H9R 5731   4.674   0.581   4.003 -0.2455  0.4979 -0.4090
   45DOPE  C210 5732   4.839   0.612   4.118  0.1027 -0.2521 -0.8108
   45DOPE  H10R 5733   4.786   0.678   4.188  2.2408  2.2748 -1.4149
   45DOPE  C211 5734   4.976   0.585   4.176 -0.2098  0.0673 -0.7004
   45DOPE  H11R 5735   5.019   0.665   4.240  2.0243  0.8364 -2.9802
   45DOPE  H11S 5736   5.055   0.556   4.102  1.5583 -0.2169  1.2142
   45DOPE  C212 5737   4.955   0.465   4.272  0.3610  0.2767  0.0834
   45DOPE  H12R 5738   5.054   0.464   4.323  0.2077 -0.6313  0.3682
   45DOPE  H12S 5739   4.944   0.367   4.221 -1.5213  1.3686 -1.7810
   45DOPE  C213 5740   4.837   0.477   4.379 -0.7266 -0.2822 -0.2174
   45DOPE  H13R 5741   4.735   0.458   4.340 -1.8475 -1.1741  2.8480
   45DOPE  H13S 5742   4.844   0.584   4.409  2.7270 -0.5038  0.1691
   45DOPE  C214 5743   4.852   0.374   4.498  0.6883  0.2217 -0.4695
   45DOPE  H14R 5744   4.956   0.377   4.538  0.8561  0.5797 -0.9267
   45DOPE  H14S 5745   4.856   0.270   4.459 -0.1702  0.0137 -0.0268
   45DOPE  C215 5746   4.744   0.393   4.600 -0.0702  0.0662  0.6464
   45DOPE  H15R 5747   4.645   0.369   4.556  0.4491  1.1380 -1.1919
   45DOPE  H15S 5748   4.736   0.503   4.612  1.7150  0.4456 -1.1461
   45DOPE  C216 5749   4.776   0.332   4.735 -0.5892 -0.1476 -0.2396
   45DOPE  H16R 5750   4.887   0.328   4.736 -0.5559  0.3941 -1.1157
   45DOPE  H16S 5751   4.733   0.230   4.746  1.1810 -0.9790 -0.6123
   45DOPE  C217 5752   4.719   0.410   4.851  0.3413  0.3604  0.1427
   45DOPE  H17R 5753   4.724   0.337   4.934  0.5388 -0.2803 -0.4234
   45DOPE  H17S 5754   4.613   0.439   4.835  0.8136  1.3027 -1.5163
   45DOPE  C218 5755   4.799   0.529   4.893 -0.6106  0.4720 -0.5555
   45DOPE  H18R 5756   4.813   0.596   4.805  2.6428 -2.1961 -2.3339
   45DOPE  H18S 5757   4.903   0.497   4.919 -0.6099  0.6759 -0.3103
   45DOPE  H18T 5758   4.758   0.591   4.975  0.1792 -0.5170  0.6203
   45DOPE   C33 5759   4.238   0.527   3.886 -0.1190 -0.1339  0.2174
   45DOPE   H3X 5760   4.313   0.457   3.844  0.6419 -0.1678  1.5820
   45DOPE   H3Y 5761   4.165   0.464   3.942 -1.2146 -0.5715 -1.6148
   45DOPE   C34 5762   4.281   0.630   3.993 -0.9068  0.0228 -0.2244
   45DOPE   H4X 5763   4.356   0.698   3.948  2.6292 -2.0757  2.0126
   45DOPE   H4Y 5764   4.198   0.695   4.028 -1.4786 -0.9571  0.3024
   45DOPE   C35 5765   4.336   0.574   4.122 -0.0538  0.0897  0.3123
   45DOPE   H5X 5766   4.422   0.506   4.108  1.0675  1.3543  0.8120
   45DOPE   H5Y 5767   4.258   0.509   4.168  0.3233  0.4488  1.5092
   45DOPE   C36 5768   4.363   0.690   4.232  0.5448  0.2528 -0.2557
   45DOPE   H6X 5769   4.365   0.637   4.329  1.3623 -0.4351 -0.6351
   45DOPE   H6Y 5770   4.272   0.753   4.223  1.0630  0.9088 -1.1731
   45DOPE   C37 5771   4.485   0.785   4.208  0.2082 -0.4287 -0.0243
   45DOPE   H7X 5772   4.565   0.734   4.148 -0.2656 -0.7387 -0.4078
   45DOPE   H7Y 5773   4.461   0.870   4.141 -0.6473 -1.0557 -0.5454
   45DOPE   C38 5774   4.548   0.838   4.339 -0.0374  0.3531  0.1278
   45DOPE   H8X 5775   4.476   0.917   4.371  1.0840  1.2934  0.4023
   45DOPE   H8Y 5776   4.642   0.894   4.319 -0.9215  1.1597 -2.0151
   45DOPE   C39 5777   4.587   0.738   4.443  0.4269  0.6489 -0.4144
   45DOPE   H9X 5778   4.597   0.634   4.409 -0.7205  0.5585 -0.5129
   45DOPE  C310 5779   4.606   0.752   4.576  0.7948  0.1319  0.6854
   45DOPE  H10X 5780   4.630   0.662   4.634  2.3261  0.7742  1.0884
   45DOPE  C311 5781   4.584   0.880   4.663  0.4646  0.7058 -0.4187
   45DOPE  H11X 5782   4.546   0.965   4.603 -0.0519 -0.6732 -2.1383
   45DOPE  H11Y 5783   4.501   0.861   4.734 -0.9825  2.9965 -1.3847
   45DOPE  C312 5784   4.708   0.917   4.752 -0.3896  1.0913  0.5455
   45DOPE  H12X 5785   4.790   0.950   4.685 -1.6685  1.1677 -1.0431
   45DOPE  H12Y 5786   4.736   0.827   4.810  0.5967  0.3739 -0.9893
   45DOPE  C313 5787   4.692   1.021   4.859 -0.2720 -0.3465 -0.1833
   45DOPE  H13X 5788   4.675   1.120   4.810  1.8079 -0.3750 -1.0638
   45DOPE  H13Y 5789   4.604   0.997   4.922  1.2452 -1.1651  1.7679
   45DOPE  C314 5790   4.821   1.046   4.944 -0.1090  0.7066 -0.1900
   45DOPE  H14X 5791   4.908   1.059   4.877  0.6034  0.6801  0.7101
   45DOPE  H14Y 5792   4.845   0.954   5.002 -2.0952  1.8797  2.6800
   45DOPE  C315 5793   4.813   1.150   5.053  0.1457  0.2739  0.1612
   45DOPE  H15X 5794   4.734   1.120   5.125  0.0052  0.8740  0.2663
   45DOPE  H15Y 5795   4.792   1.252   5.013  0.1714  0.4911  0.6975
   45DOPE  C316 5796   4.943   1.178   5.133 -0.1923 -0.1886 -0.0023
   45DOPE  H16X 5797   5.028   1.168   5.062 -0.5154  1.6024 -0.6873
   45DOPE  H16Y 5798   4.971   1.108   5.215 -0.6803  0.3856  0.6617
   45DOPE  C317 5799   4.949   1.314   5.202 -0.0477  0.5352 -0.0257
   45DOPE  H17X 5800   4.917   1.388   5.125 -2.4744  1.2858  1.5744
   45DOPE  H17Y 5801   4.878   1.311   5.287 -0.2672  2.3629 -0.1158
   45DOPE  C318 5802   5.083   1.354   5.265 -0.1506  0.3164  0.2936
   45DOPE  H18X 5803   5.163   1.337   5.190 -1.0135  0.5174 -0.6962
   45DOPE  H18Y 5804   5.084   1.463   5.287  0.4669  0.4384 -0.3116
   45DOPE  H18Z 5805   5.101   1.288   5.353  1.3203 -0.5072 -0.5946
   46DOPE     N 5806   5.109   7.252   2.648  0.3738 -0.3523 -0.5388
   46DOPE   HN1 5807   5.027   7.241   2.586 -1.0317 -0.3841  1.2595
   46DOPE   HN2 5808   5.147   7.349   2.645  1.4372 -0.7839 -2.0296
   46DOPE   HN3 5809   5.186   7.194   2.610  1.6282  0.1671  1.0610
   46DOPE   C12 5810   5.090   7.194   2.786  0.3348 -0.7336  0.2072
   46DOPE  H12A 5811   5.029   7.102   2.772  1.0963 -1.0275 -1.3667
   46DOPE  H12B 5812   5.030   7.263   2.849 -0.5385 -0.2762 -1.0911
   46DOPE   C11 5813   5.221   7.163   2.863 -0.0545 -0.2124  0.0352
   46DOPE  H11A 5814   5.277   7.084   2.807  2.8267  1.4028  0.4292
   46DOPE  H11B 5815   5.193   7.136   2.967  0.7889 -1.2448  0.0137
   46DOPE     P 5816   5.451   7.282   2.924 -0.0481  0.0475 -0.0857
   46DOPE   O13 5817   5.515   7.416   2.900  0.2088  0.2927 -0.1579
   46DOPE   O14 5818   5.520   7.163   2.883  0.1697 -0.0256 -0.2805
   46DOPE   O11 5819   5.427   7.278   3.079  0.1198  0.1169  0.4225
   46DOPE   O12 5820   5.305   7.281   2.857 -0.1570  0.2218 -0.4325
   46DOPE    C1 5821   5.339   7.379   3.144  0.4954  0.1953 -0.0133
   46DOPE    HA 5822   5.261   7.324   3.201  0.5559  2.3071  2.2839
   46DOPE    HB 5823   5.288   7.446   3.073  0.8828 -0.1348 -0.6116
   46DOPE    C2 5824   5.418   7.463   3.240  0.3328 -0.2652  0.7862
   46DOPE    HS 5825   5.497   7.519   3.186 -0.6471 -0.4836 -0.9639
   46DOPE   O21 5826   5.461   7.384   3.357 -0.4382  0.5398  0.4342
   46DOPE   C21 5827   5.553   7.443   3.430 -0.5263 -0.1252 -0.9547
   46DOPE   O22 5828   5.616   7.540   3.402  0.1145 -0.3430 -0.2730
   46DOPE   C22 5829   5.581   7.363   3.556  0.0309 -0.0140 -0.4954
   46DOPE   H2R 5830   5.529   7.265   3.550 -0.4405  0.0653  1.5014
   46DOPE   H2S 5831   5.540   7.427   3.637 -0.6091  0.9785 -1.5762
   46DOPE    C3 5832   5.320   7.581   3.285  0.1941  0.6346 -0.2963
   46DOPE    HX 5833   5.307   7.641   3.192 -0.0480  1.0159 -0.0222
   46DOPE    HY 5834   5.374   7.635   3.366  1.6821 -2.8483  1.2399
   46DOPE   O31 5835   5.192   7.535   3.334  0.1736 -0.3585  0.5919
   46DOPE   C31 5836   5.186   7.494   3.461  0.3071  0.2426  0.4209
   46DOPE   O32 5837   5.279   7.489   3.539 -0.0072  0.2101  0.1017
   46DOPE   C32 5838   5.044   7.447   3.486  0.1771  0.5615 -0.1657
   46DOPE   H2X 5839   4.970   7.527   3.464 -0.2340  0.3190  0.3256
   46DOPE   H2Y 5840   5.030   7.356   3.424  2.5179 -0.9274  1.3485
   46DOPE   C23 5841   5.732   7.332   3.576  0.1549 -0.2529 -0.2290
   46DOPE   H3R 5842   5.792   7.420   3.544  0.2548 -0.8882 -1.9081
   46DOPE   H3S 5843   5.768   7.255   3.504 -2.2562 -0.5161 -1.2459
   46DOPE   C24 5844   5.762   7.278   3.713  0.5700  0.0959 -0.1168
   46DOPE   H4R 5845   5.739   7.355   3.789 -1.4528 -0.4729 -0.0879
   46DOPE   H4S 5846   5.871   7.258   3.708  0.6061  0.6423 -2.3393
   46DOPE   C25 5847   5.685   7.146   3.737  0.2021 -0.1465 -0.6210
   46DOPE   H5R 5848   5.697   7.088   3.643 -0.1304 -1.8490  0.3487
   46DOPE   H5S 5849   5.577   7.154   3.761  0.0154  0.5666 -1.6579
   46DOPE   C26 5850   5.744   7.071   3.860  0.3670 -0.1835  0.3226
   46DOPE   H6R 5851   5.739   7.146   3.941 -0.1184 -1.7594  1.8012
   46DOPE   H6S 5852   5.854   7.062   3.846  0.6682 -1.5374  2.9245
   46DOPE   C27 5853   5.667   6.950   3.920  0.2754 -0.0068  0.1003
   46DOPE   H7R 5854   5.693   6.865   3.854  1.1120  1.1239 -1.0659
   46DOPE   H7S 5855   5.558   6.968   3.917  0.6289  2.4433  0.0773
   46DOPE   C28 5856   5.710   6.912   4.062 -0.7624 -0.0182 -0.3281
   46DOPE   H8R 5857   5.805   6.854   4.063 -0.8558 -0.1709  0.3971
   46DOPE   H8S 5858   5.638   6.836   4.101 -0.6117  0.8938  1.9003
   46DOPE   C29 5859   5.726   7.033   4.155  0.5982 -0.1378 -0.2362
   46DOPE   H9R 5860   5.790   7.112   4.112  0.3891 -0.8141 -1.8891
   46DOPE  C210 5861   5.656   7.056   4.268 -0.4041  0.1412  0.0032
   46DOPE  H10R 5862   5.673   7.150   4.323  0.7803  0.1305 -0.3164
   46DOPE  C211 5863   5.548   6.970   4.329  0.1582 -0.0638  0.0748
   46DOPE  H11R 5864   5.541   6.870   4.280  2.2032  0.7788 -2.1067
   46DOPE  H11S 5865   5.452   7.025   4.322  1.8261  3.1973  0.9722
   46DOPE  C212 5866   5.580   6.938   4.478  0.1696 -0.0350  0.1621
   46DOPE  H12R 5867   5.678   6.884   4.481 -0.8392 -1.9185  1.0527
   46DOPE  H12S 5868   5.499   6.869   4.511 -0.7042  0.6321 -0.5551
   46DOPE  C213 5869   5.583   7.064   4.566 -0.0157  0.5123 -0.1578
   46DOPE  H13R 5870   5.484   7.112   4.578  0.2149  1.0424 -0.3134
   46DOPE  H13S 5871   5.648   7.141   4.518 -0.8326 -0.1588 -2.4339
   46DOPE  C214 5872   5.630   7.037   4.716  0.2237  0.9350  0.7670
   46DOPE  H14R 5873   5.550   6.984   4.772  0.6120 -0.9619 -0.4078
   46DOPE  H14S 5874   5.631   7.135   4.769 -1.7348  0.8598  1.0185
   46DOPE  C215 5875   5.762   6.957   4.725 -0.0759  0.9512 -0.3955
   46DOPE  H15R 5876   5.836   6.998   4.653 -1.3368  1.1168 -1.6442
   46DOPE  H15S 5877   5.747   6.854   4.686  0.5135  1.2616 -1.4904
   46DOPE  C216 5878   5.817   6.950   4.869  0.2745 -0.0026  1.7483
   46DOPE  H16R 5879   5.768   6.868   4.927 -0.1170 -0.1362  1.2392
   46DOPE  H16S 5880   5.791   7.045   4.921  1.2689  1.6351 -0.5693
   46DOPE  C217 5881   5.968   6.933   4.860 -0.7754 -0.0437 -0.7038
   46DOPE  H17R 5882   6.016   7.034   4.858  1.9463 -1.1880  0.7393
   46DOPE  H17S 5883   5.983   6.861   4.778  0.8329 -0.5815  0.0205
   46DOPE  C218 5884   6.012   6.868   4.986 -0.0725 -0.1002  0.1890
   46DOPE  H18R 5885   6.123   6.867   4.996 -0.0070 -1.8563 -0.3610
   46DOPE  H18S 5886   5.987   6.760   4.992 -0.5647 -0.0521 -0.7679
   46DOPE  H18T 5887   5.970   6.911   5.079  1.7770 -2.3120  2.1874
   46DOPE   C33 5888   5.026   7.403   3.638  0.3850 -0.2490  0.9126
   46DOPE   H3X 5889   5.052   7.492   3.699  2.1749  1.5144 -2.2034
   46DOPE   H3Y 5890   5.085   7.310   3.649  0.3469 -0.6464 -1.6165
   46DOPE   C34 5891   4.880   7.366   3.651 -0.5427 -0.2058 -0.0015
   46DOPE   H4X 5892   4.810   7.451   3.641 -2.6313 -1.9040 -0.6749
   46DOPE   H4Y 5893   4.838   7.290   3.581 -1.4174 -0.1403  0.4405
   46DOPE   C35 5894   4.858   7.310   3.789  0.3183 -0.3810  0.3798
   46DOPE   H5X 5895   4.903   7.374   3.867 -0.5909 -0.2349  0.7906
   46DOPE   H5Y 5896   4.893   7.205   3.800 -0.7892 -0.6076  2.1655
   46DOPE   C36 5897   4.710   7.299   3.837 -0.3141 -0.4644  0.2629
   46DOPE   H6X 5898   4.655   7.213   3.792 -2.3737  0.0716  1.6361
   46DOPE   H6Y 5899   4.655   7.389   3.804 -0.5640 -0.6115  0.2741
   46DOPE   C37 5900   4.697   7.275   3.983  0.3950  0.5984  0.2930
   46DOPE   H7X 5901   4.762   7.353   4.029 -0.5819  1.5374  0.1201
   46DOPE   H7Y 5902   4.595   7.286   4.026  1.0593 -2.0073  2.7815
   46DOPE   C38 5903   4.755   7.140   4.033 -0.5470 -0.3172  0.5270
   46DOPE   H8X 5904   4.858   7.175   4.054 -0.9161  1.5396 -0.5221
   46DOPE   H8Y 5905   4.758   7.071   3.946  1.0572 -1.7178  1.6414
   46DOPE   C39 5906   4.673   7.074   4.137 -0.3016 -0.0500  0.2034
   46DOPE   H9X 5907   4.597   7.003   4.102  1.4192 -2.2474  0.6269
   46DOPE  C310 5908   4.683   7.097   4.272  0.2075  0.5343 -0.3229
   46DOPE  H10X 5909   4.607   7.069   4.346  1.4678  0.3945  0.9598
   46DOPE  C311 5910   4.786   7.188   4.342 -0.4796  0.1736 -0.0222
   46DOPE  H11X 5911   4.799   7.277   4.277  3.9858 -1.7380 -2.1998
   46DOPE  H11Y 5912   4.746   7.219   4.441 -1.9959 -2.9225  0.4627
   46DOPE  C312 5913   4.922   7.124   4.344 -0.4764 -0.7506  0.3335
   46DOPE  H12X 5914   4.997   7.201   4.370  0.6566 -0.7240 -2.6428
   46DOPE  H12Y 5915   4.955   7.082   4.247  1.4494  4.7200 -1.8037
   46DOPE  C313 5916   4.935   7.005   4.444  0.0554 -0.2111 -0.5047
   46DOPE  H13X 5917   4.873   7.021   4.535  0.1554 -3.4171  0.2374
   46DOPE  H13Y 5918   4.886   6.912   4.408 -1.5612  0.6074 -0.5525
   46DOPE  C314 5919   5.082   6.969   4.475 -0.1564  0.4654  0.1597
   46DOPE  H14X 5920   5.133   6.975   4.377  2.4118  0.9463  1.4526
   46DOPE  H14Y 5921   5.099   6.866   4.513  0.6753  1.0432  1.4334
   46DOPE  C315 5922   5.160   7.061   4.567 -0.4800 -0.0393  0.0590
   46DOPE  H15X 5923   5.144   7.162   4.524  0.4536  0.0053 -0.2101
   46DOPE  H15Y 5924   5.269   7.048   4.546 -0.1401  0.4810  1.3937
   46DOPE  C316 5925   5.113   7.075   4.716 -1.1529  0.3376 -0.3763
   46DOPE  H16X 5926   5.002   7.070   4.719 -1.1194 -0.3508 -0.1724
   46DOPE  H16Y 5927   5.142   7.178   4.745 -0.4583  0.3993 -1.2286
   46DOPE  C317 5928   5.162   6.983   4.829  0.3107 -0.2033  0.4235
   46DOPE  H17X 5929   5.125   6.880   4.809 -3.3718  1.1477 -0.6424
   46DOPE  H17Y 5930   5.273   6.982   4.832  0.2965 -1.0266  1.1947
   46DOPE  C318 5931   5.116   7.030   4.967 -0.7297 -0.5121  0.2096
   46DOPE  H18X 5932   5.153   7.134   4.985 -2.9314  0.4253 -0.3528
   46DOPE  H18Y 5933   5.006   7.037   4.980 -0.5790  1.9488  0.6489
   46DOPE  H18Z 5934   5.165   6.963   5.041  0.4363 -1.3427 -1.2720
   47DOPE     N 5935   1.545   5.976   3.170  0.0185 -0.0076  0.3041
   47DOPE   HN1 5936   1.608   6.047   3.212 -0.7044  0.7716  0.1050
   47DOPE   HN2 5937   1.448   5.978   3.207 -0.1346 -2.5142  0.1960
   47DOPE   HN3 5938   1.579   5.879   3.184 -1.0640 -0.1437  2.3798
   47DOPE   C12 5939   1.531   6.014   3.028 -0.3504  0.3540  0.2221
   47DOPE  H12A 5940   1.484   5.925   2.979  0.9603  0.8810 -2.1707
   47DOPE  H12B 5941   1.633   6.030   2.987 -0.8882 -1.0250 -1.8343
   47DOPE   C11 5942   1.453   6.144   3.016 -0.2272 -0.1030  0.2703
   47DOPE  H11A 5943   1.466   6.189   2.915  2.9352  1.8489  1.4198
   47DOPE  H11B 5944   1.500   6.213   3.089  0.7809 -0.4057 -0.0679
   47DOPE     P 5945   1.213   6.245   3.033  0.5223  0.1918  0.1814
   47DOPE   O13 5946   1.156   6.246   2.899  0.0312 -0.8374 -0.0405
   47DOPE   O14 5947   1.276   6.367   3.082 -0.0997  0.3062 -0.6318
   47DOPE   O11 5948   1.096   6.216   3.128 -0.0603  0.6290  0.0076
   47DOPE   O12 5949   1.313   6.120   3.037  0.1852 -0.2898  0.3540
   47DOPE    C1 5950   1.087   6.102   3.210 -0.1922 -0.0388  0.0768
   47DOPE    HA 5951   1.130   6.005   3.176  1.3391  0.9745 -0.9786
   47DOPE    HB 5952   0.979   6.078   3.220 -0.0658 -0.5146  0.3770
   47DOPE    C2 5953   1.157   6.132   3.341  0.2586  0.2827  0.1142
   47DOPE    HS 5954   1.263   6.155   3.318 -0.0657  0.1901 -1.6258
   47DOPE   O21 5955   1.133   6.022   3.424  0.3485  0.0804 -0.2798
   47DOPE   C21 5956   1.235   5.935   3.419  0.4674  1.1531  0.4250
   47DOPE   O22 5957   1.344   5.951   3.364  0.2107 -0.3312 -0.6102
   47DOPE   C22 5958   1.203   5.812   3.499 -0.1148  0.2667 -0.6333
   47DOPE   H2R 5959   1.216   5.722   3.436  0.1349  0.0375 -0.2596
   47DOPE   H2S 5960   1.095   5.813   3.522  0.3075  1.4989  1.5959
   47DOPE    C3 5961   1.112   6.269   3.409  0.3331  0.2541 -0.6312
   47DOPE    HX 5962   1.002   6.282   3.420  0.3838 -0.3183  0.6789
   47DOPE    HY 5963   1.148   6.346   3.337 -2.0925  0.4175 -1.7627
   47DOPE   O31 5964   1.169   6.290   3.542 -0.1731  0.1559 -0.1947
   47DOPE   C31 5965   1.276   6.372   3.546 -1.1400  0.0917  0.1104
   47DOPE   O32 5966   1.318   6.442   3.451  0.4125  0.4156 -0.1792
   47DOPE   C32 5967   1.352   6.365   3.674  0.0720  0.5153 -0.7724
   47DOPE   H2X 5968   1.459   6.350   3.649  0.3929 -0.3531  0.9670
   47DOPE   H2Y 5969   1.332   6.461   3.724 -0.8356 -0.1809  0.2505
   47DOPE   C23 5970   1.299   5.809   3.628  0.5627 -0.4615 -0.3240
   47DOPE   H3R 5971   1.309   5.913   3.666 -0.3053 -0.2507 -0.6439
   47DOPE   H3S 5972   1.396   5.760   3.604  0.7888 -0.3898  0.4189
   47DOPE   C24 5973   1.233   5.742   3.749  0.3912 -0.1382 -0.3177
   47DOPE   H4R 5974   1.216   5.633   3.736  1.3718 -0.0641 -2.5332
   47DOPE   H4S 5975   1.127   5.775   3.751 -0.0289 -1.4586  1.1343
   47DOPE   C25 5976   1.288   5.769   3.882  0.2477 -0.6726  0.1595
   47DOPE   H5R 5977   1.228   5.850   3.929  0.0302 -0.7958  0.0928
   47DOPE   H5S 5978   1.387   5.820   3.872 -1.5255  2.9319 -0.6491
   47DOPE   C26 5979   1.295   5.655   3.989  0.2064  0.5978  0.2609
   47DOPE   H6R 5980   1.354   5.573   3.941  1.5142  1.5314  0.2208
   47DOPE   H6S 5981   1.193   5.615   4.004  0.9335 -1.4752 -0.0146
   47DOPE   C27 5982   1.353   5.690   4.121  0.2450 -0.1038 -0.3734
   47DOPE   H7R 5983   1.323   5.797   4.134 -1.6560 -0.6597  0.1840
   47DOPE   H7S 5984   1.464   5.684   4.119  0.2925 -1.8826  2.3131
   47DOPE   C28 5985   1.277   5.617   4.230  0.2845 -0.3218 -0.6120
   47DOPE   H8R 5986   1.279   5.510   4.202  3.1728 -0.4701 -0.0968
   47DOPE   H8S 5987   1.174   5.660   4.231 -0.0170 -1.0322 -0.2360
   47DOPE   C29 5988   1.336   5.611   4.369 -0.0462 -0.2333  0.1817
   47DOPE   H9R 5989   1.442   5.579   4.373  0.8476  2.4688  3.2862
   47DOPE  C210 5990   1.285   5.641   4.490 -0.3938  0.3711 -0.2619
   47DOPE  H10R 5991   1.341   5.598   4.575 -0.1322  1.0371 -0.0886
   47DOPE  C211 5992   1.144   5.692   4.511 -0.8503  0.1742  0.0167
   47DOPE  H11R 5993   1.106   5.749   4.423  1.3405 -0.1598 -1.2096
   47DOPE  H11S 5994   1.143   5.770   4.590  0.9479 -1.3015  1.5625
   47DOPE  C212 5995   1.058   5.576   4.558 -0.2674 -0.3744 -0.5043
   47DOPE  H12R 5996   1.073   5.559   4.667  1.2419  0.6433 -0.5184
   47DOPE  H12S 5997   1.091   5.481   4.510 -0.7400 -0.4794 -0.6231
   47DOPE  C213 5998   0.909   5.604   4.539 -0.0375 -0.1960  0.0654
   47DOPE  H13R 5999   0.879   5.701   4.586  1.7345 -0.7719  2.6522
   47DOPE  H13S 6000   0.853   5.513   4.570  0.6522 -0.9969 -0.9833
   47DOPE  C214 6001   0.865   5.619   4.385 -0.2023  1.1118  0.2421
   47DOPE  H14R 6002   0.914   5.709   4.343  0.1709  2.1551  2.7462
   47DOPE  H14S 6003   0.754   5.620   4.384 -0.2306  0.0333  0.3662
   47DOPE  C215 6004   0.901   5.494   4.304  0.1473 -0.1972  0.1469
   47DOPE  H15R 6005   0.855   5.407   4.356  1.0314 -0.5527  0.3532
   47DOPE  H15S 6006   1.012   5.486   4.302  0.1595 -0.3469 -3.1143
   47DOPE  C216 6007   0.844   5.494   4.166  0.4515  0.7593 -0.8264
   47DOPE  H16R 6008   0.742   5.535   4.176 -0.9555 -2.5035 -0.4502
   47DOPE  H16S 6009   0.825   5.394   4.120 -0.9955  1.0676 -0.9402
   47DOPE  C217 6010   0.930   5.578   4.062  0.3319 -0.5340  0.3150
   47DOPE  H17R 6011   1.032   5.532   4.064 -0.0166 -1.2996  0.8111
   47DOPE  H17S 6012   0.954   5.681   4.098 -1.3332  0.6224 -1.6717
   47DOPE  C218 6013   0.885   5.584   3.914 -0.3376 -0.4700 -0.4743
   47DOPE  H18R 6014   0.892   5.482   3.871  0.7958 -0.9336  0.7504
   47DOPE  H18S 6015   0.947   5.649   3.848 -0.9730  0.1664 -0.4530
   47DOPE  H18T 6016   0.780   5.622   3.912 -0.1534  0.0478 -0.6660
   47DOPE   C33 6017   1.306   6.242   3.767 -0.5354 -0.0306  0.2277
   47DOPE   H3X 6018   1.326   6.148   3.710  0.4959  0.2357  0.1274
   47DOPE   H3Y 6019   1.198   6.259   3.786 -0.4949  0.9823 -0.3713
   47DOPE   C34 6020   1.379   6.253   3.904  0.3904  0.3751  0.6421
   47DOPE   H4X 6021   1.483   6.216   3.890  0.4661  1.4114 -1.9587
   47DOPE   H4Y 6022   1.370   6.358   3.940 -1.5688  0.1769  0.8084
   47DOPE   C35 6023   1.313   6.153   4.002 -0.2254 -0.1250  0.0974
   47DOPE   H5X 6024   1.270   6.066   3.948  0.5976 -0.1958 -0.4753
   47DOPE   H5Y 6025   1.242   6.214   4.061  0.3343  0.0613  0.5869
   47DOPE   C36 6026   1.414   6.095   4.105 -0.0951  0.0181  0.4996
   47DOPE   H6X 6027   1.496   6.055   4.042 -0.0710  0.9623 -0.1018
   47DOPE   H6Y 6028   1.359   6.017   4.162  2.1290 -1.0689  1.2713
   47DOPE   C37 6029   1.478   6.202   4.185 -0.2918  0.2962 -0.0391
   47DOPE   H7X 6030   1.527   6.270   4.112 -0.8306  0.9020  0.1638
   47DOPE   H7Y 6031   1.408   6.266   4.242  1.3964  0.3470  2.1184
   47DOPE   C38 6032   1.589   6.141   4.273 -0.3966  0.0858 -0.0235
   47DOPE   H8X 6033   1.662   6.210   4.320  0.3279 -1.0323  0.5482
   47DOPE   H8Y 6034   1.654   6.079   4.207 -2.1864 -2.3174  0.3258
   47DOPE   C39 6035   1.527   6.041   4.365 -0.3063  0.5666 -0.3294
   47DOPE   H9X 6036   1.557   5.936   4.352 -0.0356  0.6694 -0.5568
   47DOPE  C310 6037   1.433   6.067   4.459  0.2366 -0.2812 -0.4487
   47DOPE  H10X 6038   1.409   5.988   4.531 -1.6412 -0.3420 -1.0837
   47DOPE  C311 6039   1.373   6.204   4.495 -0.5903  0.5097  0.2232
   47DOPE  H11X 6040   1.449   6.285   4.497  0.7775 -0.7294  0.0621
   47DOPE  H11Y 6041   1.303   6.235   4.414  0.0804  1.8007  0.1140
   47DOPE  C312 6042   1.307   6.205   4.629 -0.0921 -0.3348  0.3563
   47DOPE  H12X 6043   1.230   6.124   4.624 -0.9530  0.5012 -0.4579
   47DOPE  H12Y 6044   1.244   6.296   4.641 -0.1958 -0.3566 -0.0168
   47DOPE  C313 6045   1.394   6.177   4.752  0.7118  0.1488 -0.3131
   47DOPE  H13X 6046   1.453   6.084   4.738 -1.5362 -1.5775  0.9747
   47DOPE  H13Y 6047   1.458   6.265   4.777  0.7818 -0.2589  1.0223
   47DOPE  C314 6048   1.293   6.159   4.875  0.4583  0.4479  0.3363
   47DOPE  H14X 6049   1.336   6.082   4.942 -0.5354 -0.0525  0.4203
   47DOPE  H14Y 6050   1.195   6.122   4.838 -0.6349  2.1379  1.3575
   47DOPE  C315 6051   1.261   6.289   4.953  0.0588 -0.1962 -0.1655
   47DOPE  H15X 6052   1.207   6.359   4.886  1.8008 -1.2439 -2.8382
   47DOPE  H15Y 6053   1.359   6.329   4.986 -0.2785  0.8805 -0.4360
   47DOPE  C316 6054   1.175   6.263   5.077  0.2332  0.2273  0.2032
   47DOPE  H16X 6055   1.197   6.335   5.159 -1.4599  0.9748  0.0235
   47DOPE  H16Y 6056   1.200   6.160   5.113 -0.5673 -0.2688 -0.6422
   47DOPE  C317 6057   1.023   6.278   5.049 -0.4640 -0.1427 -0.8101
   47DOPE  H17X 6058   1.004   6.387   5.035 -0.6546  0.5270  3.3701
   47DOPE  H17Y 6059   0.994   6.229   4.954 -1.2549 -0.0525 -0.6211
   47DOPE  C318 6060   0.934   6.233   5.159 -0.3926  0.2181  0.3396
   47DOPE  H18X 6061   0.954   6.288   5.254  3.2284 -1.6553  0.8374
   47DOPE  H18Y 6062   0.829   6.248   5.129  0.4045 -1.5325 -4.0594
   47DOPE  H18Z 6063   0.941   6.124   5.174 -0.7827  0.0604 -0.6033
   48DOPE     N 6064   7.267   2.295   3.132  0.1972 -0.1521 -0.3223
   48DOPE   HN1 6065   7.342   2.341   3.187 -1.2099  0.8768  0.8132
   48DOPE   HN2 6066   7.181   2.271   3.185 -0.3615 -1.1487 -1.6207
   48DOPE   HN3 6067   7.292   2.198   3.102 -0.6004 -0.6277  0.4903
   48DOPE   C12 6068   7.228   2.369   3.009  0.0171 -0.1506 -0.0216
   48DOPE  H12A 6069   7.216   2.290   2.931  1.0856 -0.9555  0.5954
   48DOPE  H12B 6070   7.312   2.438   2.987  0.2982  0.2547  2.1486
   48DOPE   C11 6071   7.103   2.453   3.008 -0.1341 -0.1650 -0.0851
   48DOPE  H11A 6072   7.110   2.524   2.923  0.5649 -0.1375 -0.0122
   48DOPE  H11B 6073   7.104   2.512   3.101 -3.7935  0.0824 -0.0616
   48DOPE     P 6074   6.899   2.349   2.889  0.0774  0.1440  0.1851
   48DOPE   O13 6075   6.994   2.366   2.776 -0.3251 -0.2022  0.3207
   48DOPE   O14 6076   6.778   2.436   2.911 -0.3340 -0.3829  0.1877
   48DOPE   O11 6077   6.848   2.201   2.893  0.0410  0.7558 -0.1310
   48DOPE   O12 6078   6.990   2.364   3.014  0.1585  0.6997 -0.0228
   48DOPE    C1 6079   6.919   2.098   2.957  0.2010 -0.3618 -0.1800
   48DOPE    HA 6080   7.029   2.113   2.965  0.4337 -1.0788 -1.7167
   48DOPE    HB 6081   6.921   2.004   2.898  2.6077 -0.0171 -0.7373
   48DOPE    C2 6082   6.860   2.088   3.098  0.2659 -0.3852  0.0647
   48DOPE    HS 6083   6.865   2.193   3.136  0.3813 -1.4335  3.2744
   48DOPE   O21 6084   6.929   1.994   3.182  0.5974 -0.1407 -0.0458
   48DOPE   C21 6085   7.030   2.052   3.251 -0.0044 -0.0655 -0.6914
   48DOPE   O22 6086   7.053   2.171   3.258  0.9887  0.0004 -0.6671
   48DOPE   C22 6087   7.097   1.948   3.345 -0.0154  0.0797 -0.4386
   48DOPE   H2R 6088   7.145   1.874   3.277  0.3445  0.0878 -0.1951
   48DOPE   H2S 6089   7.031   1.893   3.417  0.6708  0.4155  0.4631
   48DOPE    C3 6090   6.711   2.048   3.086  0.2129 -0.4443  0.3778
   48DOPE    HX 6091   6.690   1.962   3.019 -2.9061  2.2751 -2.4982
   48DOPE    HY 6092   6.645   2.123   3.036 -0.6013 -0.0959  1.9142
   48DOPE   O31 6093   6.659   2.005   3.216  0.1246  0.4862  0.9559
   48DOPE   C31 6094   6.645   2.109   3.301 -0.1066 -0.0354  0.3681
   48DOPE   O32 6095   6.647   2.225   3.278 -0.1682  0.2548 -0.1265
   48DOPE   C32 6096   6.621   2.056   3.445  0.2379  0.0533 -0.9053
   48DOPE   H2X 6097   6.574   1.955   3.439  0.8256 -0.1909 -1.6038
   48DOPE   H2Y 6098   6.718   2.066   3.498 -0.1537  0.7503 -0.3061
   48DOPE   C23 6099   7.210   2.010   3.431 -0.1223 -0.6749 -0.3137
   48DOPE   H3R 6100   7.282   2.075   3.378  0.2069  0.4958  1.4772
   48DOPE   H3S 6101   7.271   1.923   3.466 -0.0819 -0.8896 -0.9056
   48DOPE   C24 6102   7.158   2.094   3.548  0.3486 -0.2413  0.1468
   48DOPE   H4R 6103   7.101   2.185   3.518  1.0479  1.1821  2.8268
   48DOPE   H4S 6104   7.244   2.121   3.613  1.0272 -1.2865 -0.3019
   48DOPE   C25 6105   7.082   2.004   3.643  0.2778  0.0256  0.0379
   48DOPE   H5R 6106   7.127   1.902   3.646 -0.4796 -0.3043  2.7349
   48DOPE   H5S 6107   6.975   1.995   3.614  0.0073  0.6246  0.8174
   48DOPE   C26 6108   7.083   2.051   3.792  0.3174  0.0954  0.5017
   48DOPE   H6R 6109   7.030   2.149   3.793  1.5688  0.8006  0.0144
   48DOPE   H6S 6110   7.191   2.071   3.810  0.5337  0.8801 -1.4346
   48DOPE   C27 6111   7.014   1.967   3.899 -0.1176  0.7478 -0.1920
   48DOPE   H7R 6112   7.051   1.865   3.873  1.3236  1.0471  0.5832
   48DOPE   H7S 6113   6.904   1.950   3.889 -0.5161  0.5169  3.2577
   48DOPE   C28 6114   7.044   2.004   4.047 -0.2152  0.3793  0.0963
   48DOPE   H8R 6115   6.978   2.090   4.068 -2.1520 -0.8271 -0.7476
   48DOPE   H8S 6116   7.152   2.027   4.048 -0.2629  0.6217 -0.2365
   48DOPE   C29 6117   7.008   1.891   4.133 -0.2819 -0.3384  0.7253
   48DOPE   H9R 6118   7.040   1.791   4.100  2.0459 -0.0824  1.9653
   48DOPE  C210 6119   6.974   1.904   4.262  0.7770 -0.8114 -0.4536
   48DOPE  H10R 6120   6.959   1.804   4.306  2.6272 -1.2348 -0.7402
   48DOPE  C211 6121   6.949   2.029   4.346  0.9447  0.1990 -0.1827
   48DOPE  H11R 6122   6.898   2.107   4.285 -1.2722 -0.3322  0.8588
   48DOPE  H11S 6123   7.054   2.056   4.369  0.9304 -0.6852  1.0397
   48DOPE  C212 6124   6.878   1.991   4.473 -0.6564  0.2907  1.0794
   48DOPE  H12R 6125   6.941   1.917   4.528  0.7261  2.0825  2.0149
   48DOPE  H12S 6126   6.779   1.946   4.452 -0.4667  0.3287  0.0296
   48DOPE  C213 6127   6.861   2.121   4.562  0.6905  0.2191 -0.0419
   48DOPE  H13R 6128   6.831   2.210   4.503  0.1085 -0.5261 -0.8977
   48DOPE  H13S 6129   6.964   2.130   4.602  0.4928  0.3174  0.4541
   48DOPE  C214 6130   6.756   2.118   4.675 -0.6634  0.1365  0.6650
   48DOPE  H14R 6131   6.776   2.037   4.747  1.5284 -0.4132 -0.4794
   48DOPE  H14S 6132   6.660   2.089   4.629  0.3622 -2.2957 -0.0955
   48DOPE  C215 6133   6.747   2.250   4.749  0.3050 -0.7931  0.0315
   48DOPE  H15R 6134   6.709   2.314   4.666  0.5817 -0.1379  0.3958
   48DOPE  H15S 6135   6.840   2.301   4.783 -0.8536  1.3195  0.2174
   48DOPE  C216 6136   6.632   2.246   4.860  0.2001  0.5543  0.6625
   48DOPE  H16R 6137   6.682   2.177   4.930 -1.8613 -2.6544 -0.8124
   48DOPE  H16S 6138   6.549   2.201   4.802  0.3539 -1.1721  1.7219
   48DOPE  C217 6139   6.598   2.386   4.918 -0.2064  0.2147  0.5543
   48DOPE  H17R 6140   6.569   2.461   4.840 -1.9686  0.1828  1.1418
   48DOPE  H17S 6141   6.692   2.416   4.969 -1.4949 -0.1528  3.2958
   48DOPE  C218 6142   6.491   2.397   5.030  0.1919  0.8975  0.2784
   48DOPE  H18R 6143   6.392   2.397   4.979  0.2617 -1.2410  0.0582
   48DOPE  H18S 6144   6.490   2.498   5.076 -0.8424  0.6660  0.7935
   48DOPE  H18T 6145   6.500   2.328   5.117  2.4244  0.7895  0.0219
   48DOPE   C33 6146   6.520   2.138   3.533 -0.7307 -0.5337 -0.3116
   48DOPE   H3X 6147   6.420   2.143   3.485 -0.4365 -0.4359 -0.9176
   48DOPE   H3Y 6148   6.555   2.243   3.534 -2.9931  0.2812  0.7854
   48DOPE   C34 6149   6.533   2.104   3.680  0.5102 -0.7678  0.4086
   48DOPE   H4X 6150   6.481   2.006   3.684  0.5533 -0.7936  0.3236
   48DOPE   H4Y 6151   6.641   2.111   3.705  0.0678  2.6091  2.0427
   48DOPE   C35 6152   6.474   2.199   3.782  0.0623 -0.1843 -0.9676
   48DOPE   H5X 6153   6.366   2.201   3.755 -0.3356 -2.1176  0.2155
   48DOPE   H5Y 6154   6.520   2.300   3.785  0.0924 -0.2159  0.5830
   48DOPE   C36 6155   6.487   2.134   3.929 -0.3138 -0.2818 -0.4093
   48DOPE   H6X 6156   6.594   2.134   3.957 -0.7511  1.5230  1.4545
   48DOPE   H6Y 6157   6.448   2.030   3.918 -0.7624 -0.0699 -0.8864
   48DOPE   C37 6158   6.405   2.211   4.026  0.2125 -0.7673 -0.1270
   48DOPE   H7X 6159   6.440   2.317   4.030 -0.2194 -0.6550  1.4500
   48DOPE   H7Y 6160   6.307   2.212   3.973 -1.1051  1.1405  2.1433
   48DOPE   C38 6161   6.400   2.143   4.160 -0.7125 -0.6252 -0.4140
   48DOPE   H8X 6162   6.388   2.034   4.148  2.3077 -1.1234  0.4312
   48DOPE   H8Y 6163   6.315   2.185   4.219 -0.3849 -1.3936  0.6327
   48DOPE   C39 6164   6.531   2.171   4.234 -0.1810  0.0093 -0.6303
   48DOPE   H9X 6165   6.617   2.213   4.181 -0.2573  0.1672 -0.6304
   48DOPE  C310 6166   6.553   2.126   4.359 -0.0475  0.6512 -0.2790
   48DOPE  H10X 6167   6.644   2.165   4.405  0.0142  2.0832 -1.5678
   48DOPE  C311 6168   6.449   2.039   4.433  0.0761 -0.4127 -0.2983
   48DOPE  H11X 6169   6.381   1.992   4.359 -0.5261  0.8336 -0.5681
   48DOPE  H11Y 6170   6.500   1.958   4.489  1.6226  0.6112 -0.1529
   48DOPE  C312 6171   6.335   2.110   4.526  0.2830  0.8959  0.4189
   48DOPE  H12X 6172   6.285   2.194   4.475 -0.6164  1.0385  1.4817
   48DOPE  H12Y 6173   6.389   2.154   4.613  0.4071  1.2019  0.1889
   48DOPE  C313 6174   6.224   2.016   4.564  0.0002 -0.3750  0.2435
   48DOPE  H13X 6175   6.166   1.982   4.476 -0.1047  0.6750 -0.0988
   48DOPE  H13Y 6176   6.264   1.917   4.594 -2.9881 -1.6570  0.4143
   48DOPE  C314 6177   6.124   2.068   4.669 -0.0736 -0.3307  0.0590
   48DOPE  H14X 6178   6.173   2.090   4.766  0.9687  0.7148 -0.6839
   48DOPE  H14Y 6179   6.044   1.991   4.680 -0.4747  0.0418 -0.2067
   48DOPE  C315 6180   6.045   2.197   4.627 -0.4055  0.0945  0.4406
   48DOPE  H15X 6181   5.976   2.185   4.541 -1.7358  1.3008  1.3053
   48DOPE  H15Y 6182   6.117   2.279   4.608  0.1053 -0.7087 -1.3855
   48DOPE  C316 6183   5.952   2.229   4.742 -1.2147 -0.1076  0.2476
   48DOPE  H16X 6184   5.903   2.329   4.739  0.2808  0.6305 -0.1691
   48DOPE  H16Y 6185   6.012   2.234   4.835  0.5518  1.8326 -0.9061
   48DOPE  C317 6186   5.836   2.131   4.762  0.4189 -0.3233 -0.3861
   48DOPE  H17X 6187   5.788   2.136   4.662  1.8482 -0.6913 -1.1129
   48DOPE  H17Y 6188   5.860   2.024   4.774  1.1732 -0.4226 -2.3336
   48DOPE  C318 6189   5.742   2.183   4.877 -0.2458 -0.2705 -0.2312
   48DOPE  H18X 6190   5.634   2.160   4.862 -0.7478  2.7733 -2.2931
   48DOPE  H18Y 6191   5.792   2.137   4.964  3.3932 -0.6832 -2.3366
   48DOPE  H18Z 6192   5.752   2.293   4.884 -0.3924 -0.2632 -0.1223
   49DOPE     N 6193   1.692   7.083   3.123  0.4447 -1.3817  0.0699
   49DOPE   HN1 6194   1.647   7.127   3.206 -0.9100  0.1507 -1.3936
   49DOPE   HN2 6195   1.692   7.157   3.050 -1.1220 -2.6265 -1.2843
   49DOPE   HN3 6196   1.619   7.019   3.086 -0.4349  0.5296 -1.7574
   49DOPE   C12 6197   1.828   7.015   3.145 -0.5069 -0.5431  0.1547
   49DOPE  H12A 6198   1.847   6.993   3.252  1.2224  0.9811  0.2272
   49DOPE  H12B 6199   1.902   7.093   3.116 -0.5296 -0.7671 -0.5183
   49DOPE   C11 6200   1.847   6.880   3.073  0.6384 -0.5078 -0.3690
   49DOPE  H11A 6201   1.945   6.840   3.106  0.3017 -1.3874 -0.4021
   49DOPE  H11B 6202   1.857   6.890   2.962  2.2294 -2.8992 -0.5036
   49DOPE     P 6203   1.777   6.633   3.099  0.0505  0.1161 -0.4517
   49DOPE   O13 6204   1.873   6.617   2.994 -0.2485 -0.5635  0.1504
   49DOPE   O14 6205   1.658   6.544   3.093 -0.3153 -0.1946  0.2000
   49DOPE   O11 6206   1.834   6.622   3.242 -0.1493  0.0943  0.3114
   49DOPE   O12 6207   1.733   6.790   3.097  0.1134 -0.0188 -0.2967
   49DOPE    C1 6208   1.936   6.523   3.273 -0.2011 -0.4612 -0.3860
   49DOPE    HA 6209   2.030   6.536   3.214  0.3244 -1.8166  0.1161
   49DOPE    HB 6210   1.913   6.418   3.247 -1.1898 -0.8286  1.7612
   49DOPE    C2 6211   1.982   6.557   3.419 -0.6018 -0.0566 -0.0562
   49DOPE    HS 6212   2.066   6.497   3.460  0.8259  1.5996 -0.4283
   49DOPE   O21 6213   1.866   6.551   3.507  0.3066  0.0251 -0.0159
   49DOPE   C21 6214   1.843   6.425   3.542 -0.1739  0.6772  0.2891
   49DOPE   O22 6215   1.898   6.329   3.502 -0.3578  0.0127  0.1416
   49DOPE   C22 6216   1.734   6.422   3.640  0.2142 -0.1417 -0.1498
   49DOPE   H2R 6217   1.637   6.423   3.587  0.0941 -2.4185 -0.0645
   49DOPE   H2S 6218   1.744   6.512   3.706 -1.8463 -0.0532  0.0928
   49DOPE    C3 6219   2.043   6.704   3.432  1.0197 -0.1791  0.4307
   49DOPE    HX 6220   1.964   6.777   3.404  0.7779 -0.7269 -0.3510
   49DOPE    HY 6221   2.127   6.718   3.360 -0.0347  0.0253 -0.7993
   49DOPE   O31 6222   2.083   6.731   3.567  0.1699  0.6655 -0.2926
   49DOPE   C31 6223   1.992   6.787   3.650  0.0136  0.5478  0.5913
   49DOPE   O32 6224   1.879   6.824   3.621  0.0629  0.5166 -0.0575
   49DOPE   C32 6225   2.060   6.798   3.782 -0.6522 -0.0043  0.1005
   49DOPE   H2X 6226   2.106   6.699   3.799 -1.4281 -0.7681 -1.9278
   49DOPE   H2Y 6227   2.137   6.877   3.768  0.6728 -1.4948 -1.5982
   49DOPE   C23 6228   1.746   6.296   3.738 -0.0866 -0.0054  0.6319
   49DOPE   H3R 6229   1.767   6.209   3.672  0.1469 -1.1117  2.0994
   49DOPE   H3S 6230   1.644   6.286   3.782 -1.1269 -0.1660 -1.6630
   49DOPE   C24 6231   1.854   6.333   3.842 -0.4864  0.2159  0.3448
   49DOPE   H4R 6232   1.850   6.440   3.872  0.4681  1.3213 -3.0912
   49DOPE   H4S 6233   1.949   6.329   3.784 -0.8553 -0.3510 -0.2238
   49DOPE   C25 6234   1.859   6.244   3.964 -0.3809 -0.8046  0.8284
   49DOPE   H5R 6235   1.889   6.144   3.927 -1.2987 -1.0499  0.7243
   49DOPE   H5S 6236   1.757   6.239   4.008  0.8014  0.9476  4.1028
   49DOPE   C26 6237   1.965   6.286   4.061 -0.0434  0.0464  0.0306
   49DOPE   H6R 6238   1.945   6.392   4.091  0.3752  0.1242  0.0421
   49DOPE   H6S 6239   2.063   6.286   4.008  0.2964 -1.2699  0.6234
   49DOPE   C27 6240   1.976   6.187   4.177  0.0562  0.5372  0.6724
   49DOPE   H7R 6241   1.993   6.086   4.135  4.0200  2.1613 -2.1982
   49DOPE   H7S 6242   1.878   6.184   4.230  0.6480 -0.3091  1.7564
   49DOPE   C28 6243   2.086   6.222   4.283  0.5266  0.4732  0.3757
   49DOPE   H8R 6244   2.182   6.223   4.226  1.3820  0.5846  1.7672
   49DOPE   H8S 6245   2.085   6.138   4.355 -0.4587  1.8800  2.0851
   49DOPE   C29 6246   2.069   6.349   4.355 -0.3130  0.1545 -0.5106
   49DOPE   H9R 6247   2.063   6.437   4.290 -0.6645  0.6933  0.2445
   49DOPE  C210 6248   2.042   6.357   4.487  0.3503 -0.0229 -0.2856
   49DOPE  H10R 6249   2.032   6.459   4.526  2.0207  0.0636 -0.0069
   49DOPE  C211 6250   2.020   6.246   4.585  0.6945 -0.7065 -0.6753
   49DOPE  H11R 6251   1.975   6.150   4.552 -1.9617  0.3590 -0.4657
   49DOPE  H11S 6252   1.957   6.271   4.673 -0.0660 -2.3126 -0.7293
   49DOPE  C212 6253   2.157   6.215   4.656  0.0396 -0.3131 -0.1134
   49DOPE  H12R 6254   2.226   6.155   4.593  0.4111 -0.1633  0.1478
   49DOPE  H12S 6255   2.135   6.159   4.749  2.6237 -0.8080  0.2580
   49DOPE  C213 6256   2.234   6.332   4.706 -0.3934 -0.3588 -0.1057
   49DOPE  H13R 6257   2.169   6.405   4.757  2.7337  1.7953  1.1201
   49DOPE  H13S 6258   2.284   6.393   4.628  0.4527 -0.0841  0.6279
   49DOPE  C214 6259   2.345   6.292   4.807  0.1379  0.0006 -0.0319
   49DOPE  H14R 6260   2.295   6.264   4.902 -0.7172  0.8100 -0.2315
   49DOPE  H14S 6261   2.399   6.387   4.826  1.6244 -0.9514  0.7089
   49DOPE  C215 6262   2.447   6.189   4.751 -0.9142 -0.0118 -0.0422
   49DOPE  H15R 6263   2.459   6.212   4.643  0.8518 -0.7799 -0.0316
   49DOPE  H15S 6264   2.419   6.082   4.761 -0.8762 -0.1711 -1.5043
   49DOPE  C216 6265   2.580   6.199   4.823 -0.8907  0.0098  0.0863
   49DOPE  H16R 6266   2.583   6.168   4.930  2.0214 -2.1229 -0.4937
   49DOPE  H16S 6267   2.621   6.302   4.825  1.8936 -0.9826 -0.7726
   49DOPE  C217 6268   2.678   6.095   4.756 -0.1914 -0.1828 -0.3725
   49DOPE  H17R 6269   2.651   5.990   4.779  1.2377 -0.3385  0.6923
   49DOPE  H17S 6270   2.771   6.123   4.810 -0.1803 -1.5066  0.3246
   49DOPE  C218 6271   2.696   6.106   4.604  0.6971  0.7320  0.1495
   49DOPE  H18R 6272   2.610   6.068   4.545  1.4821 -0.1177 -0.4790
   49DOPE  H18S 6273   2.787   6.050   4.574 -0.4331 -0.1444 -1.8054
   49DOPE  H18T 6274   2.700   6.212   4.571  0.6822  0.9732  0.8940
   49DOPE   C33 6275   1.959   6.835   3.896  0.0829  0.4237 -0.4374
   49DOPE   H3X 6276   1.912   6.931   3.864 -2.4585 -0.4150  0.5902
   49DOPE   H3Y 6277   2.007   6.853   3.995 -0.9756 -0.3119  0.2227
   49DOPE   C34 6278   1.848   6.730   3.909  0.0803  0.1293 -0.4242
   49DOPE   H4X 6279   1.794   6.699   3.817 -0.2971 -0.7416  0.0829
   49DOPE   H4Y 6280   1.902   6.642   3.948 -1.4875 -0.8529 -0.3692
   49DOPE   C35 6281   1.748   6.774   4.015 -0.6550 -0.1742 -0.1221
   49DOPE   H5X 6282   1.708   6.874   3.986  0.5209  0.8936  1.7310
   49DOPE   H5Y 6283   1.781   6.784   4.120  2.1657  3.2070 -1.1200
   49DOPE   C36 6284   1.634   6.673   4.027 -0.6233  0.7751 -0.6060
   49DOPE   H6X 6285   1.669   6.577   4.069  1.7053  3.0459  3.2642
   49DOPE   H6Y 6286   1.599   6.664   3.921 -1.3941  2.0720 -0.4873
   49DOPE   C37 6287   1.534   6.731   4.120 -0.5667  0.7456  0.2641
   49DOPE   H7X 6288   1.566   6.731   4.226  0.5012  0.6317 -0.0438
   49DOPE   H7Y 6289   1.542   6.839   4.099  0.7026  0.8099  0.9853
   49DOPE   C38 6290   1.387   6.678   4.094 -0.3019  0.4283  0.5813
   49DOPE   H8X 6291   1.374   6.673   3.984  0.7593  0.1422  0.4559
   49DOPE   H8Y 6292   1.303   6.746   4.120  1.7941  3.3852  0.1740
   49DOPE   C39 6293   1.360   6.542   4.149  0.1324 -0.6253 -0.1505
   49DOPE   H9X 6294   1.444   6.475   4.170 -2.5718 -3.9473  1.0536
   49DOPE  C310 6295   1.233   6.492   4.147 -1.0042 -0.3275  0.2158
   49DOPE  H10X 6296   1.235   6.386   4.176 -0.3822 -0.6501 -0.9415
   49DOPE  C311 6297   1.110   6.562   4.099  1.0735  0.5789  0.2310
   49DOPE  H11X 6298   1.031   6.545   4.176  0.6737 -1.6884 -0.6342
   49DOPE  H11Y 6299   1.128   6.668   4.069 -0.5386  0.5878 -0.8160
   49DOPE  C312 6300   1.059   6.498   3.967  0.2455 -0.8159  0.5565
   49DOPE  H12X 6301   1.027   6.394   3.992  0.7159 -1.3894 -1.0868
   49DOPE  H12Y 6302   1.138   6.494   3.889  0.4871  0.2076  0.7378
   49DOPE  C313 6303   0.933   6.572   3.920 -0.2723  0.8885  1.1025
   49DOPE  H13X 6304   0.866   6.577   4.008 -1.9460  0.8434 -0.1212
   49DOPE  H13Y 6305   0.941   6.673   3.875 -0.3089 -0.1140 -1.2809
   49DOPE  C314 6306   0.855   6.476   3.821 -0.2968 -0.7071 -0.3246
   49DOPE  H14X 6307   0.755   6.521   3.802 -0.0167 -0.1746 -0.5222
   49DOPE  H14Y 6308   0.841   6.377   3.870 -0.9109  0.4150  1.9009
   49DOPE  C315 6309   0.932   6.464   3.690 -0.7530  0.1429  0.2371
   49DOPE  H15X 6310   0.913   6.376   3.625  1.9593 -0.7340  0.4885
   49DOPE  H15Y 6311   1.039   6.461   3.721 -0.6892 -1.2110 -0.0619
   49DOPE  C316 6312   0.915   6.585   3.593 -0.3689 -0.1563  0.1264
   49DOPE  H16X 6313   0.998   6.583   3.519  0.9649  1.2264  1.5175
   49DOPE  H16Y 6314   0.935   6.681   3.646  1.9529  0.0388 -1.0054
   49DOPE  C317 6315   0.782   6.581   3.514  0.0351 -0.4631 -0.3171
   49DOPE  H17X 6316   0.780   6.488   3.452 -0.2258 -1.2416  0.8299
   49DOPE  H17Y 6317   0.693   6.580   3.580 -1.5707  0.3517 -2.3813
   49DOPE  C318 6318   0.759   6.712   3.438  0.6937  0.2500  0.5161
   49DOPE  H18X 6319   0.850   6.720   3.374  2.2375 -0.3866  2.5397
   49DOPE  H18Y 6320   0.667   6.704   3.377  2.8004 -0.0503 -2.9036
   49DOPE  H18Z 6321   0.758   6.799   3.507  2.4016 -0.2049  1.1834
   50DOPE     N 6322   0.896   3.235   3.011 -0.5886 -0.7659  0.1705
   50DOPE   HN1 6323   0.797   3.213   3.038  0.4047 -2.4828  2.7950
   50DOPE   HN2 6324   0.949   3.146   3.014 -0.4473 -0.6447  1.7898
   50DOPE   HN3 6325   0.942   3.298   3.079  2.6992 -1.5386 -1.1525
   50DOPE   C12 6326   0.903   3.296   2.869  0.3149  0.0870 -0.3268
   50DOPE  H12A 6327   0.847   3.223   2.806 -0.2616 -1.0496  1.3987
   50DOPE  H12B 6328   1.007   3.301   2.830  1.4275 -1.9149  2.0579
   50DOPE   C11 6329   0.831   3.437   2.873  0.0656  0.0187 -0.0713
   50DOPE  H11A 6330   0.843   3.477   2.770 -0.6542  0.2289 -0.0829
   50DOPE  H11B 6331   0.892   3.501   2.940  2.4281  0.4640 -2.4837
   50DOPE     P 6332   0.605   3.551   2.926 -0.0291  0.2694 -0.2258
   50DOPE   O13 6333   0.465   3.503   2.939 -0.2576 -0.0430 -0.5323
   50DOPE   O14 6334   0.645   3.640   2.817 -0.5388  0.1280 -0.0405
   50DOPE   O11 6335   0.647   3.615   3.068 -0.8950  0.3519  0.3320
   50DOPE   O12 6336   0.693   3.421   2.914 -0.4694  0.0721  0.5149
   50DOPE    C1 6337   0.688   3.528   3.174  0.2300  0.1219  0.3630
   50DOPE    HA 6338   0.789   3.484   3.157 -0.9049 -2.4682 -0.0725
   50DOPE    HB 6339   0.616   3.444   3.169 -0.8965  1.1461 -1.4379
   50DOPE    C2 6340   0.680   3.596   3.313 -0.6041 -0.0754  0.0934
   50DOPE    HS 6341   0.676   3.519   3.393 -0.6260  2.0659  2.2692
   50DOPE   O21 6342   0.572   3.695   3.319 -0.6762  0.6672 -0.0515
   50DOPE   C21 6343   0.452   3.646   3.320  0.1231  0.0971  0.2570
   50DOPE   O22 6344   0.424   3.529   3.334  0.2979  0.5380 -0.7619
   50DOPE   C22 6345   0.344   3.754   3.318 -0.2433  1.3375  0.7954
   50DOPE   H2R 6346   0.245   3.715   3.286  1.1520  0.2862 -2.6185
   50DOPE   H2S 6347   0.368   3.836   3.248 -0.4413 -0.1316 -1.0677
   50DOPE    C3 6348   0.815   3.669   3.343 -0.0276 -0.6656  0.1688
   50DOPE    HX 6349   0.835   3.752   3.272  2.6191 -1.4515 -0.1311
   50DOPE    HY 6350   0.905   3.604   3.334  0.6812 -0.1216  2.5096
   50DOPE   O31 6351   0.807   3.723   3.476  0.2251 -0.2475 -0.4057
   50DOPE   C31 6352   0.809   3.647   3.587 -0.5796 -0.4479 -0.1603
   50DOPE   O32 6353   0.826   3.526   3.590  0.1532 -0.0959 -0.3762
   50DOPE   C32 6354   0.772   3.724   3.718 -0.1509 -0.3297  0.1193
   50DOPE   H2X 6355   0.864   3.751   3.776 -2.0520 -1.5897  4.0991
   50DOPE   H2Y 6356   0.715   3.814   3.689 -0.7582  0.2369  2.7462
   50DOPE   C23 6357   0.346   3.830   3.457  0.4731 -0.0656  0.2269
   50DOPE   H3R 6358   0.300   3.928   3.435 -1.3951 -0.7920  0.6567
   50DOPE   H3S 6359   0.451   3.849   3.487  0.1056  2.5823  0.0809
   50DOPE   C24 6360   0.265   3.762   3.565  0.3402 -0.1861 -0.5255
   50DOPE   H4R 6361   0.284   3.653   3.578 -1.3653 -0.2432  2.3449
   50DOPE   H4S 6362   0.160   3.777   3.530 -0.0130 -1.7474 -0.1920
   50DOPE   C25 6363   0.274   3.827   3.707 -0.4975 -0.4370 -0.8874
   50DOPE   H5R 6364   0.262   3.936   3.691  0.0953 -0.2884 -0.3653
   50DOPE   H5S 6365   0.372   3.796   3.748 -0.4238  0.5292 -0.3100
   50DOPE   C26 6366   0.167   3.770   3.800  0.1597 -0.4861 -0.4312
   50DOPE   H6R 6367   0.187   3.661   3.810  0.2499 -0.4578 -0.3085
   50DOPE   H6S 6368   0.068   3.786   3.752 -0.6556 -0.8438  1.0763
   50DOPE   C27 6369   0.165   3.855   3.934 -0.0193  0.7675 -0.5113
   50DOPE   H7R 6370   0.265   3.858   3.982  0.1374 -1.6750 -0.5550
   50DOPE   H7S 6371   0.104   3.791   4.000  0.3147  1.5819  0.6278
   50DOPE   C28 6372   0.117   4.005   3.922  0.1159  0.4476  0.0010
   50DOPE   H8R 6373   0.201   4.071   3.889  1.4559 -0.3813  1.6008
   50DOPE   H8S 6374   0.103   4.051   4.022  0.9696  0.6789  0.0241
   50DOPE   C29 6375  -0.022   4.022   3.862 -0.3447 -0.0380 -0.5582
   50DOPE   H9R 6376  -0.039   4.024   3.754 -1.7976 -0.5978 -0.3585
   50DOPE  C210 6377  -0.137   4.025   3.935 -1.0690 -0.0045 -0.5713
   50DOPE  H10R 6378  -0.231   4.042   3.880 -1.2264 -1.7312 -0.8761
   50DOPE  C211 6379  -0.142   4.005   4.088 -0.2151 -0.1655  0.7637
   50DOPE  H11R 6380  -0.084   4.081   4.144 -2.4015  0.9057  1.7044
   50DOPE  H11S 6381  -0.109   3.902   4.111 -0.2203 -0.2123  0.5656
   50DOPE  C212 6382  -0.288   4.027   4.133 -0.8777  0.0011 -0.2375
   50DOPE  H12R 6383  -0.294   3.967   4.226 -0.1707  1.0293  0.5033
   50DOPE  H12S 6384  -0.367   3.995   4.062 -0.4527 -1.2120 -0.1796
   50DOPE  C213 6385  -0.317   4.167   4.184 -0.2448  0.1954 -0.2700
   50DOPE  H13R 6386  -0.424   4.196   4.193  0.2495  1.7879  1.1155
   50DOPE  H13S 6387  -0.288   4.245   4.111 -2.2214  0.7634 -0.5061
   50DOPE  C214 6388  -0.248   4.203   4.324 -0.1698 -0.4845  0.7270
   50DOPE  H14R 6389  -0.273   4.311   4.337 -1.0869 -0.8536  2.2526
   50DOPE  H14S 6390  -0.137   4.207   4.323 -0.1955  0.4055 -0.0435
   50DOPE  C215 6391  -0.299   4.130   4.450 -0.2398 -0.0139  0.2209
   50DOPE  H15R 6392  -0.291   4.023   4.424 -2.3883 -0.1451 -0.1466
   50DOPE  H15S 6393  -0.406   4.154   4.470  0.1414  0.7805  1.4462
   50DOPE  C216 6394  -0.206   4.149   4.563  0.7632 -0.6279  0.8619
   50DOPE  H16R 6395  -0.218   4.254   4.599 -1.1374  0.8152 -3.2831
   50DOPE  H16S 6396  -0.105   4.143   4.517 -0.0516 -1.2316 -0.9633
   50DOPE  C217 6397  -0.231   4.044   4.667 -0.4505  0.3919  0.1048
   50DOPE  H17R 6398  -0.155   4.062   4.747  0.9850 -2.2935 -0.5317
   50DOPE  H17S 6399  -0.209   3.947   4.618 -0.7894  1.2248 -1.7870
   50DOPE  C218 6400  -0.365   4.046   4.742  0.0197 -0.1118  0.8036
   50DOPE  H18R 6401  -0.448   4.102   4.695 -1.2002 -1.7635  0.8978
   50DOPE  H18S 6402  -0.348   4.084   4.845  1.1926 -3.7495  2.1210
   50DOPE  H18T 6403  -0.404   3.943   4.757  0.7589 -0.4095  0.7109
   50DOPE   C33 6404   0.682   3.646   3.808 -0.7523  0.4170  0.1004
   50DOPE   H3X 6405   0.734   3.555   3.846 -0.0197  0.1113 -1.5440
   50DOPE   H3Y 6406   0.593   3.612   3.752 -0.3001 -2.0084  0.7415
   50DOPE   C34 6407   0.621   3.728   3.932 -0.1816  0.1920  0.0964
   50DOPE   H4X 6408   0.552   3.806   3.896 -0.8244 -0.5160 -0.2386
   50DOPE   H4Y 6409   0.546   3.661   3.978 -0.8774  2.3197  2.2505
   50DOPE   C35 6410   0.726   3.769   4.038 -0.4254 -0.1662  0.3498
   50DOPE   H5X 6411   0.791   3.846   3.991 -0.0793 -0.6323  0.0459
   50DOPE   H5Y 6412   0.788   3.679   4.058 -1.0867 -0.8008 -0.4003
   50DOPE   C36 6413   0.668   3.827   4.172  0.3088  0.2281 -0.0180
   50DOPE   H6X 6414   0.636   3.746   4.241 -0.3603 -0.6435 -1.3202
   50DOPE   H6Y 6415   0.582   3.893   4.145  0.7584  0.3404 -1.2074
   50DOPE   C37 6416   0.766   3.922   4.244  0.2454 -0.5963  0.2246
   50DOPE   H7X 6417   0.867   3.879   4.228  0.5652  0.5308 -0.9648
   50DOPE   H7Y 6418   0.765   4.012   4.179 -0.8432 -1.7179 -1.4016
   50DOPE   C38 6419   0.729   3.927   4.392 -0.5118  1.2235  0.4884
   50DOPE   H8X 6420   0.746   3.821   4.422 -0.0222  1.4012  0.8378
   50DOPE   H8Y 6421   0.622   3.958   4.400 -0.6846  0.6684  0.4004
   50DOPE   C39 6422   0.826   4.008   4.471 -0.5887 -0.3560 -0.4046
   50DOPE   H9X 6423   0.932   3.976   4.477 -0.1745  1.1426  2.6272
   50DOPE  C310 6424   0.787   4.098   4.571  0.6130 -0.0730  0.2917
   50DOPE  H10X 6425   0.856   4.169   4.619  0.8891 -0.2261  0.1285
   50DOPE  C311 6426   0.640   4.137   4.600  0.2133 -0.4895  0.3407
   50DOPE  H11X 6427   0.582   4.135   4.506  0.7338  0.7419 -0.0273
   50DOPE  H11Y 6428   0.604   4.062   4.674  3.9834 -2.3910  0.5065
   50DOPE  C312 6429   0.624   4.278   4.654 -0.4436  0.3113  0.6001
   50DOPE  H12X 6430   0.685   4.347   4.591 -2.7429  0.4163 -1.6788
   50DOPE  H12Y 6431   0.668   4.273   4.756  1.8771 -0.5999 -0.3550
   50DOPE  C313 6432   0.473   4.320   4.644  0.0147 -0.0582  0.0472
   50DOPE  H13X 6433   0.436   4.306   4.540  0.2424  1.4798 -0.2714
   50DOPE  H13Y 6434   0.413   4.250   4.706  0.1610 -0.7324 -0.5695
   50DOPE  C314 6435   0.442   4.462   4.690 -0.1902 -0.4130  0.1906
   50DOPE  H14X 6436   0.523   4.531   4.656 -0.2529  0.3590  1.5298
   50DOPE  H14Y 6437   0.450   4.458   4.801 -1.5260 -2.2125  0.2641
   50DOPE  C315 6438   0.318   4.528   4.630 -0.2001  0.7768 -0.1678
   50DOPE  H15X 6439   0.228   4.462   4.625 -2.3170  3.4932 -0.3806
   50DOPE  H15Y 6440   0.333   4.576   4.531  1.2113  2.6216  0.8805
   50DOPE  C316 6441   0.267   4.647   4.720 -0.4467 -0.1306 -0.1154
   50DOPE  H16X 6442   0.227   4.600   4.813 -1.0308  1.2334  0.3568
   50DOPE  H16Y 6443   0.185   4.698   4.664 -1.6608 -2.6578 -0.7745
   50DOPE  C317 6444   0.372   4.756   4.764 -0.4652 -0.2991  0.1121
   50DOPE  H17X 6445   0.450   4.710   4.829 -1.4986 -1.8836  0.2911
   50DOPE  H17Y 6446   0.422   4.805   4.678  2.7363  0.6807  2.3359
   50DOPE  C318 6447   0.296   4.860   4.852 -0.1197  0.2132 -0.0631
   50DOPE  H18X 6448   0.252   4.941   4.789  1.2985  0.4227 -0.8412
   50DOPE  H18Y 6449   0.216   4.797   4.895  0.6546 -2.0121 -1.6952
   50DOPE  H18Z 6450   0.365   4.897   4.931  0.2819 -1.5884  0.4556
   51DOPE     N 6451   2.536   6.939   3.042 -0.1597  0.0948  0.7517
   51DOPE   HN1 6452   2.592   6.965   3.126  0.7454  1.8825 -0.3520
   51DOPE   HN2 6453   2.453   7.000   3.029 -1.4086 -1.2369  2.0103
   51DOPE   HN3 6454   2.497   6.843   3.055  0.8483 -0.5080 -0.3885
   51DOPE   C12 6455   2.623   6.925   2.916 -0.2759 -0.2654 -0.4067
   51DOPE  H12A 6456   2.647   7.025   2.873 -1.5499 -0.0703 -0.7011
   51DOPE  H12B 6457   2.562   6.872   2.839 -1.8885  1.1916 -0.2044
   51DOPE   C11 6458   2.760   6.853   2.936  0.1162  0.3399 -0.2674
   51DOPE  H11A 6459   2.829   6.906   3.006 -0.0169  0.4701 -0.2342
   51DOPE  H11B 6460   2.820   6.837   2.844  1.8219 -0.8549  0.9826
   51DOPE     P 6461   2.744   6.584   2.961 -0.1214 -0.2908  0.0623
   51DOPE   O13 6462   2.670   6.579   2.832  0.2201  0.4626 -0.3932
   51DOPE   O14 6463   2.694   6.495   3.065 -0.2719 -0.0174 -0.4518
   51DOPE   O11 6464   2.896   6.566   2.932 -0.1944 -0.0073  0.0978
   51DOPE   O12 6465   2.740   6.734   3.010 -0.7804  0.4890 -0.4780
   51DOPE    C1 6466   3.004   6.617   3.004 -0.4066  0.0453 -0.1676
   51DOPE    HA 6467   3.066   6.532   3.040 -0.6023  0.0907  0.2798
   51DOPE    HB 6468   2.961   6.671   3.091  0.3316  1.2529 -0.5233
   51DOPE    C2 6469   3.099   6.711   2.926  0.1342  0.2607 -0.5483
   51DOPE    HS 6470   3.037   6.786   2.872 -1.7475 -1.8229 -1.4273
   51DOPE   O21 6471   3.166   6.631   2.831  0.0214 -0.1023  0.1387
   51DOPE   C21 6472   3.108   6.622   2.712 -0.0011  0.6009 -0.4948
   51DOPE   O22 6473   3.020   6.688   2.670  0.8763 -0.4290 -0.4784
   51DOPE   C22 6474   3.177   6.502   2.637  0.1903  0.3544 -0.4198
   51DOPE   H2R 6475   3.221   6.443   2.720 -3.5292  0.8957  2.2252
   51DOPE   H2S 6476   3.248   6.551   2.567  2.5926 -1.9781  0.2274
   51DOPE    C3 6477   3.206   6.790   3.018  0.1843  0.0330 -0.3474
   51DOPE    HX 6478   3.282   6.827   2.946 -1.2230  2.3577 -0.7177
   51DOPE    HY 6479   3.255   6.711   3.080 -0.3290 -0.4339 -0.5215
   51DOPE   O31 6480   3.160   6.890   3.108 -0.5786 -0.3568  0.1853
   51DOPE   C31 6481   3.162   7.010   3.046  0.4387 -0.2939  0.2436
   51DOPE   O32 6482   3.208   7.025   2.935 -0.1438 -0.0480  0.0783
   51DOPE   C32 6483   3.090   7.110   3.121  0.4271 -0.0524 -0.3634
   51DOPE   H2X 6484   3.048   7.193   3.060  1.2748  0.2640 -0.5153
   51DOPE   H2Y 6485   3.001   7.062   3.167  1.9508 -2.4854  0.2443
   51DOPE   C23 6486   3.082   6.414   2.556  0.5899  0.4219 -0.7404
   51DOPE   H3R 6487   3.144   6.343   2.497  3.3092  0.8038  1.4135
   51DOPE   H3S 6488   3.009   6.465   2.490 -2.0391 -2.3988 -0.2581
   51DOPE   C24 6489   2.987   6.315   2.636 -0.1104  0.2431 -0.2777
   51DOPE   H4R 6490   2.915   6.378   2.693  1.6409  1.5321  0.6244
   51DOPE   H4S 6491   3.058   6.259   2.700 -2.9110 -2.4331  0.7031
   51DOPE   C25 6492   2.919   6.210   2.554 -0.4557  0.5571  0.3989
   51DOPE   H5R 6493   2.997   6.163   2.491 -1.3642  1.4593 -1.4912
   51DOPE   H5S 6494   2.843   6.252   2.484  0.1350 -1.1665 -1.3676
   51DOPE   C26 6495   2.860   6.095   2.643 -0.2055  0.0200  0.3042
   51DOPE   H6R 6496   2.760   6.133   2.674 -0.5567 -0.6644  0.0284
   51DOPE   H6S 6497   2.917   6.073   2.736  0.7869  1.3578  0.0264
   51DOPE   C27 6498   2.838   5.963   2.573 -0.1828 -0.1762 -0.0607
   51DOPE   H7R 6499   2.934   5.908   2.569  0.2760  0.4574  1.4832
   51DOPE   H7S 6500   2.815   5.972   2.465  1.1842 -0.1439 -0.3661
   51DOPE   C28 6501   2.736   5.879   2.647 -0.5263 -0.4873  0.3182
   51DOPE   H8R 6502   2.641   5.934   2.661 -2.3011 -3.4031  0.6314
   51DOPE   H8S 6503   2.764   5.876   2.754  1.6414 -1.2373 -0.2197
   51DOPE   C29 6504   2.707   5.751   2.577  0.1544  0.7450  0.5332
   51DOPE   H9R 6505   2.660   5.764   2.478 -0.2041  0.1149  0.6169
   51DOPE  C210 6506   2.734   5.628   2.622  0.0635  0.5547 -0.3005
   51DOPE  H10R 6507   2.719   5.545   2.551  0.7778 -0.8950  1.1762
   51DOPE  C211 6508   2.800   5.592   2.753  0.2945 -0.0896  0.0578
   51DOPE  H11R 6509   2.847   5.686   2.789  1.7789 -0.4247 -0.9292
   51DOPE  H11S 6510   2.870   5.510   2.727  0.0014 -0.2670 -0.1761
   51DOPE  C212 6511   2.685   5.533   2.850 -0.3765  0.1542  0.4319
   51DOPE  H12R 6512   2.669   5.433   2.805  3.5380 -0.9098  1.0878
   51DOPE  H12S 6513   2.596   5.600   2.844  0.5281  1.2484 -2.3109
   51DOPE  C213 6514   2.722   5.516   3.004 -0.1615 -0.2333 -0.3371
   51DOPE  H13R 6515   2.799   5.436   3.015  0.7706  0.5752 -0.8568
   51DOPE  H13S 6516   2.628   5.481   3.051  0.3953 -0.6444  0.4977
   51DOPE  C214 6517   2.763   5.644   3.083 -0.2545 -0.2405  0.2949
   51DOPE  H14R 6518   2.689   5.728   3.085  1.2078  1.1728 -1.3763
   51DOPE  H14S 6519   2.857   5.687   3.043 -1.0537  0.7519 -0.5893
   51DOPE  C215 6520   2.795   5.618   3.232 -0.4850  0.2394 -0.1048
   51DOPE  H15R 6521   2.862   5.702   3.260  0.1195 -0.0553 -0.6662
   51DOPE  H15S 6522   2.865   5.532   3.242  1.3269  1.6846  0.1312
   51DOPE  C216 6523   2.670   5.605   3.320  0.4451 -0.5120  0.0502
   51DOPE  H16R 6524   2.608   5.521   3.281 -1.4465  0.0663  1.6251
   51DOPE  H16S 6525   2.609   5.696   3.300  1.2745 -0.0716 -0.5544
   51DOPE  C217 6526   2.694   5.574   3.466 -0.2360 -0.1567  0.3367
   51DOPE  H17R 6527   2.754   5.660   3.504  1.4067 -0.8784 -0.5154
   51DOPE  H17S 6528   2.757   5.483   3.479 -1.1690 -0.9789 -0.7148
   51DOPE  C218 6529   2.571   5.552   3.558  0.6225  0.1341 -0.4460
   51DOPE  H18R 6530   2.525   5.652   3.573  2.8094  0.9888  0.9492
   51DOPE  H18S 6531   2.597   5.506   3.656 -0.9317 -1.0463 -0.5403
   51DOPE  H18T 6532   2.500   5.480   3.512 -0.1363 -1.1050  2.4456
   51DOPE   C33 6533   3.190   7.159   3.230 -0.0708  0.6880 -0.2333
   51DOPE   H3X 6534   3.144   7.244   3.285  2.6105  2.3089 -0.3292
   51DOPE   H3Y 6535   3.286   7.196   3.188 -0.5616  0.9553 -1.1426
   51DOPE   C34 6536   3.204   7.057   3.349 -0.2709  0.0537  0.1997
   51DOPE   H4X 6537   3.103   7.040   3.393  0.2339 -1.0014  0.9769
   51DOPE   H4Y 6538   3.248   6.958   3.328  1.1885  0.1820  2.3937
   51DOPE   C35 6539   3.281   7.110   3.469 -0.6347  0.2859  0.3177
   51DOPE   H5X 6540   3.222   7.192   3.515 -0.1310  0.9349 -0.1597
   51DOPE   H5Y 6541   3.367   7.166   3.426  1.0010 -0.4136  2.4795
   51DOPE   C36 6542   3.329   7.006   3.574 -0.1998 -0.2434  0.2282
   51DOPE   H6X 6543   3.383   6.930   3.514  1.2987  0.9959 -0.0282
   51DOPE   H6Y 6544   3.239   6.974   3.631 -0.0111  1.2002  1.3847
   51DOPE   C37 6545   3.421   7.065   3.685  0.3826 -0.0189 -0.4921
   51DOPE   H7X 6546   3.512   7.116   3.647  1.7125 -2.9473 -1.5265
   51DOPE   H7Y 6547   3.355   7.133   3.743 -1.4508 -2.0097 -0.1399
   51DOPE   C38 6548   3.471   6.958   3.785  0.9539 -0.2303 -0.3879
   51DOPE   H8X 6549   3.498   6.869   3.724 -0.0799 -1.6096  1.0834
   51DOPE   H8Y 6550   3.399   6.921   3.861  1.9716  2.6148  2.1796
   51DOPE   C39 6551   3.583   7.012   3.869 -0.4316 -0.4381 -0.2950
   51DOPE   H9X 6552   3.557   7.093   3.938  1.3286 -1.6324  1.9118
   51DOPE  C310 6553   3.711   6.981   3.849  0.0320  0.8046 -0.6399
   51DOPE  H10X 6554   3.784   7.032   3.912 -2.0567  2.2822  0.7189
   51DOPE  C311 6555   3.763   6.881   3.752  0.6067 -0.5081  0.5370
   51DOPE  H11X 6556   3.734   6.782   3.796  1.8258 -1.5096 -0.8152
   51DOPE  H11Y 6557   3.727   6.903   3.650 -2.5550 -0.6835  1.5008
   51DOPE  C312 6558   3.919   6.858   3.756  0.6419 -0.6678  0.2744
   51DOPE  H12X 6559   3.959   6.834   3.857 -0.2135 -3.1789  0.0880
   51DOPE  H12Y 6560   3.971   6.954   3.735 -2.0789  0.7065 -0.5854
   51DOPE  C313 6561   3.972   6.766   3.653 -1.0606  0.1855 -0.3340
   51DOPE  H13X 6562   3.920   6.668   3.652 -0.6361 -0.0983  1.2994
   51DOPE  H13Y 6563   3.941   6.805   3.554  0.6103 -0.7910 -1.2892
   51DOPE  C314 6564   4.128   6.746   3.666 -0.2473 -0.6137  0.2894
   51DOPE  H14X 6565   4.172   6.841   3.703  1.8572 -0.6039 -1.9746
   51DOPE  H14Y 6566   4.175   6.740   3.566 -1.4563 -0.3430 -0.3193
   51DOPE  C315 6567   4.163   6.623   3.741 -0.5447  0.2880  0.6421
   51DOPE  H15X 6568   4.154   6.534   3.675 -2.6005  0.3009  0.8608
   51DOPE  H15Y 6569   4.097   6.613   3.829 -0.0958  0.7313  1.0373
   51DOPE  C316 6570   4.307   6.623   3.805  0.0410 -0.4997 -0.5860
   51DOPE  H16X 6571   4.295   6.689   3.894 -3.3728 -0.9190 -0.5978
   51DOPE  H16Y 6572   4.389   6.668   3.746  1.9228 -0.5531  1.8031
   51DOPE  C317 6573   4.352   6.480   3.851  1.0633 -0.3164 -0.2293
   51DOPE  H17X 6574   4.421   6.488   3.937  2.8090  2.4394 -1.7123
   51DOPE  H17Y 6575   4.269   6.431   3.906  1.3751  0.5416  1.0419
   51DOPE  C318 6576   4.419   6.376   3.755  0.3063  0.2984 -0.4371
   51DOPE  H18X 6577   4.517   6.419   3.724 -0.6235  1.6748 -1.5994
   51DOPE  H18Y 6578   4.425   6.283   3.816 -0.1132 -0.9270 -2.1752
   51DOPE  H18Z 6579   4.360   6.345   3.666 -1.0738 -0.9846  0.8815
   52DOPE     N 6580   7.691   4.621   2.936  0.0470 -0.2050  0.2979
   52DOPE   HN1 6581   7.671   4.624   3.038  0.6789 -1.0776  0.4564
   52DOPE   HN2 6582   7.640   4.699   2.889  0.4674  1.0771  1.8680
   52DOPE   HN3 6583   7.639   4.537   2.905 -3.5837  1.4140  1.3787
   52DOPE   C12 6584   7.835   4.610   2.905 -0.0826  0.6272  0.3204
   52DOPE  H12A 6585   7.891   4.685   2.964  1.1420  1.7210 -2.0683
   52DOPE  H12B 6586   7.851   4.625   2.796  4.3201 -1.8866  0.4037
   52DOPE   C11 6587   7.896   4.477   2.958 -0.0805 -0.0029  0.1695
   52DOPE  H11A 6588   7.897   4.487   3.069 -2.7965  1.4109  0.1528
   52DOPE  H11B 6589   8.000   4.460   2.923 -0.8585 -1.5097 -1.5480
   52DOPE     P 6590   7.840   4.231   3.004  0.3824 -0.5958  0.4280
   52DOPE   O13 6591   7.980   4.192   2.993  0.1022 -0.6055  0.1991
   52DOPE   O14 6592   7.745   4.127   2.961 -0.2662  0.6276 -0.3214
   52DOPE   O11 6593   7.819   4.272   3.156  0.4115  0.1577 -0.4201
   52DOPE   O12 6594   7.817   4.367   2.921 -0.0517  0.1130  0.0273
   52DOPE    C1 6595   7.833   4.164   3.253 -0.3851 -0.0035 -0.1438
   52DOPE    HA 6596   7.926   4.178   3.313 -0.4558  1.6464 -0.3760
   52DOPE    HB 6597   7.846   4.064   3.206  1.9055  1.0119 -1.8812
   52DOPE    C2 6598   7.719   4.156   3.358  0.1894 -0.3815 -0.6274
   52DOPE    HS 6599   7.626   4.170   3.299 -1.0852 -0.4258  1.2807
   52DOPE   O21 6600   7.744   4.252   3.462 -0.0114  0.5503 -0.4408
   52DOPE   C21 6601   7.633   4.311   3.506 -1.0616  0.0448  0.7393
   52DOPE   O22 6602   7.522   4.300   3.460 -0.1623  0.6747 -0.5857
   52DOPE   C22 6603   7.669   4.409   3.619 -0.1451  0.1155 -0.4288
   52DOPE   H2R 6604   7.581   4.471   3.647  1.3699  1.2889  2.0186
   52DOPE   H2S 6605   7.748   4.480   3.586  0.8921 -0.5530  0.5713
   52DOPE    C3 6606   7.703   4.018   3.425  0.2055  1.0127 -0.0007
   52DOPE    HX 6607   7.784   3.987   3.494  1.5325  0.8730 -1.5622
   52DOPE    HY 6608   7.697   3.936   3.351  2.0131  0.8548 -0.0066
   52DOPE   O31 6609   7.588   4.014   3.515 -0.2953 -0.0949  0.4606
   52DOPE   C31 6610   7.475   3.985   3.450 -0.0497  0.7177  0.0614
   52DOPE   O32 6611   7.469   3.968   3.331 -1.0393 -0.2097  0.2000
   52DOPE   C32 6612   7.355   3.975   3.548 -0.3753 -0.5076  0.1882
   52DOPE   H2X 6613   7.324   3.871   3.568  0.6445 -0.5473  1.7573
   52DOPE   H2Y 6614   7.393   4.012   3.646 -0.0511  1.3837 -0.5957
   52DOPE   C23 6615   7.707   4.341   3.748  0.8561  0.3945 -0.5113
   52DOPE   H3R 6616   7.791   4.267   3.751  0.4780 -0.0193  0.2384
   52DOPE   H3S 6617   7.623   4.280   3.786  1.1150  0.0753 -0.4424
   52DOPE   C24 6618   7.730   4.447   3.862 -0.3002 -0.2140  0.8249
   52DOPE   H4R 6619   7.678   4.543   3.840  0.3515 -0.4553 -2.2560
   52DOPE   H4S 6620   7.840   4.460   3.861 -0.3542  0.6778  2.5697
   52DOPE   C25 6621   7.700   4.396   4.003  0.5213  0.0161 -0.0714
   52DOPE   H5R 6622   7.758   4.302   4.011 -0.1369 -0.5103 -1.2060
   52DOPE   H5S 6623   7.600   4.348   4.017  0.5788  0.0057  0.3128
   52DOPE   C26 6624   7.725   4.490   4.117 -0.3106  0.4171 -1.1788
   52DOPE   H6R 6625   7.796   4.566   4.078  3.3342 -2.3751 -0.5551
   52DOPE   H6S 6626   7.774   4.435   4.200 -1.7375 -0.0299 -0.6099
   52DOPE   C27 6627   7.599   4.547   4.172 -0.3175 -0.1293 -0.1082
   52DOPE   H7R 6628   7.543   4.457   4.208  0.5725 -0.4707  0.4508
   52DOPE   H7S 6629   7.534   4.581   4.089  1.9222 -2.0391 -2.8115
   52DOPE   C28 6630   7.614   4.643   4.297  0.2502 -0.8284  0.3759
   52DOPE   H8R 6631   7.516   4.686   4.324  0.7760  0.4030  0.3834
   52DOPE   H8S 6632   7.677   4.728   4.263  0.8474 -0.9440  1.1707
   52DOPE   C29 6633   7.678   4.571   4.419  0.9565  0.2529  0.2703
   52DOPE   H9R 6634   7.773   4.519   4.400  1.9771  1.9031  0.6542
   52DOPE  C210 6635   7.618   4.557   4.542  1.0243 -0.5014  0.1732
   52DOPE  H10R 6636   7.681   4.508   4.618  2.2578 -0.3057 -0.7048
   52DOPE  C211 6637   7.480   4.604   4.591  0.0701  0.0543  0.8713
   52DOPE  H11R 6638   7.423   4.523   4.643 -0.2588 -0.1075  0.2724
   52DOPE  H11S 6639   7.426   4.631   4.497  1.3772 -1.2795 -0.3179
   52DOPE  C212 6640   7.492   4.728   4.688 -0.2020 -0.1114  0.8744
   52DOPE  H12R 6641   7.559   4.803   4.641  0.4809  0.1568  2.2263
   52DOPE  H12S 6642   7.550   4.695   4.776  1.5737  0.4615 -0.0462
   52DOPE  C213 6643   7.355   4.775   4.719  0.1400 -0.1086 -0.8149
   52DOPE  H13R 6644   7.365   4.838   4.810  0.8163 -1.5808  0.1726
   52DOPE  H13S 6645   7.289   4.689   4.744  0.0694  0.4706  1.1024
   52DOPE  C214 6646   7.284   4.867   4.617 -0.1473  0.6275 -0.0662
   52DOPE  H14R 6647   7.300   4.832   4.513 -0.3501  0.0372  0.0972
   52DOPE  H14S 6648   7.343   4.961   4.614 -1.7887  1.7391  0.7403
   52DOPE  C215 6649   7.148   4.918   4.659  0.9462 -0.5209 -0.0062
   52DOPE  H15R 6650   7.151   4.950   4.765 -2.3591  0.0810  0.0381
   52DOPE  H15S 6651   7.074   4.835   4.649  0.0553  0.0846  1.2069
   52DOPE  C216 6652   7.107   5.038   4.578  0.0442 -1.0401  0.3779
   52DOPE  H16R 6653   7.173   5.126   4.595 -0.2564 -0.9961  1.3332
   52DOPE  H16S 6654   7.009   5.080   4.608  0.8485  0.8595  0.4405
   52DOPE  C217 6655   7.075   5.011   4.429 -0.3231 -0.5097 -0.2939
   52DOPE  H17R 6656   6.984   4.949   4.435 -2.1492  1.8582 -1.7644
   52DOPE  H17S 6657   7.156   4.948   4.385 -1.0677 -1.5311 -0.2133
   52DOPE  C218 6658   7.065   5.144   4.348  0.6119 -0.2636 -0.1098
   52DOPE  H18R 6659   6.996   5.220   4.391  3.1781  1.9494  0.3260
   52DOPE  H18S 6660   7.164   5.193   4.357  0.3407  0.3894 -0.6156
   52DOPE  H18T 6661   7.036   5.120   4.243  0.0095  0.5751 -0.1432
   52DOPE   C33 6662   7.242   4.067   3.493 -0.1974  0.1705  0.0298
   52DOPE   H3X 6663   7.246   4.059   3.382  1.4537  1.1231 -0.0215
   52DOPE   H3Y 6664   7.255   4.177   3.495 -3.1087  0.6893 -2.0260
   52DOPE   C34 6665   7.109   4.031   3.560  0.8436  0.3009 -0.4883
   52DOPE   H4X 6666   7.025   4.089   3.516 -0.8755 -1.3482  0.4294
   52DOPE   H4Y 6667   7.090   3.921   3.552 -0.0955  0.1932  2.2436
   52DOPE   C35 6668   7.117   4.067   3.706 -0.2198  0.2735 -0.7895
   52DOPE   H5X 6669   7.121   4.176   3.730  1.7160  0.2742 -1.0159
   52DOPE   H5Y 6670   7.202   4.026   3.764  1.7295  2.6891 -1.7570
   52DOPE   C36 6671   6.982   4.035   3.790  1.2097  0.6346 -0.8322
   52DOPE   H6X 6672   6.968   3.925   3.786 -0.9008  0.7773  0.9774
   52DOPE   H6Y 6673   6.895   4.081   3.738 -0.2590 -1.3408 -0.2453
   52DOPE   C37 6674   7.005   4.082   3.932 -0.0669  0.4839 -0.1028
   52DOPE   H7X 6675   7.096   4.028   3.965  0.5547  1.1083 -0.7769
   52DOPE   H7Y 6676   7.024   4.192   3.927  2.1492  0.1365 -0.0202
   52DOPE   C38 6677   6.880   4.071   4.016 -0.2174 -0.8899 -1.2012
   52DOPE   H8X 6678   6.822   3.983   3.983  0.0174 -1.3244 -0.4687
   52DOPE   H8Y 6679   6.812   4.156   3.994  0.4686  0.0844  0.2376
   52DOPE   C39 6680   6.914   4.071   4.163 -0.4332  0.1071 -0.9951
   52DOPE   H9X 6681   7.007   4.128   4.173 -0.3937 -0.0202 -0.6182
   52DOPE  C310 6682   6.842   4.031   4.269 -0.0383 -0.3826  0.4112
   52DOPE  H10X 6683   6.878   4.065   4.368 -1.2047 -0.0124  0.7268
   52DOPE  C311 6684   6.699   3.974   4.259  0.1622 -0.2258 -0.0939
   52DOPE  H11X 6685   6.659   3.952   4.158 -2.5652 -0.2880  0.9092
   52DOPE  H11Y 6686   6.701   3.867   4.291 -1.7751 -0.3194 -0.2014
   52DOPE  C312 6687   6.595   4.067   4.325 -0.0660  0.6368 -0.2322
   52DOPE  H12X 6688   6.502   4.010   4.347 -0.4601  0.8098 -1.3793
   52DOPE  H12Y 6689   6.575   4.137   4.241  1.4182 -0.8831 -1.9398
   52DOPE  C313 6690   6.631   4.145   4.445  0.2226 -0.2984 -0.6944
   52DOPE  H13X 6691   6.706   4.227   4.439 -0.8395  0.6691 -1.0930
   52DOPE  H13Y 6692   6.551   4.211   4.483  2.6001  1.1370  2.2890
   52DOPE  C314 6693   6.684   4.057   4.562 -0.0806  0.2127 -0.3293
   52DOPE  H14X 6694   6.728   3.964   4.519 -0.2701 -0.6108  1.2000
   52DOPE  H14Y 6695   6.599   4.014   4.619 -0.6965 -0.2321 -1.5414
   52DOPE  C315 6696   6.785   4.137   4.646 -0.1163  0.0676  0.3479
   52DOPE  H15X 6697   6.715   4.219   4.673 -1.5676 -1.1374  0.3356
   52DOPE  H15Y 6698   6.872   4.183   4.594 -0.4469 -0.0361 -0.3067
   52DOPE  C316 6699   6.818   4.070   4.782  0.1136  0.5074  0.5806
   52DOPE  H16X 6700   6.725   4.026   4.824  0.3101 -1.6301 -1.0819
   52DOPE  H16Y 6701   6.862   4.148   4.848  1.5369  0.7534 -0.5862
   52DOPE  C317 6702   6.925   3.959   4.767 -0.1755  0.1043  0.0906
   52DOPE  H17X 6703   6.880   3.880   4.702  0.6578 -0.1848 -0.1468
   52DOPE  H17Y 6704   7.016   4.007   4.724  1.5766 -2.1512  1.0691
   52DOPE  C318 6705   6.964   3.883   4.894  0.2549  0.0665 -0.9823
   52DOPE  H18X 6706   7.000   3.782   4.864  0.1790 -0.2590 -0.0354
   52DOPE  H18Y 6707   7.038   3.933   4.960  0.8688 -1.1985 -0.6784
   52DOPE  H18Z 6708   6.876   3.859   4.958  1.8934 -3.6795  0.1512
   53DOPE     N 6709   6.864   7.297   2.651  0.2163 -0.8422 -0.0087
   53DOPE   HN1 6710   6.823   7.385   2.612  0.0074 -0.7003  0.5193
   53DOPE   HN2 6711   6.905   7.242   2.573  0.6837 -0.4037 -0.0838
   53DOPE   HN3 6712   6.789   7.236   2.687  0.7946 -1.8878 -0.5411
   53DOPE   C12 6713   6.961   7.318   2.767  0.4084  0.3324  0.6137
   53DOPE  H12A 6714   7.048   7.366   2.717 -1.3555  0.4306 -2.6335
   53DOPE  H12B 6715   6.983   7.218   2.811  3.7855 -0.0590 -1.5048
   53DOPE   C11 6716   6.894   7.413   2.862  0.1415 -0.1600 -0.1365
   53DOPE  H11A 6717   6.858   7.502   2.805  0.8512 -0.7371 -1.5388
   53DOPE  H11B 6718   6.970   7.455   2.931 -0.9367  2.6039 -0.5114
   53DOPE     P 6719   6.794   7.281   3.056 -0.5251  0.4474 -0.2942
   53DOPE   O13 6720   6.862   7.151   3.040 -0.0036  0.5232  0.5911
   53DOPE   O14 6721   6.659   7.276   3.116  0.0749  0.4930  0.0166
   53DOPE   O11 6722   6.890   7.381   3.137 -0.5230 -0.1026  0.1959
   53DOPE   O12 6723   6.785   7.350   2.918  0.1670 -0.1075 -0.6848
   53DOPE    C1 6724   6.884   7.401   3.276 -0.5106 -0.2238 -0.0700
   53DOPE    HA 6725   6.780   7.388   3.312 -1.3046 -1.1077 -2.4745
   53DOPE    HB 6726   6.928   7.502   3.290  2.5884 -1.3840 -0.5746
   53DOPE    C2 6727   6.976   7.288   3.343  0.8495 -0.1214 -0.1331
   53DOPE    HS 6728   6.921   7.192   3.332 -1.7100  1.2740 -0.2418
   53DOPE   O21 6729   7.000   7.325   3.477 -0.1143 -0.4129 -0.0751
   53DOPE   C21 6730   6.896   7.324   3.562  0.0703 -0.1555  0.0961
   53DOPE   O22 6731   6.788   7.273   3.535 -0.2306  0.4116 -0.2555
   53DOPE   C22 6732   6.939   7.383   3.694 -0.2462  0.3297 -0.1990
   53DOPE   H2R 6733   6.892   7.484   3.698  0.8943  0.8298  2.1928
   53DOPE   H2S 6734   7.050   7.393   3.692 -0.3450  1.7522  0.3818
   53DOPE    C3 6735   7.113   7.283   3.272 -0.3094 -0.4106  0.2507
   53DOPE    HX 6736   7.153   7.386   3.273  2.0158 -1.2585  1.4757
   53DOPE    HY 6737   7.092   7.259   3.165 -1.3460  1.4171  0.0074
   53DOPE   O31 6738   7.199   7.179   3.334 -0.5046  0.1551  0.1611
   53DOPE   C31 6739   7.318   7.185   3.274 -0.1733  0.1266  0.5424
   53DOPE   O32 6740   7.339   7.236   3.164 -0.2152  0.2309  0.0032
   53DOPE   C32 6741   7.426   7.118   3.358 -0.0050  0.1452  0.2305
   53DOPE   H2X 6742   7.416   7.008   3.355 -0.2889  0.1966 -1.7971
   53DOPE   H2Y 6743   7.514   7.146   3.296  1.4723 -1.5440  1.4750
   53DOPE   C23 6744   6.883   7.300   3.810  0.1513 -0.0360 -0.3506
   53DOPE   H3R 6745   6.931   7.200   3.811 -1.2728 -0.7925 -2.1020
   53DOPE   H3S 6746   6.772   7.296   3.809  0.0359  0.6124  2.2354
   53DOPE   C24 6747   6.923   7.376   3.942 -0.0717 -0.4333  0.1481
   53DOPE   H4R 6748   6.904   7.484   3.927 -1.1618 -0.5001  0.9777
   53DOPE   H4S 6749   7.032   7.355   3.947  0.0106 -0.9437 -2.2904
   53DOPE   C25 6750   6.842   7.332   4.064  0.1078  0.1074  0.4565
   53DOPE   H5R 6751   6.846   7.222   4.052 -0.4732  0.1878 -0.6504
   53DOPE   H5S 6752   6.736   7.366   4.065  0.0614  0.0598 -0.7850
   53DOPE   C26 6753   6.916   7.365   4.194 -0.0694 -0.1293 -0.4031
   53DOPE   H6R 6754   6.939   7.474   4.198 -0.2307 -0.1173  0.1908
   53DOPE   H6S 6755   7.011   7.310   4.211 -0.6680 -0.6281  1.6084
   53DOPE   C27 6756   6.833   7.346   4.321  0.4558 -0.1414 -0.4706
   53DOPE   H7R 6757   6.799   7.241   4.333 -1.8774  0.3801 -1.8802
   53DOPE   H7S 6758   6.734   7.393   4.300 -0.9711 -2.4220  0.7149
   53DOPE   C28 6759   6.898   7.399   4.450  0.4101  0.1857 -0.1584
   53DOPE   H8R 6760   6.942   7.499   4.431  1.1900  0.7248  3.6186
   53DOPE   H8S 6761   6.984   7.335   4.481  1.4446  0.9780 -1.3305
   53DOPE   C29 6762   6.793   7.414   4.553 -0.1908  0.6372 -0.4135
   53DOPE   H9R 6763   6.744   7.512   4.556 -1.3734  0.1034 -1.3162
   53DOPE  C210 6764   6.758   7.325   4.646  0.4176 -0.3069  0.8258
   53DOPE  H10R 6765   6.669   7.347   4.707  0.2033 -0.2895  0.5061
   53DOPE  C211 6766   6.811   7.187   4.670 -0.7729  0.0307  0.0705
   53DOPE  H11R 6767   6.871   7.152   4.583  1.5958  3.1524  0.2914
   53DOPE  H11S 6768   6.727   7.115   4.684 -1.9285  1.3033 -0.1744
   53DOPE  C212 6769   6.911   7.187   4.797  0.0212 -0.0849  0.6254
   53DOPE  H12R 6770   6.987   7.267   4.792  1.5371 -1.4836  0.6136
   53DOPE  H12S 6771   6.958   7.088   4.813 -1.9130 -0.5851  4.3299
   53DOPE  C213 6772   6.829   7.213   4.926  0.5436  0.2566 -0.3629
   53DOPE  H13R 6773   6.746   7.139   4.936  1.2784 -0.5822 -0.3270
   53DOPE  H13S 6774   6.784   7.314   4.916  0.7603  0.2423 -1.6614
   53DOPE  C214 6775   6.907   7.200   5.056 -1.2163 -0.1436  0.3962
   53DOPE  H14R 6776   6.917   7.091   5.069  1.2050  0.0892  0.8098
   53DOPE  H14S 6777   6.846   7.245   5.138  0.3009  3.3593 -0.1944
   53DOPE  C215 6778   7.047   7.261   5.046  0.3859  0.4217 -0.0356
   53DOPE  H15R 6779   7.051   7.352   4.983  2.3651 -0.2064 -0.9043
   53DOPE  H15S 6780   7.109   7.196   4.979  0.4943 -0.2792  0.7308
   53DOPE  C216 6781   7.104   7.282   5.184 -0.6479  0.8491 -0.9292
   53DOPE  H16R 6782   7.075   7.188   5.237  0.7973  0.3014 -1.0508
   53DOPE  H16S 6783   7.054   7.372   5.227  0.5908  1.6054 -1.0245
   53DOPE  C217 6784   7.254   7.291   5.211 -0.2159 -0.1923 -0.3705
   53DOPE  H17R 6785   7.276   7.318   5.316  0.7069  1.0585 -0.8479
   53DOPE  H17S 6786   7.297   7.376   5.152  0.7792  1.5981  2.7108
   53DOPE  C218 6787   7.330   7.163   5.169 -0.1306 -0.4447  0.4858
   53DOPE  H18R 6788   7.435   7.171   5.205  0.4657  0.5746 -1.3680
   53DOPE  H18S 6789   7.329   7.147   5.059  0.2488  1.0781  0.2427
   53DOPE  H18T 6790   7.278   7.074   5.211 -2.3372 -0.1737 -1.4488
   53DOPE   C33 6791   7.445   7.181   3.497 -0.1989  0.0230  0.0656
   53DOPE   H3X 6792   7.481   7.286   3.492  0.5923  0.0118  3.3696
   53DOPE   H3Y 6793   7.528   7.123   3.541 -0.4093  0.5231  1.1443
   53DOPE   C34 6794   7.335   7.180   3.594 -0.0210 -0.2502  0.2930
   53DOPE   H4X 6795   7.254   7.250   3.564 -0.5172 -0.5312  0.9516
   53DOPE   H4Y 6796   7.277   7.086   3.603 -0.6884  0.0447 -0.7371
   53DOPE   C35 6797   7.387   7.204   3.740 -1.0099  0.1244 -0.0400
   53DOPE   H5X 6798   7.402   7.314   3.747 -0.5540  0.0376  0.3457
   53DOPE   H5Y 6799   7.491   7.167   3.748 -1.0878  0.1726  1.4399
   53DOPE   C36 6800   7.299   7.142   3.848 -0.2022  0.4077 -0.5437
   53DOPE   H6X 6801   7.286   7.033   3.830 -0.0793  0.1015  1.0867
   53DOPE   H6Y 6802   7.205   7.199   3.829 -0.8155 -0.8289 -1.4066
   53DOPE   C37 6803   7.363   7.159   3.987 -0.5071 -0.2277 -0.3454
   53DOPE   H7X 6804   7.420   7.066   4.008 -0.0501  0.2007  0.3592
   53DOPE   H7Y 6805   7.433   7.246   3.986 -2.3930  1.3844  0.6965
   53DOPE   C38 6806   7.268   7.194   4.096  0.5508  0.1241 -0.3121
   53DOPE   H8X 6807   7.192   7.258   4.047  1.9361  0.8963 -1.5380
   53DOPE   H8Y 6808   7.317   7.255   4.174 -0.6871  1.0372 -0.2255
   53DOPE   C39 6809   7.202   7.063   4.147  0.2428 -0.9439  0.7115
   53DOPE   H9X 6810   7.112   7.034   4.091 -0.2293 -1.5439  1.7679
   53DOPE  C310 6811   7.251   6.990   4.244 -0.2733 -0.1732  0.3252
   53DOPE  H10X 6812   7.199   6.898   4.276 -1.3922 -1.2906 -4.1004
   53DOPE  C311 6813   7.377   7.026   4.318  0.0442  0.9554 -0.0733
   53DOPE  H11X 6814   7.437   6.933   4.327  1.2412  1.4411 -2.2645
   53DOPE  H11Y 6815   7.447   7.096   4.268 -1.3470  1.3405 -1.5632
   53DOPE  C312 6816   7.353   7.073   4.465 -0.0942  0.3100 -0.1139
   53DOPE  H12X 6817   7.456   7.069   4.506  1.0346  2.7895 -2.3860
   53DOPE  H12Y 6818   7.289   6.998   4.517 -1.5608  1.1794 -0.5922
   53DOPE  C313 6819   7.301   7.218   4.482 -0.1089  0.2519  0.2431
   53DOPE  H13X 6820   7.358   7.291   4.420 -2.8143  1.3930 -1.0642
   53DOPE  H13Y 6821   7.192   7.223   4.461 -0.0914 -0.1389  0.0358
   53DOPE  C314 6822   7.309   7.279   4.623 -0.2003  1.0134  0.2644
   53DOPE  H14X 6823   7.406   7.251   4.670 -0.6040 -0.1339  0.4414
   53DOPE  H14Y 6824   7.224   7.230   4.675  0.8880  0.6550  1.7836
   53DOPE  C315 6825   7.284   7.434   4.630 -0.3099 -0.6967  0.1491
   53DOPE  H15X 6826   7.182   7.448   4.591 -0.4267 -0.5490  0.5049
   53DOPE  H15Y 6827   7.355   7.493   4.568 -2.3666  1.5983 -0.1607
   53DOPE  C316 6828   7.275   7.490   4.779 -0.5971 -0.3763  0.4698
   53DOPE  H16X 6829   7.377   7.498   4.822 -0.2270  1.0316 -0.5826
   53DOPE  H16Y 6830   7.214   7.413   4.830 -0.4900 -2.2307 -1.9678
   53DOPE  C317 6831   7.202   7.631   4.783 -0.5654  0.6362 -0.3744
   53DOPE  H17X 6832   7.240   7.691   4.698 -0.2346  1.2404  0.1911
   53DOPE  H17Y 6833   7.095   7.605   4.770  0.1019 -3.6714  0.9173
   53DOPE  C318 6834   7.224   7.701   4.919 -0.3382 -0.0233 -0.1934
   53DOPE  H18X 6835   7.330   7.726   4.937  0.9658 -3.8267 -1.5260
   53DOPE  H18Y 6836   7.164   7.794   4.923  1.6037  1.2458  1.1092
   53DOPE  H18Z 6837   7.183   7.634   4.998  0.4245  0.0716  0.2869
   54DOPE     N 6838   0.082   3.095   3.007  0.4121  0.2722 -0.1621
   54DOPE   HN1 6839   0.101   3.183   2.955 -2.2336 -0.7408 -3.2094
   54DOPE   HN2 6840   0.153   3.083   3.082  0.3178  1.0086  0.0459
   54DOPE   HN3 6841   0.098   3.015   2.942 -0.1137 -0.0896  0.1373
   54DOPE   C12 6842  -0.060   3.115   3.066 -0.4916 -0.2092  0.1058
   54DOPE  H12A 6843  -0.053   3.060   3.162  1.2789  1.7364  1.1867
   54DOPE  H12B 6844  -0.139   3.060   3.010 -0.7385 -0.5646  0.7978
   54DOPE   C11 6845  -0.089   3.260   3.102  0.2381 -0.0304  0.4154
   54DOPE  H11A 6846  -0.006   3.300   3.164 -0.2666 -0.6323  1.5165
   54DOPE  H11B 6847  -0.179   3.255   3.166  0.8783 -1.4224  1.2450
   54DOPE     P 6848  -0.062   3.487   2.963  0.0488 -0.3331  0.0789
   54DOPE   O13 6849  -0.119   3.533   2.831  0.7949  0.1754  0.0631
   54DOPE   O14 6850   0.083   3.498   2.978  0.1257 -0.3215 -0.0719
   54DOPE   O11 6851  -0.123   3.580   3.077  0.0807  0.4918  0.4938
   54DOPE   O12 6852  -0.098   3.331   2.987 -0.3068 -0.8487  0.0729
   54DOPE    C1 6853  -0.268   3.585   3.098 -0.1179 -0.3320  0.0810
   54DOPE    HA 6854  -0.320   3.490   3.071 -0.7415 -0.3232  1.2115
   54DOPE    HB 6855  -0.318   3.665   3.039 -3.0928  0.2669  3.1258
   54DOPE    C2 6856  -0.289   3.612   3.249 -0.2332  0.7279  0.0660
   54DOPE    HS 6857  -0.252   3.715   3.269 -2.5861  2.0901 -1.9012
   54DOPE   O21 6858  -0.217   3.512   3.323 -0.2266 -0.3151  0.4683
   54DOPE   C21 6859  -0.109   3.549   3.386 -0.3240 -0.0372  0.3314
   54DOPE   O22 6860  -0.064   3.660   3.392 -0.2947  0.2251 -0.0432
   54DOPE   C22 6861  -0.044   3.430   3.455  0.3278  0.1515 -0.7608
   54DOPE   H2R 6862   0.054   3.403   3.411  0.1084 -0.4484 -0.9041
   54DOPE   H2S 6863  -0.114   3.343   3.446 -0.6056  0.9290 -1.1513
   54DOPE    C3 6864  -0.433   3.597   3.291  0.5428  0.1250 -0.0247
   54DOPE    HX 6865  -0.461   3.492   3.269  0.5584 -0.3493  2.0165
   54DOPE    HY 6866  -0.501   3.666   3.236  1.1573 -0.4134 -1.5211
   54DOPE   O31 6867  -0.437   3.616   3.429 -0.0736  0.5506 -0.2324
   54DOPE   C31 6868  -0.551   3.590   3.486 -0.0555  0.7665  0.0193
   54DOPE   O32 6869  -0.657   3.559   3.430 -0.0636 -0.5710  0.1986
   54DOPE   C32 6870  -0.527   3.604   3.636  0.0112  0.3044 -0.6788
   54DOPE   H2X 6871  -0.449   3.533   3.669  0.0566  0.2490 -0.9037
   54DOPE   H2Y 6872  -0.493   3.708   3.654 -1.0490  0.9142 -2.0204
   54DOPE   C23 6873  -0.015   3.475   3.597  0.1715  0.2867 -0.5277
   54DOPE   H3R 6874   0.052   3.563   3.598  1.3234 -0.4606  3.4872
   54DOPE   H3S 6875   0.041   3.390   3.641  0.1463  2.0161  3.1343
   54DOPE   C24 6876  -0.136   3.472   3.686  0.0150 -0.0133  0.1019
   54DOPE   H4R 6877  -0.187   3.378   3.656 -0.7818  0.7502 -1.0220
   54DOPE   H4S 6878  -0.197   3.562   3.664  1.0466  1.9524  4.3120
   54DOPE   C25 6879  -0.107   3.480   3.839  0.1567 -0.2690 -0.6360
   54DOPE   H5R 6880  -0.062   3.575   3.874  1.2492 -1.1809  0.5459
   54DOPE   H5S 6881  -0.039   3.396   3.864 -0.8409 -0.7165  0.6887
   54DOPE   C26 6882  -0.231   3.454   3.923 -0.2419  0.4314  0.1375
   54DOPE   H6R 6883  -0.249   3.345   3.911 -0.4995  0.5838 -0.9647
   54DOPE   H6S 6884  -0.318   3.508   3.879 -1.4696 -2.9574 -1.9685
   54DOPE   C27 6885  -0.215   3.479   4.074  0.4002 -0.1375  0.3275
   54DOPE   H7R 6886  -0.302   3.459   4.140 -0.4375 -0.9414 -0.9807
   54DOPE   H7S 6887  -0.188   3.585   4.096  0.8894 -0.3766  0.9398
   54DOPE   C28 6888  -0.100   3.397   4.138 -0.6814 -0.6400  0.3227
   54DOPE   H8R 6889  -0.086   3.435   4.242 -0.7133  1.4877 -0.3924
   54DOPE   H8S 6890  -0.000   3.416   4.092 -0.4314 -1.1572  0.6422
   54DOPE   C29 6891  -0.112   3.245   4.132  0.2523 -0.1955  0.3639
   54DOPE   H9R 6892  -0.161   3.204   4.043 -1.9151 -0.7025  1.7157
   54DOPE  C210 6893  -0.069   3.161   4.224 -0.3851  0.1412 -0.9579
   54DOPE  H10R 6894  -0.066   3.054   4.203  1.9713  0.1954 -1.2473
   54DOPE  C211 6895   0.007   3.202   4.351  0.0811  0.0264 -0.1453
   54DOPE  H11R 6896   0.067   3.295   4.338  1.0117 -0.2806  1.7068
   54DOPE  H11S 6897   0.069   3.119   4.389  1.2984  2.2156  3.0655
   54DOPE  C212 6898  -0.093   3.226   4.476  0.2469  0.1700 -0.4023
   54DOPE  H12R 6899  -0.147   3.131   4.493  0.7833  0.0033  0.3983
   54DOPE  H12S 6900  -0.177   3.297   4.457 -1.0532 -0.3321  2.8090
   54DOPE  C213 6901  -0.014   3.274   4.601  0.2059  0.3799 -1.1328
   54DOPE  H13R 6902   0.041   3.370   4.589 -1.9256  2.0589  1.3006
   54DOPE  H13S 6903   0.066   3.210   4.644  1.0516 -0.8555 -4.2994
   54DOPE  C214 6904  -0.110   3.303   4.718 -0.4334 -0.3372  0.3174
   54DOPE  H14R 6905  -0.180   3.218   4.730 -3.2126  1.7300 -0.4161
   54DOPE  H14S 6906  -0.169   3.394   4.695  1.3138  0.9797  0.8257
   54DOPE  C215 6907  -0.043   3.328   4.858  0.2364  0.4507  0.3074
   54DOPE  H15R 6908   0.016   3.237   4.883 -0.3074  0.1177  0.3874
   54DOPE  H15S 6909  -0.122   3.345   4.934 -1.1563 -1.0565 -0.7536
   54DOPE  C216 6910   0.057   3.438   4.862  0.2178 -0.4257  0.0982
   54DOPE  H16R 6911   0.013   3.539   4.851  2.1075  0.4287  0.0344
   54DOPE  H16S 6912   0.135   3.423   4.785  0.6599 -1.6250  0.7576
   54DOPE  C217 6913   0.139   3.434   4.999 -0.1301  0.7978 -0.4288
   54DOPE  H17R 6914   0.224   3.507   4.995  2.0341 -1.4716  1.1063
   54DOPE  H17S 6915   0.189   3.335   5.004 -1.3671  0.2345  2.4188
   54DOPE  C218 6916   0.066   3.455   5.126  0.6690 -0.3981  0.8633
   54DOPE  H18R 6917   0.046   3.563   5.145 -2.0671 -0.8351  0.9329
   54DOPE  H18S 6918   0.120   3.414   5.215  1.0965 -1.8755 -0.0471
   54DOPE  H18T 6919  -0.035   3.408   5.123 -0.0751  1.0039  2.4218
   54DOPE   C33 6920  -0.651   3.583   3.726 -0.1220 -0.1563  0.3262
   54DOPE   H3X 6921  -0.695   3.483   3.711 -0.8478  0.1585  0.3299
   54DOPE   H3Y 6922  -0.742   3.643   3.707  0.0164 -0.0013  0.1429
   54DOPE   C34 6923  -0.610   3.590   3.877 -0.4364 -0.5217 -0.7322
   54DOPE   H4X 6924  -0.524   3.526   3.904 -0.9513 -0.6070  0.7599
   54DOPE   H4Y 6925  -0.575   3.693   3.902  1.0038 -1.0054 -0.6654
   54DOPE   C35 6926  -0.724   3.556   3.976  0.5589 -0.0225 -0.0425
   54DOPE   H5X 6927  -0.766   3.454   3.957 -1.9788  1.1483 -1.2706
   54DOPE   H5Y 6928  -0.810   3.622   3.952 -0.5226 -0.4631  2.3283
   54DOPE   C36 6929  -0.675   3.568   4.122  0.6307 -0.1168 -0.1142
   54DOPE   H6X 6930  -0.615   3.476   4.141  0.9657  0.4048  1.5468
   54DOPE   H6Y 6931  -0.753   3.559   4.201  1.5507 -0.4071  0.7981
   54DOPE   C37 6932  -0.597   3.698   4.163  0.0159  0.3907  0.5678
   54DOPE   H7X 6933  -0.504   3.704   4.103 -1.5639 -0.2299 -2.1221
   54DOPE   H7Y 6934  -0.655   3.790   4.137 -3.3238 -1.1012  2.2107
   54DOPE   C38 6935  -0.579   3.711   4.314  1.0435 -0.2210 -0.1371
   54DOPE   H8X 6936  -0.675   3.689   4.364  0.0268  0.9211 -1.5137
   54DOPE   H8Y 6937  -0.553   3.818   4.331 -2.9281  0.7425  0.9223
   54DOPE   C39 6938  -0.461   3.632   4.360  0.1038 -0.2377 -1.1115
   54DOPE   H9X 6939  -0.375   3.660   4.298 -1.2607  6.1320 -0.8099
   54DOPE  C310 6940  -0.453   3.555   4.474  0.5126  0.6763  0.2093
   54DOPE  H10X 6941  -0.360   3.498   4.487 -0.7911 -1.1594  1.9358
   54DOPE  C311 6942  -0.556   3.528   4.575  0.5239  0.0492  0.0309
   54DOPE  H11X 6943  -0.516   3.539   4.678  0.5459  3.2099 -0.2131
   54DOPE  H11Y 6944  -0.649   3.590   4.573 -0.5403 -1.4490  0.6132
   54DOPE  C312 6945  -0.622   3.383   4.565 -0.6003  0.5811  0.1464
   54DOPE  H12X 6946  -0.683   3.366   4.657 -2.3259 -3.3785 -1.4964
   54DOPE  H12Y 6947  -0.541   3.307   4.560 -0.8918  0.3426 -1.7911
   54DOPE  C313 6948  -0.719   3.368   4.450 -0.1486  0.1167  0.4854
   54DOPE  H13X 6949  -0.797   3.447   4.442  2.0822  2.3400 -0.9214
   54DOPE  H13Y 6950  -0.671   3.371   4.350  3.2983 -1.5146  1.9350
   54DOPE  C314 6951  -0.800   3.234   4.469 -0.2665  0.0858 -0.5980
   54DOPE  H14X 6952  -0.885   3.244   4.540  0.1857  0.0462 -0.0432
   54DOPE  H14Y 6953  -0.736   3.162   4.524 -1.2291 -2.2673 -2.3658
   54DOPE  C315 6954  -0.843   3.154   4.340 -0.0587 -0.6524  0.3008
   54DOPE  H15X 6955  -0.899   3.063   4.372 -1.4342  0.9301  2.6476
   54DOPE  H15Y 6956  -0.751   3.119   4.289  0.4260  2.6047 -1.3012
   54DOPE  C316 6957  -0.927   3.242   4.248 -0.0865 -0.6921  0.3552
   54DOPE  H16X 6958  -0.875   3.335   4.219 -1.1589 -1.1954 -3.8398
   54DOPE  H16Y 6959  -1.017   3.279   4.303  0.9354  0.2720  1.4212
   54DOPE  C317 6960  -0.966   3.168   4.124  0.1504  0.7340  0.1929
   54DOPE  H17X 6961  -0.877   3.125   4.073 -2.1029 -3.5848 -0.5941
   54DOPE  H17Y 6962  -1.038   3.088   4.151 -1.4420  2.3635  0.9659
   54DOPE  C318 6963  -1.045   3.262   4.022 -0.4244  0.3463 -0.1209
   54DOPE  H18X 6964  -1.084   3.191   3.946  1.6986  0.0365 -0.9825
   54DOPE  H18Y 6965  -1.128   3.320   4.069  0.2759  2.3959 -1.3274
   54DOPE  H18Z 6966  -0.978   3.338   3.977 -0.0222 -0.2058 -0.4669
   55DOPE     N 6967   0.587   5.016   3.129 -0.3047  0.2196  0.3248
   55DOPE   HN1 6968   0.538   5.105   3.105 -0.1300  0.2392  0.0456
   55DOPE   HN2 6969   0.519   4.947   3.166 -1.3779  0.8917 -0.3625
   55DOPE   HN3 6970   0.663   5.034   3.198  1.9217  3.5222 -2.6230
   55DOPE   C12 6971   0.634   4.950   2.994  0.5640 -0.0204  0.1105
   55DOPE  H12A 6972   0.552   4.950   2.919  1.3754 -1.2918 -0.8120
   55DOPE  H12B 6973   0.662   4.844   3.012 -2.6899 -1.1930 -0.9382
   55DOPE   C11 6974   0.746   5.038   2.938 -0.4332 -0.2704  0.0721
   55DOPE  H11A 6975   0.723   5.147   2.943  1.7376  0.2803 -0.8265
   55DOPE  H11B 6976   0.755   5.018   2.829 -0.2956 -1.5957  0.3178
   55DOPE     P 6977   0.938   5.102   3.110 -0.1457  0.2276 -0.3084
   55DOPE   O13 6978   1.016   5.198   3.026 -0.6627  0.1983 -0.2628
   55DOPE   O14 6979   1.016   5.020   3.203  0.3625  0.1925 -0.4303
   55DOPE   O11 6980   0.812   5.174   3.165 -0.0646 -0.4912 -0.4831
   55DOPE   O12 6981   0.866   4.998   3.007  0.2881  0.1467 -0.6790
   55DOPE    C1 6982   0.819   5.280   3.264  0.2115 -0.5643 -0.0793
   55DOPE    HA 6983   0.925   5.294   3.295  0.2082 -1.4621  0.3906
   55DOPE    HB 6984   0.778   5.251   3.364  1.4193  1.8191  1.1850
   55DOPE    C2 6985   0.756   5.412   3.230 -0.2421 -0.9780  0.1058
   55DOPE    HS 6986   0.822   5.458   3.153  0.1026  0.5818  1.2821
   55DOPE   O21 6987   0.724   5.506   3.337  0.0047  0.0181  0.0507
   55DOPE   C21 6988   0.830   5.550   3.392 -0.2553 -0.3549 -0.7655
   55DOPE   O22 6989   0.947   5.533   3.358  0.1106  0.1501  0.1414
   55DOPE   C22 6990   0.793   5.623   3.521  0.0002  0.2420  0.6052
   55DOPE   H2R 6991   0.857   5.601   3.609  1.5086 -0.7334 -0.6803
   55DOPE   H2S 6992   0.688   5.597   3.545  0.4308 -2.9947 -0.4981
   55DOPE    C3 6993   0.613   5.378   3.165  0.5878  0.3963 -0.4964
   55DOPE    HX 6994   0.616   5.326   3.067 -1.5605  0.2314 -0.5277
   55DOPE    HY 6995   0.577   5.482   3.149 -0.9799  0.3031  1.8178
   55DOPE   O31 6996   0.521   5.299   3.252 -0.0259 -0.1502  0.1679
   55DOPE   C31 6997   0.431   5.362   3.327 -0.2153  0.1302  0.6536
   55DOPE   O32 6998   0.417   5.482   3.329  0.2379  0.7432  0.3702
   55DOPE   C32 6999   0.355   5.262   3.412 -0.2241  0.3539  0.9607
   55DOPE   H2X 7000   0.271   5.226   3.348 -0.0996  1.3212  0.2447
   55DOPE   H2Y 7001   0.411   5.166   3.415  0.9310  1.0293  1.3238
   55DOPE   C23 7002   0.786   5.778   3.493  0.5047  0.7824  0.5424
   55DOPE   H3R 7003   0.714   5.797   3.410 -0.6389 -3.2158  0.4251
   55DOPE   H3S 7004   0.887   5.803   3.456  0.9023  0.1344  1.1623
   55DOPE   C24 7005   0.736   5.879   3.599  0.0503  0.4551 -0.2167
   55DOPE   H4R 7006   0.647   5.830   3.645 -0.1372  0.0361 -1.0170
   55DOPE   H4S 7007   0.698   5.971   3.550 -0.9984  1.0694  1.6138
   55DOPE   C25 7008   0.843   5.923   3.704  0.4055  0.0713  0.1350
   55DOPE   H5R 7009   0.923   5.984   3.656 -0.3790  2.2888  1.4575
   55DOPE   H5S 7010   0.883   5.834   3.756  2.5669  1.0608  0.2845
   55DOPE   C26 7011   0.772   6.009   3.812  0.0033 -0.1056 -0.5929
   55DOPE   H6R 7012   0.689   5.952   3.858  0.3824  0.2609  0.5888
   55DOPE   H6S 7013   0.726   6.092   3.755 -0.0495 -0.1323 -0.5891
   55DOPE   C27 7014   0.863   6.066   3.922 -0.6031 -0.0347 -0.2514
   55DOPE   H7R 7015   0.808   6.145   3.977 -1.5832 -0.2617 -0.8936
   55DOPE   H7S 7016   0.947   6.113   3.865 -0.4910 -0.3817 -0.3724
   55DOPE   C28 7017   0.914   5.962   4.021 -0.6843 -0.0314 -0.4938
   55DOPE   H8R 7018   0.951   5.876   3.961 -0.6933 -1.0190  0.8664
   55DOPE   H8S 7019   0.827   5.942   4.088 -0.8003  1.8008 -0.0182
   55DOPE   C29 7020   1.032   6.011   4.100  0.5958  0.4675 -0.3295
   55DOPE   H9R 7021   1.127   5.982   4.053  0.1360  1.4317 -1.9250
   55DOPE  C210 7022   1.038   6.079   4.219 -0.0076 -0.3053  1.1466
   55DOPE  H10R 7023   1.136   6.126   4.236  0.5590 -0.2722 -1.7269
   55DOPE  C211 7024   0.921   6.129   4.303 -0.4133  0.0114  0.7333
   55DOPE  H11R 7025   0.824   6.078   4.287 -0.4583  0.9185 -2.5604
   55DOPE  H11S 7026   0.904   6.238   4.290 -0.5518 -0.0143  0.7010
   55DOPE  C212 7027   0.948   6.112   4.456 -0.3663  0.3953  0.7071
   55DOPE  H12R 7028   1.044   6.162   4.481  0.0477 -0.2183  0.3828
   55DOPE  H12S 7029   0.954   6.004   4.481 -1.6280  0.6122  2.0588
   55DOPE  C213 7030   0.833   6.177   4.541 -0.5119  0.4312 -0.5930
   55DOPE  H13R 7031   0.732   6.153   4.503 -0.4941  1.1714 -1.1258
   55DOPE  H13S 7032   0.844   6.287   4.531 -0.8254  0.5828  0.5553
   55DOPE  C214 7033   0.843   6.131   4.685  0.2325  0.5665  0.5800
   55DOPE  H14R 7034   0.942   6.136   4.734  0.8248  0.6686 -0.6191
   55DOPE  H14S 7035   0.833   6.020   4.682 -0.4516  0.6474 -0.7134
   55DOPE  C215 7036   0.739   6.176   4.781  0.5431  0.1825 -1.3971
   55DOPE  H15R 7037   0.668   6.242   4.727 -1.3405  0.2356  0.9621
   55DOPE  H15S 7038   0.785   6.241   4.858 -1.3378 -1.4338  1.2783
   55DOPE  C216 7039   0.645   6.073   4.848  0.5996 -0.5497  0.1386
   55DOPE  H16R 7040   0.573   6.135   4.906  0.9252  1.3202 -1.3592
   55DOPE  H16S 7041   0.700   6.012   4.923  3.8266  2.1235  0.1924
   55DOPE  C217 7042   0.573   5.983   4.747 -0.1336 -0.3480  0.0381
   55DOPE  H17R 7043   0.644   5.905   4.711  0.0351 -0.0156 -0.3573
   55DOPE  H17S 7044   0.546   6.046   4.659 -0.6525  0.3426  0.6756
   55DOPE  C218 7045   0.454   5.910   4.808  0.0060 -0.2111 -0.3276
   55DOPE  H18R 7046   0.401   5.847   4.733 -1.3572  0.9742 -0.4203
   55DOPE  H18S 7047   0.384   5.983   4.854  4.7113  2.1809  4.0334
   55DOPE  H18T 7048   0.483   5.845   4.893  1.9761 -0.4960 -1.1823
   55DOPE   C33 7049   0.301   5.314   3.548  0.6735 -0.2900  0.7174
   55DOPE   H3X 7050   0.224   5.393   3.533  2.2883  1.3590  0.7651
   55DOPE   H3Y 7051   0.389   5.351   3.606 -0.0256 -1.6046  2.7413
   55DOPE   C34 7052   0.235   5.206   3.631  0.1591  0.5426 -0.2502
   55DOPE   H4X 7053   0.136   5.184   3.587  0.9233 -1.2222 -1.1953
   55DOPE   H4Y 7054   0.299   5.116   3.641  0.9968  1.1132 -0.3251
   55DOPE   C35 7055   0.224   5.254   3.772  0.2741  0.2697  0.3554
   55DOPE   H5X 7056   0.312   5.316   3.800  1.1298 -1.4882  1.7503
   55DOPE   H5Y 7057   0.225   5.163   3.836  0.3597  0.4734  0.6513
   55DOPE   C36 7058   0.096   5.333   3.802  0.2461  0.1222 -0.1135
   55DOPE   H6X 7059   0.019   5.255   3.785  0.8461 -0.3074 -0.9102
   55DOPE   H6Y 7060   0.080   5.412   3.725 -0.3177  2.0713  1.8956
   55DOPE   C37 7061   0.089   5.397   3.941  0.1894 -0.3552 -0.2342
   55DOPE   H7X 7062   0.097   5.314   4.015  0.2530 -0.8353 -0.7683
   55DOPE   H7Y 7063   0.159   5.481   3.957 -0.4670 -0.0127  0.9284
   55DOPE   C38 7064  -0.054   5.456   3.979 -0.8790  0.5878 -0.2046
   55DOPE   H8X 7065  -0.046   5.476   4.088  0.8715 -2.7574  0.4131
   55DOPE   H8Y 7066  -0.119   5.366   3.971  1.7496 -1.2933 -2.3445
   55DOPE   C39 7067  -0.100   5.570   3.898  0.3110 -0.4153 -0.0504
   55DOPE   H9X 7068  -0.147   5.556   3.799 -1.6724 -0.1354  0.8032
   55DOPE  C310 7069  -0.078   5.705   3.928  0.0417 -0.5396  0.6487
   55DOPE  H10X 7070  -0.090   5.774   3.844 -2.6132 -0.5271  0.9522
   55DOPE  C311 7071   0.001   5.757   4.038 -0.0277 -0.2611 -0.2772
   55DOPE  H11X 7072   0.097   5.701   4.043  0.3681  0.4832  2.5462
   55DOPE  H11Y 7073   0.034   5.860   4.012  0.4502 -0.3796 -0.1624
   55DOPE  C312 7074  -0.063   5.749   4.176  0.0547 -0.5963  0.5100
   55DOPE  H12X 7075  -0.088   5.650   4.220  0.5802 -0.0295  2.1526
   55DOPE  H12Y 7076  -0.156   5.810   4.172  1.6370  2.0578  1.7748
   55DOPE  C313 7077   0.024   5.816   4.284  0.0589 -0.0449  1.0894
   55DOPE  H13X 7078   0.130   5.786   4.269  0.1771  0.2835  1.2410
   55DOPE  H13Y 7079   0.031   5.927   4.277 -2.4010  0.1711  1.2007
   55DOPE  C314 7080  -0.024   5.782   4.429 -0.5578  1.0371 -0.0118
   55DOPE  H14X 7081   0.001   5.680   4.464  0.9587  2.0784  2.2069
   55DOPE  H14Y 7082  -0.134   5.789   4.443 -0.4309  1.3454  0.8942
   55DOPE  C315 7083   0.048   5.872   4.525 -0.4784  0.0869  0.5037
   55DOPE  H15X 7084   0.039   5.979   4.495  0.9314 -0.3824 -1.8376
   55DOPE  H15Y 7085   0.153   5.848   4.500 -0.8042  1.3506 -2.5275
   55DOPE  C316 7086   0.007   5.855   4.668 -0.2908  0.5710  0.0978
   55DOPE  H16X 7087   0.032   5.750   4.694 -0.9339  0.1172 -1.0577
   55DOPE  H16Y 7088  -0.104   5.862   4.673 -0.2308  0.7987  1.5345
   55DOPE  C317 7089   0.059   5.961   4.760  0.0485  0.3594  0.4197
   55DOPE  H17X 7090   0.168   5.956   4.781 -0.0005 -1.6293  0.3819
   55DOPE  H17Y 7091   0.041   6.063   4.720  2.4605  0.3609 -0.8429
   55DOPE  C318 7092  -0.012   5.961   4.898 -0.1775 -0.1597 -0.3218
   55DOPE  H18X 7093   0.002   5.870   4.960 -0.1944 -0.4277 -0.7054
   55DOPE  H18Y 7094   0.029   6.045   4.958  0.1062  1.7420 -2.9997
   55DOPE  H18Z 7095  -0.120   5.977   4.883 -0.6421 -0.4450  2.2978
   56DOPE     N 7096   1.424   6.534   3.227  0.2897 -0.5034  0.3721
   56DOPE   HN1 7097   1.521   6.532   3.190  0.7240  1.0085  1.3594
   56DOPE   HN2 7098   1.437   6.481   3.315  1.5829 -1.5581 -0.4129
   56DOPE   HN3 7099   1.366   6.474   3.164  0.0882  1.1133 -1.0595
   56DOPE   C12 7100   1.360   6.673   3.229 -0.3102 -0.1435 -0.5793
   56DOPE  H12A 7101   1.425   6.743   3.285 -0.4635 -0.8508  0.5249
   56DOPE  H12B 7102   1.260   6.663   3.276 -0.2748 -0.4340 -0.5624
   56DOPE   C11 7103   1.330   6.717   3.088 -0.5099  0.2026 -0.4852
   56DOPE  H11A 7104   1.273   6.640   3.032  0.3225 -0.5872 -0.2780
   56DOPE  H11B 7105   1.428   6.718   3.034  0.0768 -1.3936  0.4748
   56DOPE     P 7106   1.337   6.982   3.110 -0.1053  0.0603 -0.1630
   56DOPE   O13 7107   1.245   7.093   3.073  0.1091  0.6352  0.2425
   56DOPE   O14 7108   1.465   6.968   3.039 -0.3279 -0.4588 -0.5672
   56DOPE   O11 7109   1.369   6.980   3.267  0.1866 -0.3504 -0.1076
   56DOPE   O12 7110   1.258   6.847   3.082 -0.2182 -0.5260  0.2767
   56DOPE    C1 7111   1.260   6.959   3.361 -0.4739 -0.6088 -0.0983
   56DOPE    HA 7112   1.308   6.920   3.453  1.4670  0.3374 -0.6562
   56DOPE    HB 7113   1.188   6.883   3.324 -0.3307 -0.4151 -0.7820
   56DOPE    C2 7114   1.203   7.097   3.400 -0.7131  0.4042  0.2885
   56DOPE    HS 7115   1.204   7.158   3.307  0.8177 -1.9004 -1.3015
   56DOPE   O21 7116   1.282   7.161   3.497 -0.6320 -0.1860 -0.0659
   56DOPE   C21 7117   1.253   7.288   3.510 -0.9505  0.0940 -0.5441
   56DOPE   O22 7118   1.172   7.347   3.443  0.3333  0.4208  0.3334
   56DOPE   C22 7119   1.341   7.348   3.620  0.1227  0.9961  0.4949
   56DOPE   H2R 7120   1.408   7.421   3.570 -0.1539 -0.2599 -1.8443
   56DOPE   H2S 7121   1.411   7.273   3.663 -0.1018  0.1179 -0.6123
   56DOPE    C3 7122   1.060   7.080   3.450  0.3358  0.7471  0.0363
   56DOPE    HX 7123   1.013   7.032   3.362  1.4414 -1.0262  0.3451
   56DOPE    HY 7124   1.013   7.178   3.470  0.2141  1.6099 -3.8168
   56DOPE   O31 7125   1.064   6.994   3.568 -0.0572 -0.3228  0.0303
   56DOPE   C31 7126   1.033   7.064   3.685 -0.1387  0.2603  0.5423
   56DOPE   O32 7127   1.016   7.182   3.699 -0.1300 -0.4842 -0.5000
   56DOPE   C32 7128   1.016   6.960   3.788 -0.5368 -0.0308 -0.0196
   56DOPE   H2X 7129   1.018   7.008   3.888  0.0705  2.9222 -1.3431
   56DOPE   H2Y 7130   0.922   6.905   3.766 -0.8259 -0.8442  2.8323
   56DOPE   C23 7131   1.241   7.407   3.728  0.6303 -0.0404  0.4790
   56DOPE   H3R 7132   1.195   7.319   3.777  1.4024  0.5477  2.3617
   56DOPE   H3S 7133   1.165   7.477   3.688  0.5039 -0.5263 -0.1464
   56DOPE   C24 7134   1.316   7.474   3.847  0.1346  0.1131  0.4730
   56DOPE   H4R 7135   1.361   7.569   3.810 -3.3456  1.2471 -1.2764
   56DOPE   H4S 7136   1.392   7.409   3.896  1.8248  0.6805 -1.2618
   56DOPE   C25 7137   1.229   7.520   3.960 -0.1476  1.2722 -0.2394
   56DOPE   H5R 7138   1.165   7.432   3.981 -2.0719  2.4177 -1.0641
   56DOPE   H5S 7139   1.164   7.602   3.924  0.2210  1.8402  0.3637
   56DOPE   C26 7140   1.302   7.567   4.085  0.3359  0.1977 -1.0927
   56DOPE   H6R 7141   1.389   7.635   4.074  3.0544 -2.2407  3.0157
   56DOPE   H6S 7142   1.353   7.478   4.127  0.3007  0.1691 -1.1102
   56DOPE   C27 7143   1.202   7.619   4.193 -0.0592 -0.3167 -0.3945
   56DOPE   H7R 7144   1.118   7.548   4.210 -0.9433  0.3950 -1.6356
   56DOPE   H7S 7145   1.147   7.707   4.155 -3.4249 -2.6988 -1.4507
   56DOPE   C28 7146   1.248   7.657   4.336  0.1980 -0.2981 -0.1613
   56DOPE   H8R 7147   1.282   7.569   4.395  0.7681 -0.0345 -0.0914
   56DOPE   H8S 7148   1.157   7.701   4.381  0.1469 -0.1132 -0.4419
   56DOPE   C29 7149   1.361   7.756   4.329 -0.4652 -0.1041 -0.2356
   56DOPE   H9R 7150   1.337   7.849   4.276 -0.7715  0.3003  0.5904
   56DOPE  C210 7151   1.472   7.756   4.404  0.0385 -0.3471  0.2987
   56DOPE  H10R 7152   1.534   7.846   4.390 -1.6081  0.5964 -1.3871
   56DOPE  C211 7153   1.511   7.658   4.513  0.1334 -0.5716 -0.2373
   56DOPE  H11R 7154   1.622   7.664   4.508  0.2658 -1.0931  1.4571
   56DOPE  H11S 7155   1.474   7.560   4.475  1.5457 -1.0170 -0.5177
   56DOPE  C212 7156   1.458   7.699   4.654 -0.2701  0.4070 -0.7929
   56DOPE  H12R 7157   1.347   7.694   4.646 -0.3948  2.4994 -0.9297
   56DOPE  H12S 7158   1.480   7.805   4.678 -0.1949  0.5166 -1.3212
   56DOPE  C213 7159   1.497   7.606   4.772  0.3473  0.2250 -0.6352
   56DOPE  H13R 7160   1.452   7.642   4.866  0.8662 -1.7062  0.3912
   56DOPE  H13S 7161   1.608   7.605   4.778  0.3260 -2.5012  0.5500
   56DOPE  C214 7162   1.436   7.462   4.747  0.2980 -0.0035 -0.1693
   56DOPE  H14R 7163   1.484   7.420   4.657  0.0369 -0.8010  0.0545
   56DOPE  H14S 7164   1.326   7.471   4.735  0.1496 -0.1205  0.9506
   56DOPE  C215 7165   1.478   7.366   4.861  0.5529 -0.5686 -0.4583
   56DOPE  H15R 7166   1.438   7.405   4.957 -0.2981 -0.2234 -0.9494
   56DOPE  H15S 7167   1.586   7.374   4.888  0.1719 -0.1934  1.0352
   56DOPE  C216 7168   1.427   7.225   4.843 -0.0524 -0.2039  0.0821
   56DOPE  H16R 7169   1.481   7.176   4.759  0.8371  0.9732 -0.0560
   56DOPE  H16S 7170   1.320   7.249   4.827 -0.0258 -0.5944 -0.7000
   56DOPE  C217 7171   1.434   7.148   4.976 -0.1315 -0.4695 -0.3116
   56DOPE  H17R 7172   1.413   7.039   4.970 -3.1288 -0.1015  1.5609
   56DOPE  H17S 7173   1.353   7.193   5.037  0.7162  0.9316 -0.1888
   56DOPE  C218 7174   1.567   7.165   5.051 -0.0170 -0.3266  0.0565
   56DOPE  H18R 7175   1.650   7.125   4.989  0.7134 -1.7044  1.8298
   56DOPE  H18S 7176   1.569   7.124   5.154  0.2672  0.4903  0.3893
   56DOPE  H18T 7177   1.590   7.272   5.072 -1.3781 -0.0136  0.0525
   56DOPE   C33 7178   1.143   6.867   3.783  0.2599 -0.6806 -0.2034
   56DOPE   H3X 7179   1.156   6.815   3.685  0.2961  1.0149 -1.1340
   56DOPE   H3Y 7180   1.151   6.788   3.861  3.7090 -0.7379 -0.4431
   56DOPE   C34 7181   1.276   6.940   3.804  0.1914  0.0244  0.1075
   56DOPE   H4X 7182   1.368   6.878   3.792 -0.4439 -0.7954 -0.7450
   56DOPE   H4Y 7183   1.289   7.011   3.719 -0.8286 -0.7557 -0.7231
   56DOPE   C35 7184   1.295   7.017   3.934  0.0745  0.1078  1.1554
   56DOPE   H5X 7185   1.278   6.961   4.029 -2.1824  0.3823  0.9647
   56DOPE   H5Y 7186   1.223   7.101   3.943  1.4426  1.1486  3.4052
   56DOPE   C36 7187   1.432   7.084   3.941  0.2705  0.4272 -0.5775
   56DOPE   H6X 7188   1.452   7.127   3.841 -1.0287  2.2173 -0.1087
   56DOPE   H6Y 7189   1.506   7.002   3.951 -0.7347 -0.3584  0.8080
   56DOPE   C37 7190   1.428   7.174   4.069 -0.1599  0.1038 -0.1894
   56DOPE   H7X 7191   1.404   7.278   4.039  1.6221  1.6875  3.1832
   56DOPE   H7Y 7192   1.342   7.141   4.130  0.6047 -0.7798  0.4345
   56DOPE   C38 7193   1.556   7.161   4.144 -0.2695  0.1567 -0.7827
   56DOPE   H8X 7194   1.641   7.173   4.075  0.4903  0.7490  0.2282
   56DOPE   H8Y 7195   1.574   7.054   4.168  0.2380  0.1758 -1.0757
   56DOPE   C39 7196   1.571   7.261   4.250  0.2242 -1.0453  0.1483
   56DOPE   H9X 7197   1.584   7.365   4.217 -0.2112 -0.6283  1.2412
   56DOPE  C310 7198   1.593   7.239   4.379 -0.0898  0.3692  0.7202
   56DOPE  H10X 7199   1.611   7.331   4.437  1.5224  1.0894 -0.8567
   56DOPE  C311 7200   1.616   7.108   4.461 -0.0970 -0.2309  0.3290
   56DOPE  H11X 7201   1.550   7.111   4.550  2.4180 -0.5711  2.3027
   56DOPE  H11Y 7202   1.577   7.021   4.404  0.3597 -1.2882  1.5972
   56DOPE  C312 7203   1.753   7.084   4.524  0.6190  0.3108  0.3013
   56DOPE  H12X 7204   1.826   7.136   4.459 -0.9944 -0.0480 -1.9031
   56DOPE  H12Y 7205   1.783   6.978   4.513 -0.1343 -0.1073  1.9618
   56DOPE  C313 7206   1.748   7.113   4.671  0.3495  0.6310 -0.2011
   56DOPE  H13X 7207   1.701   7.212   4.687 -0.2411  0.2027  0.7778
   56DOPE  H13Y 7208   1.681   7.049   4.732 -0.2379  0.6435 -0.8142
   56DOPE  C314 7209   1.884   7.109   4.744  0.3571  0.2988 -0.0724
   56DOPE  H14X 7210   1.928   7.008   4.728 -0.2329  0.2621 -1.5391
   56DOPE  H14Y 7211   1.861   7.120   4.852  1.2911 -0.6306  0.2386
   56DOPE  C315 7212   1.988   7.220   4.715 -0.3642  0.0515  0.0262
   56DOPE  H15X 7213   2.010   7.231   4.606  3.3656  0.5733  0.6868
   56DOPE  H15Y 7214   2.082   7.179   4.758 -0.4677 -0.0063  0.1979
   56DOPE  C316 7215   1.953   7.358   4.758  0.2674  0.7983  0.6709
   56DOPE  H16X 7216   1.872   7.389   4.689  1.0830 -1.7765 -1.5697
   56DOPE  H16Y 7217   2.030   7.438   4.753  1.2156  0.0953  2.6392
   56DOPE  C317 7218   1.910   7.365   4.905 -0.1581  0.8496  0.2561
   56DOPE  H17X 7219   1.805   7.327   4.904 -0.2462  1.1014 -0.5378
   56DOPE  H17Y 7220   1.966   7.293   4.968 -0.6541  0.3889  0.1744
   56DOPE  C318 7221   1.901   7.505   4.962  0.1384  0.1008  0.1800
   56DOPE  H18X 7222   1.865   7.488   5.066 -3.2278 -0.8950 -1.0272
   56DOPE  H18Y 7223   2.002   7.551   4.957  0.7729 -1.4288 -3.0271
   56DOPE  H18Z 7224   1.827   7.570   4.910  1.0644  1.4747  0.5112
   57DOPE     N 7225   0.541   1.960   2.905  0.0569  0.6010  0.1968
   57DOPE   HN1 7226   0.634   1.927   2.871 -1.6229 -3.5032 -0.9265
   57DOPE   HN2 7227   0.533   2.059   2.874  1.9109  0.5943 -0.4218
   57DOPE   HN3 7228   0.548   1.959   3.009  0.3566 -0.4747  0.1734
   57DOPE   C12 7229   0.436   1.863   2.855 -0.9285 -0.2187 -0.2428
   57DOPE  H12A 7230   0.471   1.761   2.882  1.6475  0.0591 -2.1666
   57DOPE  H12B 7231   0.419   1.884   2.747  0.2691  0.4073 -0.3324
   57DOPE   C11 7232   0.295   1.894   2.920  0.1431 -0.2644 -0.0198
   57DOPE  H11A 7233   0.305   1.837   3.015 -3.3783 -1.4458 -0.1902
   57DOPE  H11B 7234   0.218   1.842   2.859  1.7794 -4.5830  1.1811
   57DOPE     P 7235   0.212   2.109   3.060 -0.2196  0.0443 -0.2610
   57DOPE   O13 7236   0.116   2.212   3.012  0.2023 -0.0942  0.4099
   57DOPE   O14 7237   0.322   2.148   3.147  0.0365  0.0898 -0.5346
   57DOPE   O11 7238   0.134   1.992   3.133 -0.6433 -0.5312 -0.0810
   57DOPE   O12 7239   0.265   2.033   2.936 -0.1005 -0.2446 -0.1222
   57DOPE    C1 7240   0.025   2.024   3.222  0.1834 -0.3982  0.0790
   57DOPE    HA 7241  -0.003   1.924   3.260  0.3984 -0.9380 -1.1182
   57DOPE    HB 7242  -0.050   2.078   3.159  0.2053  2.3617  2.2389
   57DOPE    C2 7243   0.056   2.127   3.335  0.3941  0.3738 -0.0876
   57DOPE    HS 7244   0.106   2.216   3.290  0.2498 -0.1817 -1.4045
   57DOPE   O21 7245   0.143   2.061   3.427 -0.0689  0.4714  0.3225
   57DOPE   C21 7246   0.205   2.139   3.505 -0.0048 -0.7243 -0.4542
   57DOPE   O22 7247   0.216   2.263   3.496  0.3931  0.0377 -0.6064
   57DOPE   C22 7248   0.273   2.053   3.616  0.2747  0.7803 -0.0831
   57DOPE   H2R 7249   0.197   2.045   3.697 -0.0651  0.4973 -0.4289
   57DOPE   H2S 7250   0.361   2.105   3.659  0.1091 -0.2708  1.6380
   57DOPE    C3 7251  -0.075   2.180   3.407  0.3208  0.1940 -0.1901
   57DOPE    HX 7252  -0.152   2.213   3.334  1.3268  1.0578 -0.8852
   57DOPE    HY 7253  -0.054   2.276   3.458 -0.9416 -0.5417  1.8394
   57DOPE   O31 7254  -0.131   2.080   3.497  0.2627 -0.0690  0.2733
   57DOPE   C31 7255  -0.108   2.093   3.619  0.3301  0.0842 -1.0117
   57DOPE   O32 7256  -0.048   2.185   3.674  0.4155 -0.3089  0.9930
   57DOPE   C32 7257  -0.168   1.978   3.712 -0.1953 -0.1632  0.0560
   57DOPE   H2X 7258  -0.232   2.035   3.782 -2.4347  0.2319 -2.1504
   57DOPE   H2Y 7259  -0.248   1.921   3.658 -0.6629 -0.9342  1.5067
   57DOPE   C23 7260   0.305   1.903   3.576 -0.2240 -0.1487 -0.5901
   57DOPE   H3R 7261   0.372   1.912   3.487 -0.7759  1.2320 -0.8919
   57DOPE   H3S 7262   0.212   1.856   3.539 -2.4245  2.1963  1.5395
   57DOPE   C24 7263   0.384   1.827   3.680 -0.6641 -0.1644 -0.2231
   57DOPE   H4R 7264   0.479   1.879   3.704  0.1410 -0.5243 -2.3581
   57DOPE   H4S 7265   0.420   1.725   3.655 -1.8706 -0.5857 -0.2868
   57DOPE   C25 7266   0.295   1.795   3.806  0.3733  0.8927  0.8419
   57DOPE   H5R 7267   0.210   1.727   3.784  1.0517 -0.0923  1.1717
   57DOPE   H5S 7268   0.247   1.889   3.839  1.1208  2.1000 -1.3044
   57DOPE   C26 7269   0.382   1.728   3.910  0.0235  0.6863  0.2815
   57DOPE   H6R 7270   0.449   1.810   3.942 -0.2083  1.6158 -1.4734
   57DOPE   H6S 7271   0.452   1.648   3.876  0.6092  1.6724 -0.9278
   57DOPE   C27 7272   0.303   1.688   4.047  0.2065  0.1510 -0.5229
   57DOPE   H7R 7273   0.371   1.648   4.125 -0.2973  2.0630  0.9936
   57DOPE   H7S 7274   0.218   1.622   4.019  0.2369 -0.6016  1.0592
   57DOPE   C28 7275   0.238   1.814   4.106 -0.0286  0.1718  0.4372
   57DOPE   H8R 7276   0.162   1.849   4.032 -2.0390  1.0232  2.7771
   57DOPE   H8S 7277   0.308   1.899   4.110 -1.0795  1.0588  0.4835
   57DOPE   C29 7278   0.167   1.771   4.233 -0.0070 -0.4056  0.4261
   57DOPE   H9R 7279   0.057   1.772   4.236  0.0078  1.0174  2.3437
   57DOPE  C210 7280   0.218   1.750   4.355  0.1230 -0.5343 -0.1595
   57DOPE  H10R 7281   0.147   1.720   4.433  0.5163  0.2060  0.4983
   57DOPE  C211 7282   0.363   1.760   4.394 -0.0139  0.1550 -0.6734
   57DOPE  H11R 7283   0.421   1.812   4.315  0.6093 -0.4576 -0.6280
   57DOPE  H11S 7284   0.405   1.659   4.411  0.0287  0.6806  3.2948
   57DOPE  C212 7285   0.380   1.840   4.532  1.1366  0.8343  0.2934
   57DOPE  H12R 7286   0.344   1.945   4.520 -0.1287  0.3403 -0.4140
   57DOPE  H12S 7287   0.491   1.837   4.543  0.8686 -0.5686  5.0937
   57DOPE  C213 7288   0.325   1.789   4.663  0.2241 -0.1762 -0.3165
   57DOPE  H13R 7289   0.229   1.735   4.652  0.9041 -1.2938 -0.8933
   57DOPE  H13S 7290   0.296   1.880   4.719 -0.0221 -0.7304  0.4724
   57DOPE  C214 7291   0.422   1.700   4.746 -0.3202  0.1591  0.5623
   57DOPE  H14R 7292   0.520   1.752   4.761  0.7463 -1.0968 -1.5173
   57DOPE  H14S 7293   0.430   1.601   4.696  1.3586 -1.0243  2.9383
   57DOPE  C215 7294   0.357   1.659   4.876  0.1521  0.1998 -0.0540
   57DOPE  H15R 7295   0.264   1.605   4.851  0.0182 -0.0833  0.9860
   57DOPE  H15S 7296   0.320   1.746   4.935 -0.7856  1.3074 -2.1568
   57DOPE  C216 7297   0.438   1.561   4.966  0.8117  0.1926  0.1284
   57DOPE  H16R 7298   0.534   1.617   4.968  2.1454 -1.9956  1.5444
   57DOPE  H16S 7299   0.450   1.465   4.912 -0.9741  0.6763 -1.2363
   57DOPE  C217 7300   0.373   1.531   5.104  0.0556 -0.2286 -0.0879
   57DOPE  H17R 7301   0.438   1.456   5.155  1.9142  0.5782 -1.1414
   57DOPE  H17S 7302   0.280   1.478   5.073 -0.9917  1.0234  0.8457
   57DOPE  C218 7303   0.344   1.655   5.197  0.3247  0.0568  0.5297
   57DOPE  H18R 7304   0.434   1.681   5.257  0.8402 -1.3200  0.3773
   57DOPE  H18S 7305   0.261   1.636   5.268 -0.2666 -3.2235 -0.8817
   57DOPE  H18T 7306   0.297   1.742   5.146 -2.1290 -0.2147  2.1500
   57DOPE   C33 7307  -0.061   1.890   3.780  0.3738  0.0119  0.9027
   57DOPE   H3X 7308   0.020   1.961   3.809 -0.1964  0.7607  0.6973
   57DOPE   H3Y 7309  -0.025   1.811   3.711 -2.7340  0.3723 -1.3109
   57DOPE   C34 7310  -0.108   1.805   3.904  0.7287  0.0409 -0.3871
   57DOPE   H4X 7311  -0.179   1.725   3.875  1.1827 -0.8513  0.8833
   57DOPE   H4Y 7312  -0.021   1.750   3.946 -0.2490 -0.8413  0.5345
   57DOPE   C35 7313  -0.186   1.881   4.014 -0.3349  0.4695  0.6140
   57DOPE   H5X 7314  -0.273   1.932   3.968 -0.1715 -1.1603 -1.6920
   57DOPE   H5Y 7315  -0.111   1.953   4.053  0.7675 -0.8545  1.0077
   57DOPE   C36 7316  -0.227   1.791   4.130 -0.7233  0.6851  0.2023
   57DOPE   H6X 7317  -0.135   1.736   4.159 -0.1646  0.7346 -1.3664
   57DOPE   H6Y 7318  -0.305   1.722   4.092 -0.0034 -1.0049  1.6574
   57DOPE   C37 7319  -0.281   1.882   4.241 -0.3634  0.1847 -0.4896
   57DOPE   H7X 7320  -0.193   1.939   4.276 -0.6424  1.8320 -2.3206
   57DOPE   H7Y 7321  -0.361   1.946   4.198 -2.5974 -2.6370 -0.8822
   57DOPE   C38 7322  -0.329   1.800   4.363  0.1956 -0.1184 -0.4495
   57DOPE   H8X 7323  -0.245   1.738   4.402  1.1743 -0.0625 -2.3658
   57DOPE   H8Y 7324  -0.416   1.740   4.328 -0.1545  1.0445 -1.6712
   57DOPE   C39 7325  -0.376   1.890   4.469 -0.5943  0.0773  0.6585
   57DOPE   H9X 7326  -0.456   1.961   4.442 -0.8874  0.1057  1.5626
   57DOPE  C310 7327  -0.351   1.896   4.600  0.5049  0.6550 -0.4070
   57DOPE  H10X 7328  -0.403   1.968   4.665 -1.0016 -2.7108  2.4466
   57DOPE  C311 7329  -0.254   1.811   4.682  0.5727  0.6296 -0.1397
   57DOPE  H11X 7330  -0.308   1.779   4.773  1.6311  3.1944  1.5150
   57DOPE  H11Y 7331  -0.224   1.718   4.629  0.7134 -0.1572  1.2866
   57DOPE  C312 7332  -0.128   1.892   4.735  0.5835 -0.3507 -0.9199
   57DOPE  H12X 7333  -0.082   1.955   4.656  3.5510 -1.4180 -0.1932
   57DOPE  H12Y 7334  -0.050   1.814   4.747  1.1757  0.1949 -1.1942
   57DOPE  C313 7335  -0.150   1.979   4.852 -0.3227 -0.4418  0.3962
   57DOPE  H13X 7336  -0.057   2.037   4.869 -0.3537 -0.5164  0.8337
   57DOPE  H13Y 7337  -0.225   2.055   4.821 -1.1114 -2.1315 -2.2275
   57DOPE  C314 7338  -0.184   1.913   4.982  0.7081 -0.2365  0.2777
   57DOPE  H14X 7339  -0.271   1.845   4.973 -0.4691  1.2934 -0.1241
   57DOPE  H14Y 7340  -0.224   1.993   5.047 -0.5541 -0.1111 -0.6234
   57DOPE  C315 7341  -0.065   1.841   5.047 -0.0098 -0.2595  0.7826
   57DOPE  H15X 7342  -0.012   1.789   4.964 -2.0464 -1.5545  0.1977
   57DOPE  H15Y 7343  -0.097   1.765   5.122 -0.4435  0.0479  0.9154
   57DOPE  C316 7344   0.014   1.940   5.126  0.0198 -0.5270 -0.3420
   57DOPE  H16X 7345   0.000   2.038   5.075 -2.1083 -1.0134 -0.7901
   57DOPE  H16Y 7346   0.123   1.917   5.125  0.3254  0.7663  0.5771
   57DOPE  C317 7347  -0.038   1.954   5.268  0.3188 -0.0630 -0.2282
   57DOPE  H17X 7348  -0.148   1.967   5.269  0.0219 -1.9032 -2.3801
   57DOPE  H17Y 7349  -0.024   1.858   5.322 -2.3246 -1.4299 -1.7700
   57DOPE  C318 7350   0.035   2.071   5.340  0.4157 -0.1269  0.2704
   57DOPE  H18X 7351   0.011   2.159   5.276  2.8707 -0.4995 -1.3129
   57DOPE  H18Y 7352  -0.013   2.088   5.439 -2.1223 -1.5497 -0.6457
   57DOPE  H18Z 7353   0.145   2.063   5.353  0.2979 -0.1465  1.4026
   58DOPE     N 7354   7.449   6.194   2.785 -0.6854  0.0325 -0.3588
   58DOPE   HN1 7355   7.444   6.236   2.690  0.0451 -0.4179 -0.6019
   58DOPE   HN2 7356   7.510   6.110   2.788  0.1708  0.6416 -0.4489
   58DOPE   HN3 7357   7.355   6.153   2.806 -1.2537  1.3237 -0.2902
   58DOPE   C12 7358   7.489   6.293   2.890 -0.5640 -0.1746 -0.9886
   58DOPE  H12A 7359   7.407   6.365   2.908 -2.8636 -2.4496 -1.7398
   58DOPE  H12B 7360   7.573   6.361   2.866 -3.0638  3.7241  0.4651
   58DOPE   C11 7361   7.520   6.209   3.019 -0.6200 -0.3698 -0.2279
   58DOPE  H11A 7362   7.436   6.139   3.036 -1.3230 -0.0169 -2.0028
   58DOPE  H11B 7363   7.518   6.287   3.098  1.1994  0.6970 -1.1560
   58DOPE     P 7364   7.767   6.173   3.110 -0.0267 -0.4414 -0.0477
   58DOPE   O13 7365   7.826   6.306   3.078 -0.5017  0.2310 -0.8697
   58DOPE   O14 7366   7.871   6.064   3.103  0.1771 -0.4129  0.2534
   58DOPE   O11 7367   7.693   6.168   3.250  0.0112  0.1086 -0.0965
   58DOPE   O12 7368   7.649   6.154   3.007 -0.3566  0.3985  0.6473
   58DOPE    C1 7369   7.597   6.059   3.276  0.1303 -0.1312  0.7218
   58DOPE    HA 7370   7.598   5.968   3.211 -1.1253 -0.1851  0.7661
   58DOPE    HB 7371   7.490   6.084   3.284 -0.3646 -1.9517  0.3227
   58DOPE    C2 7372   7.628   5.984   3.405  0.5117 -0.9151  0.9856
   58DOPE    HS 7373   7.562   5.896   3.423 -1.4313  0.6243  1.7116
   58DOPE   O21 7374   7.620   6.084   3.511  0.5995  0.2859 -0.1094
   58DOPE   C21 7375   7.590   6.032   3.628 -0.4314  0.3153  0.2800
   58DOPE   O22 7376   7.559   5.912   3.645 -0.4058 -0.6142  0.8543
   58DOPE   C22 7377   7.582   6.139   3.735  0.1709 -0.1631 -0.1684
   58DOPE   H2R 7378   7.484   6.190   3.723 -0.0459 -0.8127 -1.2873
   58DOPE   H2S 7379   7.670   6.205   3.717  0.4596 -0.3860  0.3983
   58DOPE    C3 7380   7.777   5.931   3.393 -0.0716 -0.0806 -0.3528
   58DOPE    HX 7381   7.839   6.021   3.369  1.4511 -1.1673 -0.6218
   58DOPE    HY 7382   7.781   5.865   3.304  0.2988 -0.6369  0.0761
   58DOPE   O31 7383   7.829   5.870   3.511 -0.7510  0.5435 -0.0044
   58DOPE   C31 7384   7.788   5.750   3.552  0.1135 -0.4719  0.1631
   58DOPE   O32 7385   7.705   5.679   3.502 -0.4110  0.1573  0.2274
   58DOPE   C32 7386   7.851   5.715   3.685  0.5316 -0.2902 -0.0992
   58DOPE   H2X 7387   7.837   5.810   3.740 -0.9871  0.6194 -1.9258
   58DOPE   H2Y 7388   7.795   5.637   3.740  0.3772 -0.6683 -0.7836
   58DOPE   C23 7389   7.592   6.085   3.880  0.5702 -0.0438  0.3196
   58DOPE   H3R 7390   7.699   6.077   3.907  0.9014 -1.1150 -1.2469
   58DOPE   H3S 7391   7.555   5.982   3.897  0.1076  0.0172 -0.2786
   58DOPE   C24 7392   7.539   6.184   3.987  0.3248  0.2196  0.5930
   58DOPE   H4R 7393   7.433   6.208   3.966  0.5336  0.0513 -0.7394
   58DOPE   H4S 7394   7.585   6.284   3.977 -0.4010  0.5693  0.6793
   58DOPE   C25 7395   7.542   6.126   4.125  0.4085 -0.4407  0.2577
   58DOPE   H5R 7396   7.650   6.102   4.140  1.0765  1.0475 -1.6773
   58DOPE   H5S 7397   7.483   6.032   4.121 -0.3234  0.0293 -0.1995
   58DOPE   C26 7398   7.483   6.214   4.239  0.0394 -0.3035 -0.3287
   58DOPE   H6R 7399   7.376   6.241   4.226  0.9938  2.8593 -2.6618
   58DOPE   H6S 7400   7.533   6.311   4.221  0.1949 -0.5208 -1.0810
   58DOPE   C27 7401   7.497   6.155   4.379  0.3744  0.0193  0.4925
   58DOPE   H7R 7402   7.602   6.154   4.417  0.0359  1.0268  1.5061
   58DOPE   H7S 7403   7.471   6.047   4.380  1.0340 -0.1430  0.9982
   58DOPE   C28 7404   7.401   6.211   4.486  0.5140 -0.1183 -0.5791
   58DOPE   H8R 7405   7.295   6.214   4.451  0.0042  2.7306  0.8616
   58DOPE   H8S 7406   7.434   6.317   4.490  0.3280 -0.0835  0.2322
   58DOPE   C29 7407   7.417   6.139   4.611 -0.3401  0.2998 -0.6497
   58DOPE   H9R 7408   7.440   6.032   4.611 -1.1157  0.1118  0.1900
   58DOPE  C210 7409   7.401   6.189   4.736  0.0330 -0.3288  0.3614
   58DOPE  H10R 7410   7.432   6.135   4.826  1.5240  0.6059  0.4447
   58DOPE  C211 7411   7.354   6.327   4.777 -0.3673  0.0457 -0.1891
   58DOPE  H11R 7412   7.250   6.321   4.816 -0.2227  0.5181  0.2929
   58DOPE  H11S 7413   7.354   6.403   4.697  1.7464  0.2772 -0.0252
   58DOPE  C212 7414   7.443   6.372   4.890 -0.0316 -0.2754 -0.4386
   58DOPE  H12R 7415   7.544   6.396   4.851  0.1241 -1.0257 -0.5076
   58DOPE  H12S 7416   7.449   6.288   4.963  1.4800  1.1033  1.1390
   58DOPE  C213 7417   7.393   6.495   4.972 -1.0830 -1.1204 -0.5997
   58DOPE  H13R 7418   7.304   6.460   5.030 -0.8307  0.3026  0.7245
   58DOPE  H13S 7419   7.368   6.572   4.897  0.3649  0.3992  0.4046
   58DOPE  C214 7420   7.500   6.554   5.066  0.3046  0.0403 -0.2194
   58DOPE  H14R 7421   7.567   6.612   5.000  0.4506 -1.3265 -1.3152
   58DOPE  H14S 7422   7.572   6.485   5.115  0.6718 -0.9008 -2.0114
   58DOPE  C215 7423   7.454   6.662   5.165  0.7692  0.0931  0.2924
   58DOPE  H15R 7424   7.363   6.635   5.222  0.3440  1.5455  0.3426
   58DOPE  H15S 7425   7.405   6.737   5.099  0.2644  1.3376  2.0313
   58DOPE  C216 7426   7.557   6.718   5.270 -0.3769  0.1938  0.3053
   58DOPE  H16R 7427   7.636   6.760   5.204  0.0732  0.3731  0.9440
   58DOPE  H16S 7428   7.595   6.630   5.326  2.0386  1.1155  0.2780
   58DOPE  C217 7429   7.497   6.814   5.363  0.1943  0.4940 -0.3976
   58DOPE  H17R 7430   7.427   6.883   5.311 -0.0323  0.5638 -0.0121
   58DOPE  H17S 7431   7.568   6.895   5.389 -0.1041  0.9208 -0.8878
   58DOPE  C218 7432   7.427   6.757   5.489  0.5838  0.3416 -0.4511
   58DOPE  H18R 7433   7.368   6.838   5.535  1.4351  1.8557 -1.9225
   58DOPE  H18S 7434   7.503   6.718   5.560  2.2584 -0.1853 -2.4266
   58DOPE  H18T 7435   7.362   6.672   5.460  1.2307  1.0782 -4.6851
   58DOPE   C33 7436   7.998   5.687   3.672 -0.1662  0.2020  0.1247
   58DOPE   H3X 7437   8.043   5.762   3.603 -0.9423 -1.3478 -2.2146
   58DOPE   H3Y 7438   8.003   5.588   3.621  0.4330  0.2656  0.0566
   58DOPE   C34 7439   8.076   5.661   3.797 -0.0747  0.4062  0.0762
   58DOPE   H4X 7440   8.019   5.592   3.863  0.3439 -0.0846 -0.0758
   58DOPE   H4Y 7441   8.171   5.611   3.769 -1.7738 -3.8488  1.0802
   58DOPE   C35 7442   8.113   5.786   3.873 -0.5800 -0.6140  0.2052
   58DOPE   H5X 7443   8.018   5.842   3.889  0.9573  1.8538  1.1084
   58DOPE   H5Y 7444   8.164   5.849   3.798  0.4017 -1.1306  0.4331
   58DOPE   C36 7445   8.186   5.763   4.000  0.4700  0.8386  0.3901
   58DOPE   H6X 7446   8.297   5.762   3.990  0.3832 -0.1196 -0.6729
   58DOPE   H6Y 7447   8.152   5.663   4.035 -0.2737 -0.2527 -3.0652
   58DOPE   C37 7448   8.154   5.868   4.112 -0.8442 -0.3057 -1.3876
   58DOPE   H7X 7449   8.214   5.956   4.082 -0.7793  1.6759  3.6359
   58DOPE   H7Y 7450   8.048   5.901   4.106 -1.2155 -1.4159 -1.1732
   58DOPE   C38 7451   8.197   5.821   4.258 -0.1910 -0.3639 -0.1459
   58DOPE   H8X 7452   8.228   5.916   4.306 -3.1264  2.1592 -2.7866
   58DOPE   H8Y 7453   8.280   5.748   4.252 -1.0982 -1.3900 -0.5632
   58DOPE   C39 7454   8.075   5.778   4.335  0.1088 -0.6748 -0.0551
   58DOPE   H9X 7455   8.012   5.860   4.373  1.1745 -0.4826  1.3956
   58DOPE  C310 7456   8.038   5.654   4.361 -0.1312  0.4842  0.2886
   58DOPE  H10X 7457   7.945   5.638   4.416 -0.4707 -1.7225 -0.8213
   58DOPE  C311 7458   8.116   5.532   4.319 -0.1411 -0.1387 -0.1054
   58DOPE  H11X 7459   8.200   5.552   4.250 -0.8999  0.6581 -0.8325
   58DOPE  H11Y 7460   8.155   5.488   4.413  0.4516 -1.8470 -1.1141
   58DOPE  C312 7461   8.014   5.438   4.248 -0.0411  0.5899  0.5079
   58DOPE  H12X 7462   7.973   5.500   4.165 -2.1101 -1.1412  0.1172
   58DOPE  H12Y 7463   7.928   5.416   4.315 -0.7064 -0.9605 -0.7743
   58DOPE  C313 7464   8.077   5.309   4.190 -0.6131  0.7278 -0.1031
   58DOPE  H13X 7465   8.122   5.254   4.275 -0.5236  0.1190 -0.5334
   58DOPE  H13Y 7466   7.992   5.254   4.143 -2.3074  1.1170  2.3618
   58DOPE  C314 7467   8.183   5.334   4.067 -0.0217 -0.0694  0.0451
   58DOPE  H14X 7468   8.271   5.390   4.105  0.5511 -1.4039  0.7357
   58DOPE  H14Y 7469   8.131   5.400   3.995  1.5715  1.1927  0.0047
   58DOPE  C315 7470   8.224   5.196   4.016 -0.8509  0.2987 -0.4665
   58DOPE  H15X 7471   8.142   5.139   3.965 -1.5206  0.3677  0.4987
   58DOPE  H15Y 7472   8.249   5.133   4.103 -1.6015  1.0723  0.3309
   58DOPE  C316 7473   8.344   5.199   3.928  0.7207 -0.4437  0.3987
   58DOPE  H16X 7474   8.410   5.112   3.948  0.2867 -0.4162  2.1842
   58DOPE  H16Y 7475   8.398   5.296   3.939  0.6283 -0.3960  0.4321
   58DOPE  C317 7476   8.306   5.188   3.778  0.1873 -0.4660  0.7059
   58DOPE  H17X 7477   8.266   5.085   3.759 -0.6076  0.3978 -3.3021
   58DOPE  H17Y 7478   8.217   5.245   3.744  1.5862  0.0845 -2.3423
   58DOPE  C318 7479   8.421   5.219   3.687  0.4426  0.4046 -0.9780
   58DOPE  H18X 7480   8.394   5.214   3.579 -1.3933  0.2571 -0.5446
   58DOPE  H18Y 7481   8.463   5.316   3.720 -1.3161  0.8924 -0.0698
   58DOPE  H18Z 7482   8.503   5.145   3.690 -0.4220 -0.6605  3.6595
   59DOPE     N 7483   0.194   1.468   3.122  0.0113  0.1288  0.6184
   59DOPE   HN1 7484   0.285   1.430   3.154 -0.7180 -1.6935  0.6520
   59DOPE   HN2 7485   0.213   1.549   3.060  1.1325 -0.7643 -0.2241
   59DOPE   HN3 7486   0.142   1.497   3.208  1.1134 -0.5205  1.5275
   59DOPE   C12 7487   0.121   1.363   3.045 -0.2627  0.2283  0.1054
   59DOPE  H12A 7488   0.182   1.352   2.952 -0.8530 -0.8777 -0.1743
   59DOPE  H12B 7489   0.017   1.395   3.024 -0.4770 -1.4225 -1.6461
   59DOPE   C11 7490   0.112   1.228   3.127 -0.9818  0.1514 -0.5930
   59DOPE  H11A 7491   0.061   1.147   3.071  1.4846 -1.7810 -0.2153
   59DOPE  H11B 7492   0.034   1.254   3.202 -0.1009 -2.3027  1.3286
   59DOPE     P 7493   0.313   1.075   3.096  0.3544 -0.5848 -0.3209
   59DOPE   O13 7494   0.455   1.077   3.136 -0.0175  0.9275 -0.5120
   59DOPE   O14 7495   0.288   1.083   2.952  0.0992 -0.0725  0.4585
   59DOPE   O11 7496   0.242   0.942   3.148  0.0166 -0.0810 -0.2598
   59DOPE   O12 7497   0.245   1.188   3.175  0.5639  0.0829 -0.0206
   59DOPE    C1 7498   0.264   0.920   3.286  0.3647 -0.9077 -0.1998
   59DOPE    HA 7499   0.351   0.966   3.337 -0.7759 -1.8324  2.8190
   59DOPE    HB 7500   0.277   0.811   3.301 -0.2277 -0.9915 -0.2610
   59DOPE    C2 7501   0.135   0.954   3.364 -0.3581  0.0700 -0.4697
   59DOPE    HS 7502   0.143   1.065   3.373  2.5378 -0.1835  1.8104
   59DOPE   O21 7503   0.139   0.884   3.490  0.3803  0.4700  0.0328
   59DOPE   C21 7504   0.109   0.962   3.587 -0.2539 -0.4211  0.2572
   59DOPE   O22 7505   0.065   1.080   3.574  0.0267 -0.0247  0.4673
   59DOPE   C22 7506   0.144   0.904   3.720  0.4264 -0.2642 -0.2143
   59DOPE   H2R 7507   0.252   0.878   3.719  0.2215 -1.1613 -1.3105
   59DOPE   H2S 7508   0.084   0.812   3.732 -1.8596  1.0633 -0.8783
   59DOPE    C3 7509   0.009   0.905   3.282 -0.9470  0.0454 -0.4526
   59DOPE    HX 7510   0.036   0.799   3.263 -0.8073  0.3404 -2.0675
   59DOPE    HY 7511   0.003   0.958   3.184  2.0648  1.1236 -0.1588
   59DOPE   O31 7512  -0.116   0.900   3.346 -0.1945 -0.3447 -0.3636
   59DOPE   C31 7513  -0.190   1.018   3.337  0.3998 -0.2079  0.0570
   59DOPE   O32 7514  -0.152   1.122   3.285 -0.3733 -0.8726  0.0185
   59DOPE   C32 7515  -0.338   0.999   3.385 -0.0819  0.6144  0.2706
   59DOPE   H2X 7516  -0.398   1.041   3.302 -2.5580 -2.9480  0.0462
   59DOPE   H2Y 7517  -0.360   0.891   3.397  0.2955  0.4999 -0.0421
   59DOPE   C23 7518   0.112   0.994   3.841 -0.2683  0.7369 -0.1811
   59DOPE   H3R 7519   0.003   1.017   3.842 -0.8113 -1.4953  1.4422
   59DOPE   H3S 7520   0.167   1.089   3.831  1.3896 -0.4155 -3.3079
   59DOPE   C24 7521   0.146   0.917   3.973 -0.8306 -0.0297 -0.1881
   59DOPE   H4R 7522   0.249   0.877   3.966 -0.5450  0.9722 -2.9990
   59DOPE   H4S 7523   0.084   0.825   3.966  0.4525 -0.8871 -0.6737
   59DOPE   C25 7524   0.099   0.982   4.097 -0.3412  0.2190  0.6780
   59DOPE   H5R 7525  -0.003   1.022   4.078 -0.1615  1.3631  1.9790
   59DOPE   H5S 7526   0.164   1.070   4.116 -1.9986  1.5853  0.2372
   59DOPE   C26 7527   0.083   0.896   4.222 -0.3340 -0.4769  1.1831
   59DOPE   H6R 7528  -0.002   0.829   4.196 -1.9376  1.2508  1.8182
   59DOPE   H6S 7529   0.047   0.949   4.312  0.1967 -0.3514  1.3260
   59DOPE   C27 7530   0.203   0.810   4.253  0.2566 -0.4011  0.7503
   59DOPE   H7R 7531   0.292   0.845   4.197 -1.0922  1.3745 -0.3969
   59DOPE   H7S 7532   0.193   0.703   4.221 -1.2310 -0.5654  1.6334
   59DOPE   C28 7533   0.235   0.811   4.405 -0.3037 -0.1446  1.1880
   59DOPE   H8R 7534   0.138   0.806   4.458 -0.5563 -1.2096  0.6629
   59DOPE   H8S 7535   0.279   0.911   4.424  0.6334 -0.3663  0.2806
   59DOPE   C29 7536   0.331   0.700   4.448  0.3963 -0.3111  0.6963
   59DOPE   H9R 7537   0.278   0.605   4.462 -1.3006  0.7883  2.2888
   59DOPE  C210 7538   0.460   0.725   4.482 -0.3352 -0.1948 -0.0147
   59DOPE  H10R 7539   0.521   0.634   4.492  0.6353  0.6392  2.4272
   59DOPE  C211 7540   0.535   0.854   4.488 -0.1630 -0.2696  0.0564
   59DOPE  H11R 7541   0.461   0.936   4.475 -0.9212 -0.3271  3.2455
   59DOPE  H11S 7542   0.618   0.859   4.414  0.9792  0.5071  1.3455
   59DOPE  C212 7543   0.599   0.879   4.630 -0.1296 -1.2058  0.4247
   59DOPE  H12R 7544   0.657   0.974   4.622  0.2881 -1.4729  0.2220
   59DOPE  H12S 7545   0.679   0.808   4.661  1.0361 -0.0766  0.1312
   59DOPE  C213 7546   0.503   0.875   4.748  1.0480  0.2269  0.7299
   59DOPE  H13R 7547   0.472   0.769   4.757  0.6973  0.2272 -0.3694
   59DOPE  H13S 7548   0.410   0.933   4.730 -0.2343 -1.1416  2.5840
   59DOPE  C214 7549   0.566   0.943   4.870  0.1554 -0.4835 -0.0661
   59DOPE  H14R 7550   0.586   1.049   4.843 -2.3943 -0.4314 -2.1149
   59DOPE  H14S 7551   0.669   0.904   4.881 -0.5505 -2.3407  0.1949
   59DOPE  C215 7552   0.477   0.925   4.993  0.0438  0.4522  0.5589
   59DOPE  H15R 7553   0.418   0.831   4.987  0.5626  0.1029  0.8436
   59DOPE  H15S 7554   0.398   1.003   4.990  1.3426  1.8949  1.8651
   59DOPE  C216 7555   0.546   0.933   5.121 -0.6581 -0.8538  0.1247
   59DOPE  H16R 7556   0.621   0.851   5.129 -0.0973 -0.3924 -0.3314
   59DOPE  H16S 7557   0.472   0.923   5.203 -0.4806 -0.2300  0.3660
   59DOPE  C217 7558   0.624   1.063   5.144  0.2120  0.0462 -0.6225
   59DOPE  H17R 7559   0.556   1.151   5.136 -0.7810 -0.7255 -0.9380
   59DOPE  H17S 7560   0.701   1.087   5.067 -1.1152  2.9231 -1.1842
   59DOPE  C218 7561   0.704   1.059   5.269  0.1171 -0.0194  0.4980
   59DOPE  H18R 7562   0.753   0.961   5.285  1.7177  0.6282 -0.2373
   59DOPE  H18S 7563   0.648   1.076   5.364 -0.2021 -3.0969  0.9733
   59DOPE  H18T 7564   0.789   1.131   5.265  1.4612 -1.6139 -1.5882
   59DOPE   C33 7565  -0.373   1.073   3.516  0.5204 -0.5425 -0.0449
   59DOPE   H3X 7566  -0.484   1.086   3.523  0.6661 -0.1524  2.2201
   59DOPE   H3Y 7567  -0.344   1.180   3.509  2.7495 -1.1574 -0.9494
   59DOPE   C34 7568  -0.306   1.024   3.643 -0.1885 -0.2496 -0.2391
   59DOPE   H4X 7569  -0.309   0.919   3.681  0.1350  0.9040  3.3466
   59DOPE   H4Y 7570  -0.197   1.040   3.629 -0.2231  2.3468  1.7478
   59DOPE   C35 7571  -0.331   1.117   3.769  0.1286  0.9520 -0.0839
   59DOPE   H5X 7572  -0.442   1.124   3.778  0.0555  2.1002 -1.4822
   59DOPE   H5Y 7573  -0.287   1.217   3.746  1.3723  0.2626 -0.8388
   59DOPE   C36 7574  -0.278   1.050   3.902  0.3104 -0.4735  0.2855
   59DOPE   H6X 7575  -0.208   1.128   3.939  0.5987 -0.4838 -0.2337
   59DOPE   H6Y 7576  -0.232   0.953   3.874  0.7260  0.3106 -1.9747
   59DOPE   C37 7577  -0.386   1.028   4.001 -0.1298  0.5432 -0.0329
   59DOPE   H7X 7578  -0.440   1.125   4.012 -1.8985 -0.3999  0.0424
   59DOPE   H7Y 7579  -0.456   0.954   3.956  2.2654 -0.5352 -2.2309
   59DOPE   C38 7580  -0.331   0.980   4.143  0.1429 -0.2109 -0.0214
   59DOPE   H8X 7581  -0.284   1.070   4.188 -0.0615 -1.0522  1.9805
   59DOPE   H8Y 7582  -0.256   0.900   4.128  0.3678 -0.1350  0.6747
   59DOPE   C39 7583  -0.445   0.923   4.225  0.4158  0.2406  0.2600
   59DOPE   H9X 7584  -0.504   0.841   4.181 -0.2344  0.8431 -0.0146
   59DOPE  C310 7585  -0.491   0.962   4.346  0.1200 -0.5639  0.5734
   59DOPE  H10X 7586  -0.557   0.895   4.403 -2.0051 -0.2319 -1.3420
   59DOPE  C311 7587  -0.439   1.079   4.424  0.2438 -0.2804 -0.8427
   59DOPE  H11X 7588  -0.397   1.166   4.368  2.3610  0.4745  1.7362
   59DOPE  H11Y 7589  -0.516   1.133   4.483 -0.0658 -1.3156 -0.2678
   59DOPE  C312 7590  -0.341   1.039   4.534  0.1574 -0.3091 -0.3476
   59DOPE  H12X 7591  -0.393   0.970   4.603 -1.6551  1.0150 -0.3035
   59DOPE  H12Y 7592  -0.330   1.127   4.602  2.0312  0.4527 -1.5369
   59DOPE  C313 7593  -0.201   1.005   4.485  0.0460 -0.1694 -0.1309
   59DOPE  H13X 7594  -0.202   0.908   4.432 -0.3313 -0.1517 -0.1553
   59DOPE  H13Y 7595  -0.174   1.084   4.412 -1.0951 -0.5837 -1.0346
   59DOPE  C314 7596  -0.093   0.993   4.593 -0.3596 -0.1971 -0.4168
   59DOPE  H14X 7597  -0.096   1.078   4.664 -0.4034 -0.8896  0.4389
   59DOPE  H14Y 7598   0.004   0.988   4.540 -0.1405 -0.9812  0.0405
   59DOPE  C315 7599  -0.099   0.859   4.670 -0.1252 -0.0457 -0.0597
   59DOPE  H15X 7600  -0.085   0.780   4.593 -3.0500  0.3904 -1.2024
   59DOPE  H15Y 7601  -0.203   0.852   4.710 -0.4028 -0.8696 -0.8806
   59DOPE  C316 7602   0.008   0.853   4.774  0.1470 -0.2035  0.4080
   59DOPE  H16X 7603  -0.005   0.939   4.842  2.5012  0.4549  0.1185
   59DOPE  H16Y 7604   0.111   0.863   4.732 -0.3551 -0.3706 -0.9343
   59DOPE  C317 7605   0.014   0.728   4.864  0.3193  0.0662  0.1691
   59DOPE  H17X 7606  -0.090   0.722   4.902  0.3312 -1.8271 -0.0163
   59DOPE  H17Y 7607   0.026   0.633   4.809 -2.0225 -0.1444 -0.1102
   59DOPE  C318 7608   0.116   0.744   4.979 -0.2862 -1.0543  0.1314
   59DOPE  H18X 7609   0.096   0.840   5.031  0.7340  0.3542 -1.9238
   59DOPE  H18Y 7610   0.102   0.666   5.058 -0.3515 -0.4210  0.7524
   59DOPE  H18Z 7611   0.221   0.736   4.944 -0.5388  1.2004 -1.3183
   60DOPE     N 7612   0.233   6.521   2.944  0.6594 -0.3062 -0.8781
   60DOPE   HN1 7613   0.170   6.603   2.950 -0.2141 -0.8391 -2.2253
   60DOPE   HN2 7614   0.252   6.493   2.846  1.3772  0.7064 -1.0419
   60DOPE   HN3 7615   0.200   6.437   2.995 -1.2444 -0.8345 -2.8048
   60DOPE   C12 7616   0.370   6.556   3.005 -0.2204  0.3741 -0.1329
   60DOPE  H12A 7617   0.441   6.476   2.974  0.2712  0.4175  0.8294
   60DOPE  H12B 7618   0.360   6.531   3.113 -0.2699 -0.8428 -0.4058
   60DOPE   C11 7619   0.408   6.699   2.963  0.0901 -0.5448 -0.3301
   60DOPE  H11A 7620   0.420   6.702   2.853  1.9336 -1.0192 -0.1742
   60DOPE  H11B 7621   0.512   6.721   2.995 -0.2875  1.7315 -0.4601
   60DOPE     P 7622   0.378   6.956   3.003 -0.1882 -0.3578 -0.4925
   60DOPE   O13 7623   0.265   7.059   3.014  0.3114 -0.1657 -0.2108
   60DOPE   O14 7624   0.474   6.969   2.893  0.1766 -0.3862  0.0451
   60DOPE   O11 7625   0.456   6.966   3.136 -0.1922  0.3768  0.3749
   60DOPE   O12 7626   0.327   6.807   3.010  0.1708  0.4004 -0.1074
   60DOPE    C1 7627   0.430   6.881   3.250  0.0861  0.0342 -0.3768
   60DOPE    HA 7628   0.505   6.901   3.329  1.3840 -0.8122 -1.3699
   60DOPE    HB 7629   0.431   6.772   3.229  0.7443 -0.1407  0.5149
   60DOPE    C2 7630   0.301   6.935   3.326  0.4008  0.0214 -0.0859
   60DOPE    HS 7631   0.218   6.948   3.254  0.1377 -1.1938 -0.0266
   60DOPE   O21 7632   0.332   7.052   3.406  0.5404  0.2221 -0.2980
   60DOPE   C21 7633   0.217   7.126   3.434  0.7673  0.7411  0.3052
   60DOPE   O22 7634   0.102   7.093   3.408 -0.4705  0.3847 -0.1325
   60DOPE   C22 7635   0.262   7.257   3.492 -0.3833 -0.2815  0.1655
   60DOPE   H2R 7636   0.242   7.333   3.413 -0.3994 -1.3641 -0.9087
   60DOPE   H2S 7637   0.369   7.250   3.519  0.1777  0.8006 -1.6380
   60DOPE    C3 7638   0.253   6.828   3.426  0.2456  0.0839  0.0358
   60DOPE    HX 7639   0.213   6.752   3.355 -2.0268  0.7219  0.5299
   60DOPE    HY 7640   0.168   6.870   3.484 -0.8935 -0.8780 -0.8614
   60DOPE   O31 7641   0.358   6.774   3.512 -0.3055 -0.9923  0.2235
   60DOPE   C31 7642   0.353   6.811   3.640 -0.5756  0.7864  0.5066
   60DOPE   O32 7643   0.264   6.881   3.679  0.1797 -0.2662 -0.0007
   60DOPE   C32 7644   0.479   6.757   3.712  0.0274  0.4114  0.2154
   60DOPE   H2X 7645   0.481   6.646   3.703  1.6685  0.5360 -1.6445
   60DOPE   H2Y 7646   0.577   6.792   3.673 -0.5709  1.6283 -0.2454
   60DOPE   C23 7647   0.173   7.290   3.622  0.2375  0.1935 -0.6048
   60DOPE   H3R 7648   0.071   7.256   3.594 -1.0731  2.8529  0.5660
   60DOPE   H3S 7649   0.174   7.400   3.637  0.6840  0.1601 -0.3698
   60DOPE   C24 7650   0.219   7.220   3.746 -0.3643 -0.1358 -0.1484
   60DOPE   H4R 7651   0.329   7.239   3.751 -0.4807  0.7164 -0.5484
   60DOPE   H4S 7652   0.206   7.111   3.733  0.6899 -0.2881  0.0049
   60DOPE   C25 7653   0.154   7.267   3.876  0.2849 -0.3239 -0.4030
   60DOPE   H5R 7654   0.045   7.261   3.855  0.0117  1.2202  0.4206
   60DOPE   H5S 7655   0.184   7.369   3.909  2.0812 -0.8897 -0.1597
   60DOPE   C26 7656   0.175   7.176   3.998  0.2898 -0.3935 -0.4666
   60DOPE   H6R 7657   0.285   7.172   4.013  0.0155 -2.1483  1.5359
   60DOPE   H6S 7658   0.144   7.073   3.973 -2.6048  0.4589 -0.7064
   60DOPE   C27 7659   0.116   7.233   4.124  0.0376  0.2222  0.0937
   60DOPE   H7R 7660   0.009   7.257   4.108 -0.6919 -2.4372  0.5848
   60DOPE   H7S 7661   0.169   7.325   4.158  0.6729 -0.0916 -0.0290
   60DOPE   C28 7662   0.132   7.144   4.247  0.1001 -0.1796  0.3947
   60DOPE   H8R 7663   0.084   7.192   4.334 -1.2680  0.4237 -0.6565
   60DOPE   H8S 7664   0.243   7.134   4.252  0.3699  2.4098  0.5043
   60DOPE   C29 7665   0.062   7.009   4.225 -0.4825 -0.2614 -0.0334
   60DOPE   H9R 7666  -0.046   7.009   4.201 -0.5111  0.3256  0.0609
   60DOPE  C210 7667   0.117   6.887   4.243  0.3990  0.2277  0.4213
   60DOPE  H10R 7668   0.053   6.799   4.226 -1.0370  1.4504 -0.6843
   60DOPE  C211 7669   0.263   6.866   4.284  0.0763 -0.5982 -0.5422
   60DOPE  H11R 7670   0.335   6.944   4.253 -0.7476 -0.3423 -1.8872
   60DOPE  H11S 7671   0.299   6.787   4.215  2.8531  0.7350 -0.7417
   60DOPE  C212 7672   0.291   6.824   4.432  0.2909  0.0591  0.2008
   60DOPE  H12R 7673   0.251   6.721   4.449 -2.2437  0.6201 -1.8235
   60DOPE  H12S 7674   0.242   6.897   4.500 -0.3410  1.2510 -1.4817
   60DOPE  C213 7675   0.435   6.820   4.478  0.4029  0.3063  0.2198
   60DOPE  H13R 7676   0.481   6.908   4.428 -1.5540  0.8857 -0.6966
   60DOPE  H13S 7677   0.477   6.723   4.444  0.8680  0.6147 -0.1041
   60DOPE  C214 7678   0.456   6.824   4.626 -0.0924 -0.2638  0.0810
   60DOPE  H14R 7679   0.442   6.931   4.652 -2.5410 -0.6120  0.3775
   60DOPE  H14S 7680   0.562   6.807   4.653  0.2232  1.2355 -0.1189
   60DOPE  C215 7681   0.374   6.728   4.717  0.0115 -0.3717  0.0697
   60DOPE  H15R 7682   0.389   6.629   4.669  0.9965 -0.1347 -0.1212
   60DOPE  H15S 7683   0.266   6.754   4.713  0.6891  2.6880 -1.2509
   60DOPE  C216 7684   0.429   6.728   4.855 -0.1325 -0.6666 -0.0657
   60DOPE  H16R 7685   0.534   6.761   4.870  0.2861 -1.9545 -0.0225
   60DOPE  H16S 7686   0.420   6.626   4.897  1.4499 -1.0680 -0.6415
   60DOPE  C217 7687   0.346   6.809   4.956  0.0719  0.3574 -0.2522
   60DOPE  H17R 7688   0.240   6.779   4.948  0.0294  0.9183 -2.2432
   60DOPE  H17S 7689   0.354   6.918   4.936  0.6661  0.3368 -0.1634
   60DOPE  C218 7690   0.392   6.781   5.098  0.3187  0.1748  0.2201
   60DOPE  H18R 7691   0.381   6.671   5.110 -0.7591  0.2388 -0.0953
   60DOPE  H18S 7692   0.335   6.841   5.173  0.3769 -0.3057  0.6537
   60DOPE  H18T 7693   0.499   6.803   5.121 -0.7078  3.8105  2.5137
   60DOPE   C33 7694   0.465   6.789   3.865  0.4827 -0.3388  0.2554
   60DOPE   H3X 7695   0.367   6.745   3.896  0.8268 -0.6414  0.9365
   60DOPE   H3Y 7696   0.457   6.897   3.886 -0.6555 -0.6953  1.8715
   60DOPE   C34 7697   0.587   6.736   3.948  0.7944 -0.4531  0.4581
   60DOPE   H4X 7698   0.590   6.625   3.948  0.2750 -0.4768 -0.4150
   60DOPE   H4Y 7699   0.674   6.768   3.887  0.0207  0.7027 -0.0788
   60DOPE   C35 7700   0.606   6.802   4.081  0.0076 -0.5214 -0.0676
   60DOPE   H5X 7701   0.514   6.781   4.140  0.7339 -0.3369  1.1781
   60DOPE   H5Y 7702   0.610   6.913   4.077  1.0222 -0.5556 -0.2796
   60DOPE   C36 7703   0.738   6.766   4.153 -0.5685 -0.1362 -0.3936
   60DOPE   H6X 7704   0.825   6.773   4.083 -0.7170 -2.0304 -0.8295
   60DOPE   H6Y 7705   0.724   6.656   4.161 -0.1450 -0.4348 -2.8994
   60DOPE   C37 7706   0.762   6.831   4.288 -0.1262  0.2188 -0.0672
   60DOPE   H7X 7707   0.788   6.938   4.274  3.6743 -0.6819 -1.1142
   60DOPE   H7Y 7708   0.669   6.821   4.348 -0.7954  0.4915 -1.0497
   60DOPE   C38 7709   0.886   6.778   4.368  0.0781 -0.4523  0.1438
   60DOPE   H8X 7710   0.973   6.795   4.301 -0.3068 -0.2133 -0.2970
   60DOPE   H8Y 7711   0.886   6.669   4.388 -0.5754 -0.2245  1.5464
   60DOPE   C39 7712   0.875   6.850   4.499 -0.6828  1.2973 -0.5140
   60DOPE   H9X 7713   0.834   6.951   4.489 -1.3111  1.1805  0.6667
   60DOPE  C310 7714   0.909   6.792   4.615 -0.0322  0.0619 -0.4935
   60DOPE  H10X 7715   0.914   6.865   4.697  1.3458  1.5106 -1.8248
   60DOPE  C311 7716   0.966   6.655   4.650  0.5572 -0.4323  0.0451
   60DOPE  H11X 7717   0.999   6.608   4.555 -1.3759  1.4030 -1.6472
   60DOPE  H11Y 7718   1.056   6.673   4.713  0.7945  1.4892 -0.7682
   60DOPE  C312 7719   0.862   6.581   4.737 -0.2904 -0.9692 -0.4999
   60DOPE  H12X 7720   0.897   6.476   4.747  0.0815 -0.7329  1.0390
   60DOPE  H12Y 7721   0.760   6.570   4.695 -0.9743 -0.2928  0.9165
   60DOPE  C313 7722   0.859   6.647   4.879  0.1117 -0.0869 -0.1047
   60DOPE  H13X 7723   0.959   6.637   4.925 -0.4652  3.9782  2.5451
   60DOPE  H13Y 7724   0.848   6.757   4.878  0.4181 -0.0316  1.1472
   60DOPE  C314 7725   0.758   6.596   4.977 -0.0914  0.2708  0.2620
   60DOPE  H14X 7726   0.788   6.489   4.990 -3.7001 -1.2501 -2.1061
   60DOPE  H14Y 7727   0.654   6.598   4.937  0.5579  1.1458 -1.4439
   60DOPE  C315 7728   0.753   6.667   5.115  0.1165  0.1448 -0.1834
   60DOPE  H15X 7729   0.691   6.759   5.103 -0.9847 -0.7267 -1.4614
   60DOPE  H15Y 7730   0.858   6.680   5.150  1.2149 -0.3694 -3.0781
   60DOPE  C316 7731   0.687   6.570   5.219  0.0411 -0.6393  0.3834
   60DOPE  H16X 7732   0.742   6.475   5.235  1.2303  0.0794  0.7888
   60DOPE  H16Y 7733   0.584   6.551   5.182 -0.5722 -0.9631  2.1774
   60DOPE  C317 7734   0.671   6.630   5.360 -0.5271  0.1771 -0.3232
   60DOPE  H17X 7735   0.644   6.737   5.360  2.7873  1.1200  1.1071
   60DOPE  H17Y 7736   0.597   6.579   5.425 -0.4732 -0.5805 -0.8381
   60DOPE  C318 7737   0.797   6.629   5.440  0.0571  1.2871 -0.8618
   60DOPE  H18X 7738   0.882   6.650   5.372  0.1875  1.6781 -0.5860
   60DOPE  H18Y 7739   0.805   6.693   5.531 -2.3102  0.1241  0.2480
   60DOPE  H18Z 7740   0.811   6.526   5.481 -1.2214  0.8197 -1.5402
   6123SM     N 7741   3.816   5.535   7.828  0.2256 -0.2138  0.6244
   6123SM   C15 7742   3.866   5.443   7.941 -0.2477 -0.2068  0.0501
   6123SM  H15A 7743   3.844   5.497   8.032  2.2835  0.6708  0.1994
   6123SM  H15B 7744   3.973   5.432   7.935 -0.0250  0.4757  2.0819
   6123SM  H15C 7745   3.814   5.348   7.940 -0.6536 -0.0019  0.7140
   6123SM   C14 7746   3.816   5.454   7.706  0.3319 -0.0154 -0.8017
   6123SM  H14A 7747   3.746   5.372   7.707 -0.3745  0.5195 -2.2737
   6123SM  H14B 7748   3.908   5.406   7.677  0.6023  0.7480 -1.2539
   6123SM  H14C 7749   3.787   5.527   7.632 -0.3991  1.1480  0.5831
   6123SM   C13 7750   3.677   5.579   7.854  0.3413  0.2082  0.4215
   6123SM  H13A 7751   3.675   5.631   7.949 -1.2524  0.5394  0.2309
   6123SM  H13B 7752   3.618   5.489   7.864  0.6135 -0.2540 -1.6898
   6123SM  H13C 7753   3.637   5.636   7.772 -0.0278 -3.3344 -2.1049
   6123SM   C12 7754   3.899   5.652   7.807 -0.4770 -0.0135  0.1933
   6123SM  H12A 7755   4.005   5.630   7.809 -0.4484 -0.2554 -1.7762
   6123SM  H12B 7756   3.890   5.724   7.886 -1.5110 -1.7380  1.7216
   6123SM   C11 7757   3.882   5.734   7.679  0.2669  0.5405  0.3224
   6123SM  H11A 7758   3.904   5.666   7.594 -0.8048  1.0243 -0.3587
   6123SM  H11B 7759   3.964   5.809   7.683  0.8820 -0.0990 -0.2366
   6123SM     P 7760   3.713   5.919   7.584  0.2326  0.0305  0.2726
   6123SM   O13 7761   3.567   5.926   7.563 -0.3887 -0.3301 -0.1940
   6123SM   O14 7762   3.772   6.037   7.660  0.0078  0.1085  0.1136
   6123SM   O11 7763   3.789   5.911   7.447 -0.6479 -0.5812  0.3624
   6123SM   O12 7764   3.745   5.782   7.663  0.1672 -0.3872 -0.3702
   6123SM   C1S 7765   3.763   5.801   7.357 -0.0080 -0.5095 -0.6498
   6123SM   H1S 7766   3.671   5.838   7.306  0.4022  1.9050  0.2207
   6123SM   H1T 7767   3.745   5.703   7.406 -0.7590 -0.2968 -0.4925
   6123SM    NF 7768   3.827   5.670   7.171 -0.2667  0.2514  0.0066
   6123SM   HNF 7769   3.849   5.578   7.203  1.0467  1.1755  1.9062
   6123SM   C2S 7770   3.872   5.785   7.254 -0.0618 -0.3309 -0.0433
   6123SM   H2S 7771   3.878   5.882   7.201  1.4306 -0.9450 -1.0581
   6123SM   C3S 7772   4.011   5.771   7.320  0.4197  0.1399  0.4776
   6123SM   H3S 7773   4.017   5.702   7.407 -0.6554 -3.3613 -2.0218
   6123SM    O3 7774   4.053   5.902   7.366 -0.6104 -0.6873  0.0542
   6123SM   HO3 7775   3.970   5.950   7.376  1.3294  2.7566  1.1709
   6123SM   C4S 7776   4.116   5.727   7.219 -0.1320  0.1281  0.2075
   6123SM   H4S 7777   4.138   5.816   7.159  0.9904 -0.3992 -0.1828
   6123SM   C5S 7778   4.168   5.605   7.194  0.7117  0.1660 -0.2334
   6123SM   H5S 7779   4.136   5.515   7.250  2.2701  0.2545  0.8482
   6123SM   C6S 7780   4.274   5.574   7.093  0.0165 -0.2457  0.1587
   6123SM   H6S 7781   4.368   5.563   7.152  1.3321  1.0803 -1.6056
   6123SM   H6T 7782   4.278   5.665   7.030 -1.0693 -0.3497 -0.0786
   6123SM   C7S 7783   4.230   5.455   7.005 -0.3667 -0.6931 -0.3007
   6123SM   H7S 7784   4.206   5.372   7.074  2.0245 -0.9551  0.2733
   6123SM   H7T 7785   4.316   5.435   6.938 -0.2240 -0.2008 -0.2723
   6123SM   C8S 7786   4.112   5.501   6.909 -0.2991  0.1460  0.2162
   6123SM   H8S 7787   4.164   5.577   6.847  2.8418  0.4426  2.9572
   6123SM   H8T 7788   4.023   5.550   6.955  0.3519 -0.9412  2.7736
   6123SM   C9S 7789   4.073   5.387   6.813 -0.6080 -0.3806 -0.3936
   6123SM   H9S 7790   4.168   5.360   6.762  0.4466  2.2280  0.0227
   6123SM   H9T 7791   4.014   5.429   6.729  0.0296 -1.9203 -1.6552
   6123SM  C10S 7792   4.012   5.267   6.881 -0.1808  0.3953 -0.1265
   6123SM  H10S 7793   3.950   5.305   6.964  1.1324 -0.9873  1.5678
   6123SM  H10T 7794   4.083   5.203   6.938 -0.6411  1.0463  1.1988
   6123SM  C11S 7795   3.932   5.180   6.782  0.4405  0.2620 -0.7910
   6123SM  H11S 7796   3.844   5.232   6.738 -1.1711  1.6017  3.4828
   6123SM  H11T 7797   3.883   5.102   6.844  2.5305 -1.7439 -1.5292
   6123SM  C12S 7798   4.007   5.111   6.671  0.3370 -0.2129 -0.2564
   6123SM  H12S 7799   4.106   5.078   6.708 -0.4823 -0.7935  1.4804
   6123SM  H12T 7800   4.023   5.184   6.588 -0.1253 -2.2242 -2.2273
   6123SM  C13S 7801   3.922   4.992   6.610  0.0583 -0.4454 -0.0458
   6123SM  H13S 7802   3.831   5.025   6.557 -0.5043  1.7022  2.0478
   6123SM  H13T 7803   3.892   4.919   6.689 -1.1879  0.7617  0.6469
   6123SM  C14S 7804   4.015   4.916   6.517  0.3441  0.0322 -0.1865
   6123SM  H14S 7805   4.117   4.901   6.558  1.1249  1.3285 -1.5467
   6123SM  H14T 7806   4.021   4.979   6.425 -0.6567  0.9782  0.3636
   6123SM  C15S 7807   3.948   4.776   6.480  0.5640  0.7196  0.0557
   6123SM  H15S 7808   3.843   4.792   6.449  0.0268 -1.6919  0.4047
   6123SM  H15T 7809   3.968   4.719   6.573  2.5260  0.2859 -0.5804
   6123SM  C16S 7810   4.008   4.687   6.376 -1.0262  0.4790 -0.1014
   6123SM  H16S 7811   4.114   4.664   6.401 -0.8151  0.4241 -1.0097
   6123SM  H16T 7812   3.997   4.744   6.281 -0.3257  1.2094  0.2363
   6123SM  C17S 7813   3.928   4.554   6.347  0.2515  0.1203  0.2440
   6123SM  H17S 7814   3.986   4.498   6.271 -1.1943 -0.5852 -0.3801
   6123SM  H17T 7815   3.830   4.575   6.299  0.9263  3.2782  0.0213
   6123SM  C18S 7816   3.901   4.481   6.475  0.4327 -0.1348 -0.0060
   6123SM  H18S 7817   3.995   4.479   6.534 -0.2737  0.1245  1.1646
   6123SM  H18T 7818   3.877   4.375   6.453  1.0372 -0.3794  0.4590
   6123SM  H18U 7819   3.816   4.510   6.540  0.6813 -1.4833  0.9659
   6123SM   C1F 7820   3.728   5.682   7.083  0.5710  0.1490  0.5053
   6123SM    OF 7821   3.692   5.791   7.030  0.5577 -0.5350 -0.1502
   6123SM   C2F 7822   3.667   5.559   7.040 -0.1669  0.5873  0.8176
   6123SM   H2F 7823   3.611   5.503   7.117 -0.7775 -1.2438 -0.8856
   6123SM   H2G 7824   3.750   5.493   7.008 -0.1507  0.7175  0.5824
   6123SM   C3F 7825   3.575   5.576   6.921  0.6104 -0.3955 -0.2315
   6123SM   H3F 7826   3.629   5.637   6.845  0.6201  1.1184  0.9408
   6123SM   H3G 7827   3.492   5.640   6.955 -0.1520 -2.0649  1.2128
   6123SM   C4F 7828   3.495   5.450   6.876 -0.3856 -0.5467 -0.0368
   6123SM   H4F 7829   3.417   5.468   6.799 -2.5343  2.1416  2.4998
   6123SM   H4G 7830   3.430   5.413   6.959 -3.6000 -2.3920 -3.1095
   6123SM   C5F 7831   3.575   5.328   6.835 -0.0291 -1.0122 -0.3928
   6123SM   H5F 7832   3.641   5.308   6.922  2.0915 -2.1007 -2.1489
   6123SM   H5G 7833   3.636   5.362   6.749 -0.0180 -0.7700 -0.2896
   6123SM   C6F 7834   3.485   5.210   6.791  0.1648  0.2039  0.1440
   6123SM   H6F 7835   3.416   5.252   6.715  0.3141 -0.4816 -0.3869
   6123SM   H6G 7836   3.420   5.177   6.874 -0.5575  2.6704  0.6326
   6123SM   C7F 7837   3.569   5.089   6.746  0.5931 -0.2943 -0.3108
   6123SM   H7F 7838   3.625   5.043   6.830 -0.8835 -0.1973  0.7787
   6123SM   H7G 7839   3.646   5.132   6.680  2.1045 -0.2684  1.3947
   6123SM   C8F 7840   3.478   4.980   6.691 -0.5224 -0.7922  0.6619
   6123SM   H8F 7841   3.427   5.012   6.598 -0.0917 -2.2056 -0.0962
   6123SM   H8G 7842   3.398   4.951   6.763 -0.0769  1.7632  2.3284
   6123SM   C9F 7843   3.549   4.849   6.647 -0.3366 -0.8814  0.2781
   6123SM   H9F 7844   3.588   4.819   6.747 -0.8121 -1.9166  0.1635
   6123SM   H9G 7845   3.624   4.880   6.572 -0.3881  0.6598  0.8327
   6123SM  C10F 7846   3.451   4.739   6.579 -0.2181  0.1114  0.3060
   6123SM  H10F 7847   3.416   4.794   6.489 -1.1300  1.3970  1.3884
   6123SM  H10G 7848   3.365   4.714   6.645 -0.6290  0.2217 -0.1760
   6123SM  C11F 7849   3.519   4.610   6.530 -0.2251  0.1070 -0.4504
   6123SM  H11F 7850   3.553   4.551   6.618 -0.5969  0.3357 -0.1480
   6123SM  H11G 7851   3.616   4.647   6.490  0.7669 -1.0716  0.7713
   6123SM  C12F 7852   3.441   4.523   6.428 -0.2381  0.2977 -0.3783
   6123SM  H12F 7853   3.389   4.599   6.365 -3.0777 -0.0928  1.2864
   6123SM  H12G 7854   3.359   4.464   6.475 -0.2761  1.0694  0.5831
   6123SM  C13F 7855   3.528   4.442   6.333 -0.1401  0.5357  0.7376
   6123SM  H13F 7856   3.568   4.355   6.389 -1.3438  0.1145  0.9758
   6123SM  H13G 7857   3.610   4.512   6.305 -0.0240  0.1781  0.1604
   6123SM  C14F 7858   3.461   4.405   6.196 -0.0626 -0.4147 -0.5288
   6123SM  H14F 7859   3.457   4.502   6.141  1.4504 -0.3389 -0.5589
   6123SM  H14G 7860   3.363   4.360   6.221  0.5306  0.4914  4.3285
   6123SM  C15F 7861   3.532   4.286   6.119 -0.0734 -0.0649 -0.2547
   6123SM  H15F 7862   3.520   4.194   6.181 -1.5425  0.9101  0.9522
   6123SM  H15G 7863   3.641   4.311   6.115 -0.4512  1.8308  0.5434
   6123SM  C16F 7864   3.475   4.269   5.985 -0.1384  0.4921  0.1052
   6123SM  H16F 7865   3.488   4.371   5.943  2.3773 -0.5176 -1.8421
   6123SM  H16G 7866   3.365   4.256   5.990  0.0765 -2.5174 -1.0462
   6123SM  C17F 7867   3.520   4.143   5.897  0.4274 -0.3412 -0.1905
   6123SM  H17F 7868   3.501   4.054   5.961 -0.6395 -0.4277 -0.6002
   6123SM  H17G 7869   3.626   4.156   5.869  0.3370  0.6237 -0.1218
   6123SM  C18F 7870   3.427   4.132   5.775  0.0751 -0.0558 -0.3378
   6123SM  H18F 7871   3.416   4.234   5.732  0.2445  0.6948  1.3272
   6123SM  H18G 7872   3.326   4.108   5.813 -0.1515  0.1569 -0.7996
   6123SM  C19F 7873   3.468   4.040   5.660 -0.0840  0.1125  0.1445
   6123SM  H19F 7874   3.391   4.048   5.581  1.0087 -2.0319 -1.2323
   6123SM  H19G 7875   3.453   3.937   5.699 -0.1516  0.3916  0.8847
   6123SM  C20F 7876   3.604   4.067   5.598 -0.4311 -0.3788 -0.4124
   6123SM  H20F 7877   3.620   4.006   5.506  1.0531 -0.2163 -0.2923
   6123SM  H20G 7878   3.683   4.042   5.673 -1.1567 -0.7445  0.2459
   6123SM  C21F 7879   3.621   4.220   5.560  0.1869  0.2521  0.4270
   6123SM  H21F 7880   3.662   4.278   5.645 -0.6345 -0.9159  1.6651
   6123SM  H21G 7881   3.527   4.269   5.528  0.0668 -0.3166 -0.1221
   6123SM  C22F 7882   3.705   4.242   5.449 -0.5318 -0.6863  0.3788
   6123SM  H22F 7883   3.799   4.182   5.456  0.6599  0.9676 -0.7494
   6123SM  H22G 7884   3.750   4.343   5.452  0.0222 -0.9451  1.2368
   6123SM  C23F 7885   3.633   4.233   5.308  0.4139  0.0066  0.1848
   6123SM  H23F 7886   3.556   4.313   5.307  1.9274  1.6989  3.0635
   6123SM  H23G 7887   3.587   4.133   5.294  0.7196 -0.0223 -0.6245
   6123SM  H23H 7888   3.703   4.255   5.225 -0.6765  0.6110 -0.6032
   6223SM     N 7889   3.022   3.507   7.750 -0.0569  0.3956  0.0105
   6223SM   C15 7890   3.048   3.406   7.858  0.1405  0.1532  0.4508
   6223SM  H15A 7891   3.007   3.437   7.953  0.2220 -0.5745  0.7282
   6223SM  H15B 7892   3.155   3.404   7.875  0.2450 -0.7707 -0.2572
   6223SM  H15C 7893   3.014   3.307   7.831 -0.3449 -0.3548  2.7418
   6223SM   C14 7894   3.106   3.630   7.775  0.2719 -0.5812 -0.5350
   6223SM  H14A 7895   3.068   3.690   7.856 -1.2768  0.4518 -1.9608
   6223SM  H14B 7896   3.121   3.694   7.689  0.4036 -1.5087 -1.2206
   6223SM  H14C 7897   3.210   3.608   7.791 -0.0091 -0.1213  2.3953
   6223SM   C13 7898   3.066   3.438   7.629 -0.0114 -0.5381 -0.1504
   6223SM  H13A 7899   3.026   3.338   7.631 -0.0497 -0.5562  2.7084
   6223SM  H13B 7900   3.174   3.439   7.619 -0.0014 -3.0092 -1.1121
   6223SM  H13C 7901   3.029   3.473   7.534 -0.2950 -1.9070 -0.5723
   6223SM   C12 7902   2.876   3.542   7.729  0.2275 -0.4065  0.2630
   6223SM  H12A 7903   2.840   3.611   7.804  0.2889  0.5979 -0.6031
   6223SM  H12B 7904   2.817   3.454   7.750 -0.5124 -0.4147 -1.6111
   6223SM   C11 7905   2.833   3.597   7.593  0.0152  1.7471  0.3566
   6223SM  H11A 7906   2.903   3.673   7.554  1.3686  1.1514  1.5173
   6223SM  H11B 7907   2.738   3.654   7.599 -0.5793  0.9674 -1.0254
   6223SM     P 7908   2.701   3.394   7.487  0.2115  0.1905  0.0210
   6223SM   O13 7909   2.740   3.305   7.379  0.2703  0.2498 -0.5077
   6223SM   O14 7910   2.668   3.339   7.616  0.1269 -0.4233 -0.1686
   6223SM   O11 7911   2.586   3.487   7.434 -0.0508 -0.1142 -0.0971
   6223SM   O12 7912   2.824   3.491   7.496  0.1232 -1.0006  0.1784
   6223SM   C1S 7913   2.603   3.576   7.322  0.7024  0.2415  0.9190
   6223SM   H1S 7914   2.710   3.595   7.300  0.3684  0.9575 -0.1567
   6223SM   H1T 7915   2.544   3.670   7.334 -2.7636 -1.3642 -1.7230
   6223SM    NF 7916   2.573   3.622   7.086 -0.1104 -0.1613 -0.0142
   6223SM   HNF 7917   2.506   3.690   7.057  1.0872  0.8272 -0.5986
   6223SM   C2S 7918   2.539   3.527   7.192  0.7714 -0.8519 -0.0930
   6223SM   H2S 7919   2.592   3.437   7.153 -1.1224 -1.8952 -0.4172
   6223SM   C3S 7920   2.384   3.502   7.208 -1.0987 -0.8443 -0.2725
   6223SM   H3S 7921   2.341   3.604   7.214  2.7216  0.8784  0.6669
   6223SM    O3 7922   2.352   3.433   7.324  0.2374  0.0309  0.4357
   6223SM   HO3 7923   2.429   3.439   7.380 -0.3844  1.1898  1.2111
   6223SM   C4S 7924   2.335   3.431   7.078 -0.5798  0.0068  0.1790
   6223SM   H4S 7925   2.390   3.338   7.057  1.0424  0.1246  3.2665
   6223SM   C5S 7926   2.239   3.466   6.990  0.0123  0.6459  0.2936
   6223SM   H5S 7927   2.186   3.563   6.990  0.2099  0.8386 -2.4155
   6223SM   C6S 7928   2.199   3.392   6.867  0.0897  0.0179 -0.7600
   6223SM   H6S 7929   2.097   3.348   6.877 -0.6399  1.9015  0.9274
   6223SM   H6T 7930   2.256   3.299   6.850 -1.6862 -0.7408 -3.1872
   6223SM   C7S 7931   2.215   3.479   6.732 -0.6850 -0.1223 -0.0919
   6223SM   H7S 7932   2.234   3.410   6.647 -3.0580  0.7224 -1.3895
   6223SM   H7T 7933   2.300   3.548   6.751 -1.1991  0.0195  1.8545
   6223SM   C8S 7934   2.108   3.571   6.682 -1.1405  0.0736 -0.2797
   6223SM   H8S 7935   2.100   3.651   6.758 -2.3687  2.3581 -2.6702
   6223SM   H8T 7936   2.018   3.506   6.675 -0.4336 -0.7522 -3.6254
   6223SM   C9S 7937   2.149   3.645   6.554 -0.4489  0.9173  0.0153
   6223SM   H9S 7938   2.137   3.571   6.472  0.4327 -1.2987  1.7710
   6223SM   H9T 7939   2.259   3.656   6.564  0.0453 -2.1799 -0.9383
   6223SM  C10S 7940   2.087   3.790   6.539  0.3048  0.0275 -0.0430
   6223SM  H10S 7941   2.108   3.852   6.629 -0.5899  1.2074 -0.6276
   6223SM  H10T 7942   1.976   3.785   6.534  0.2774  0.2449  0.3026
   6223SM  C11S 7943   2.150   3.861   6.419 -0.6218 -0.7393  0.5245
   6223SM  H11S 7944   2.253   3.898   6.435 -0.7569 -0.1445  0.0518
   6223SM  H11T 7945   2.096   3.958   6.412 -2.4168 -1.7989 -2.3417
   6223SM  C12S 7946   2.147   3.775   6.298 -0.0107 -0.5660  0.1523
   6223SM  H12S 7947   2.053   3.716   6.289  0.4143 -1.1752 -0.3231
   6223SM  H12T 7948   2.224   3.696   6.299  0.9395  0.1817 -3.1521
   6223SM  C13S 7949   2.142   3.854   6.171  0.0636 -1.0678  0.0750
   6223SM  H13S 7950   2.044   3.904   6.155  0.2913 -1.1014 -1.6229
   6223SM  H13T 7951   2.154   3.779   6.089 -1.0719  1.7158 -2.8272
   6223SM  C14S 7952   2.257   3.959   6.168 -0.2233  0.5687 -0.8188
   6223SM  H14S 7953   2.345   3.909   6.213 -1.8812 -1.4125  0.4314
   6223SM  H14T 7954   2.235   4.033   6.247  1.2169 -1.1214  1.2799
   6223SM  C15S 7955   2.282   4.015   6.026  0.4413  0.0096 -0.7284
   6223SM  H15S 7956   2.190   4.064   5.988 -0.0945  2.1687  2.9001
   6223SM  H15T 7957   2.297   3.918   5.973 -3.9181 -1.6350  0.5897
   6223SM  C16S 7958   2.396   4.119   6.031  0.3055 -0.2234  0.2240
   6223SM  H16S 7959   2.486   4.077   6.081  0.7548  1.1755  0.6309
   6223SM  H16T 7960   2.372   4.216   6.079  1.2506  0.9041 -1.4640
   6223SM  C17S 7961   2.435   4.152   5.887 -0.2117 -0.3931  0.0253
   6223SM  H17S 7962   2.349   4.209   5.846  0.6230  1.8309  1.1801
   6223SM  H17T 7963   2.446   4.064   5.821  1.1820  0.7358 -1.3084
   6223SM  C18S 7964   2.556   4.245   5.879 -0.2809  0.8856  0.5251
   6223SM  H18S 7965   2.578   4.271   5.774 -0.9332  1.3104  0.4900
   6223SM  H18T 7966   2.640   4.190   5.925  0.5018  0.7914 -0.9651
   6223SM  H18U 7967   2.531   4.339   5.933 -4.0955  0.6737 -0.5406
   6223SM   C1F 7968   2.698   3.661   7.045 -0.3736 -0.7361  0.2922
   6223SM    OF 7969   2.804   3.608   7.089 -0.0842  0.4950 -0.2197
   6223SM   C2F 7970   2.701   3.760   6.931  0.1937  0.2301  0.0253
   6223SM   H2F 7971   2.729   3.862   6.964 -0.3382  0.8848 -1.4577
   6223SM   H2G 7972   2.598   3.763   6.890  0.8743  2.2911 -1.6907
   6223SM   C3F 7973   2.801   3.701   6.819 -0.3652  0.1079 -0.6389
   6223SM   H3F 7974   2.774   3.594   6.809 -3.4176  0.8406 -1.1068
   6223SM   H3G 7975   2.903   3.715   6.861 -0.7889  1.5597  0.0062
   6223SM   C4F 7976   2.794   3.774   6.682 -0.0025  0.0023  0.4742
   6223SM   H4F 7977   2.898   3.775   6.641 -0.0789 -1.0791  0.2222
   6223SM   H4G 7978   2.771   3.882   6.692 -1.4733 -0.1017 -1.3026
   6223SM   C5F 7979   2.698   3.712   6.577 -1.3729  0.7280 -0.2306
   6223SM   H5F 7980   2.596   3.695   6.617 -0.8172 -0.0373  0.9063
   6223SM   H5G 7981   2.736   3.615   6.537 -1.3611  0.7592 -0.2956
   6223SM   C6F 7982   2.701   3.794   6.446  0.0294 -0.8996  0.1092
   6223SM   H6F 7983   2.809   3.821   6.435  0.1949 -0.7086  1.8596
   6223SM   H6G 7984   2.639   3.884   6.466  0.9332 -0.4738  1.1296
   6223SM   C7F 7985   2.642   3.724   6.322 -0.3500  0.0160  0.3420
   6223SM   H7F 7986   2.539   3.698   6.352 -0.5396  1.1976  0.7631
   6223SM   H7G 7987   2.702   3.630   6.313  0.6559  0.4756  1.8304
   6223SM   C8F 7988   2.640   3.814   6.196 -0.0374  0.5132  0.2723
   6223SM   H8F 7989   2.746   3.829   6.169  0.6695 -2.3274  1.1777
   6223SM   H8G 7990   2.576   3.901   6.224 -0.2555  0.6029 -0.4756
   6223SM   C9F 7991   2.583   3.733   6.084  0.0347 -0.4818 -0.4048
   6223SM   H9F 7992   2.475   3.722   6.110 -0.1161  1.5849  0.0291
   6223SM   H9G 7993   2.641   3.639   6.091 -1.1662 -1.1493  1.7153
   6223SM  C10F 7994   2.604   3.802   5.955 -0.2441 -0.0907  0.3988
   6223SM  H10F 7995   2.715   3.810   5.947 -0.0705  0.8906  2.9671
   6223SM  H10G 7996   2.554   3.901   5.945  1.0601  0.5425 -0.1556
   6223SM  C11F 7997   2.557   3.716   5.832 -0.5101 -0.8701 -0.1303
   6223SM  H11F 7998   2.447   3.704   5.842 -0.7867  2.0062  1.1534
   6223SM  H11G 7999   2.594   3.611   5.831  0.7454 -0.4658 -1.8396
   6223SM  C12F 8000   2.588   3.784   5.698 -0.0346 -0.2154  0.5466
   6223SM  H12F 8001   2.698   3.791   5.688  0.1091 -0.9843  1.3662
   6223SM  H12G 8002   2.549   3.888   5.700 -1.8314 -0.7787 -1.5908
   6223SM  C13F 8003   2.534   3.713   5.572  0.1331 -0.5354 -0.3322
   6223SM  H13F 8004   2.587   3.756   5.484 -3.0086  0.1887 -2.0625
   6223SM  H13G 8005   2.425   3.735   5.562  0.1259 -0.8666 -1.0523
   6223SM  C14F 8006   2.557   3.559   5.560 -1.2490  0.2787  0.1459
   6223SM  H14F 8007   2.511   3.513   5.650 -0.5098 -1.1933 -0.1952
   6223SM  H14G 8008   2.666   3.536   5.563 -0.9671  1.5903  1.1781
   6223SM  C15F 8009   2.490   3.508   5.435 -1.0183  0.9529  0.6228
   6223SM  H15F 8010   2.502   3.592   5.363  1.2060  1.3635  1.4042
   6223SM  H15G 8011   2.383   3.484   5.450 -0.7444 -1.2700 -0.5049
   6223SM  C16F 8012   2.555   3.388   5.357  0.3409  0.0536 -0.6188
   6223SM  H16F 8013   2.490   3.350   5.276  1.9285  0.2604 -2.0537
   6223SM  H16G 8014   2.568   3.307   5.432  0.3167  1.0553  0.5134
   6223SM  C17F 8015   2.694   3.421   5.309 -0.5391  0.1588  0.8921
   6223SM  H17F 8016   2.770   3.416   5.389  1.5330 -0.4725 -1.0238
   6223SM  H17G 8017   2.693   3.520   5.259  0.2963 -1.0641 -1.7305
   6223SM  C18F 8018   2.742   3.314   5.201  0.6892 -0.7860  0.0124
   6223SM  H18F 8019   2.669   3.309   5.118  0.5589 -1.3416  0.1522
   6223SM  H18G 8020   2.729   3.221   5.261 -1.4710 -0.1448  0.6356
   6223SM  C19F 8021   2.888   3.334   5.163 -0.1063  0.3669 -0.5765
   6223SM  H19F 8022   2.909   3.243   5.102 -0.9167 -0.6085  0.5564
   6223SM  H19G 8023   2.953   3.329   5.253 -1.6815  2.2814  0.7382
   6223SM  C20F 8024   2.908   3.464   5.089  0.2388  0.3051  0.0269
   6223SM  H20F 8025   2.885   3.544   5.161  0.0261  0.0643  0.2256
   6223SM  H20G 8026   2.839   3.468   5.002 -0.0767 -0.9106  0.2038
   6223SM  C21F 8027   3.040   3.488   5.028  0.5587 -0.8796  1.0549
   6223SM  H21F 8028   3.057   3.396   4.968 -1.8072 -0.8052  0.1415
   6223SM  H21G 8029   3.114   3.513   5.106  1.0118  1.1256  0.0393
   6223SM  C22F 8030   3.048   3.611   4.933  0.4272 -0.2658 -0.4371
   6223SM  H22F 8031   3.157   3.633   4.923  0.5141  1.6449  3.1942
   6223SM  H22G 8032   2.996   3.702   4.968 -2.2017 -1.7138 -0.2799
   6223SM  C23F 8033   3.004   3.572   4.792  0.1532 -0.3728 -0.6288
   6223SM  H23F 8034   3.055   3.482   4.752 -2.2403 -1.5109 -1.2882
   6223SM  H23G 8035   3.024   3.657   4.723 -0.5502 -0.4808 -0.9788
   6223SM  H23H 8036   2.896   3.549   4.786 -0.0378  0.2700  0.1549
   6323SM     N 8037   4.905   6.694   7.451 -0.2893 -0.7590  0.5835
   6323SM   C15 8038   4.975   6.823   7.441 -0.0681 -0.1044  0.3274
   6323SM  H15A 8039   5.025   6.854   7.532  1.4254  1.7764 -1.0349
   6323SM  H15B 8040   4.905   6.902   7.418  0.3774  0.1659 -0.1408
   6323SM  H15C 8041   5.042   6.835   7.357 -0.0621  2.8398  0.6216
   6323SM   C14 8042   4.991   6.597   7.524 -0.4942  0.2469  0.0156
   6323SM  H14A 8043   5.011   6.611   7.630  1.1658  1.1768 -0.3917
   6323SM  H14B 8044   5.092   6.595   7.485 -0.6161 -0.4716 -0.2705
   6323SM  H14C 8045   4.954   6.496   7.519 -0.2888  0.2356 -2.3580
   6323SM   C13 8046   4.781   6.708   7.538 -0.9517 -0.6851  0.9435
   6323SM  H13A 8047   4.810   6.753   7.631  0.3934  0.9616 -0.2163
   6323SM  H13B 8048   4.736   6.615   7.569 -0.4694 -1.5310 -0.7954
   6323SM  H13C 8049   4.721   6.785   7.490  1.2656 -0.4664 -1.6852
   6323SM   C12 8050   4.872   6.641   7.311  0.4296 -0.2159 -0.2517
   6323SM  H12A 8051   4.967   6.660   7.264 -1.2138  3.1243 -2.6386
   6323SM  H12B 8052   4.789   6.701   7.276  0.4292  0.3769  0.7152
   6323SM   C11 8053   4.832   6.491   7.293 -0.2086 -0.2778 -0.1823
   6323SM  H11A 8054   4.782   6.475   7.195  0.4526 -1.6523 -0.3165
   6323SM  H11B 8055   4.759   6.467   7.373 -1.1818  1.2986 -0.5435
   6323SM     P 8056   4.964   6.274   7.353  0.2182 -0.4959 -0.0005
   6323SM   O13 8057   5.110   6.245   7.333  0.6754 -0.4699  0.1348
   6323SM   O14 8058   4.916   6.278   7.493  0.2841 -0.1266 -0.5963
   6323SM   O11 8059   4.874   6.182   7.265 -0.3530 -0.2443  0.0025
   6323SM   O12 8060   4.949   6.419   7.292 -0.0394 -0.6172 -0.4403
   6323SM   C1S 8061   4.898   6.174   7.126  0.4836 -0.7217  0.1637
   6323SM   H1S 8062   4.980   6.107   7.093 -0.5771 -1.6015 -0.7774
   6323SM   H1T 8063   4.918   6.276   7.086  1.0124 -1.0854 -0.5071
   6323SM    NF 8064   4.788   6.142   6.915  0.4189  0.3934 -0.7937
   6323SM   HNF 8065   4.763   6.229   6.873 -0.6315 -0.7274 -2.6341
   6323SM   C2S 8066   4.765   6.138   7.057  0.0353  0.3579  0.0758
   6323SM   H2S 8067   4.742   6.034   7.088  0.1487  0.4533  0.4799
   6323SM   C3S 8068   4.640   6.229   7.103 -0.0434 -0.1645  0.3947
   6323SM   H3S 8069   4.655   6.328   7.056  1.3548 -0.9765 -0.9617
   6323SM    O3 8070   4.620   6.246   7.244  0.3780  0.2748  0.4340
   6323SM   HO3 8071   4.691   6.191   7.278 -0.5003  0.0157  1.9536
   6323SM   C4S 8072   4.509   6.173   7.040  0.2374 -0.1240 -0.7176
   6323SM   H4S 8073   4.495   6.213   6.939 -0.3886  0.2360 -0.4921
   6323SM   C5S 8074   4.411   6.100   7.096  0.3956  0.4909 -0.0391
   6323SM   H5S 8075   4.418   6.081   7.204  1.5948  2.6515  0.3226
   6323SM   C6S 8076   4.289   6.034   7.038 -0.7217 -0.3517  0.8143
   6323SM   H6S 8077   4.192   6.065   7.083 -1.5108  0.2618 -1.1936
   6323SM   H6T 8078   4.301   5.926   7.059  1.1884 -0.1177  1.0914
   6323SM   C7S 8079   4.257   6.033   6.884  0.3059 -0.2903 -0.8681
   6323SM   H7S 8080   4.342   5.983   6.831 -0.1128  0.0875 -1.9161
   6323SM   H7T 8081   4.256   6.138   6.849  1.4251  0.8117  2.0493
   6323SM   C8S 8082   4.123   5.956   6.864 -0.1068  0.4240  0.0847
   6323SM   H8S 8083   4.034   6.015   6.897  0.7379  2.3657 -0.9244
   6323SM   H8T 8084   4.122   5.859   6.917  0.6967  0.2653 -0.1842
   6323SM   C9S 8085   4.106   5.917   6.720  0.1385  1.1936 -0.1344
   6323SM   H9S 8086   4.201   5.871   6.686  1.2279  2.2288  1.4128
   6323SM   H9T 8087   4.083   6.007   6.659  0.8940  1.3228 -0.2280
   6323SM  C10S 8088   3.983   5.828   6.704  0.1458 -0.3586 -0.5764
   6323SM  H10S 8089   3.889   5.885   6.693 -0.0357 -1.0872 -3.3449
   6323SM  H10T 8090   3.973   5.771   6.799  2.0358 -1.9378 -1.2636
   6323SM  C11S 8091   3.982   5.742   6.577 -0.0887  0.3066 -0.4526
   6323SM  H11S 8092   4.064   5.667   6.577 -0.0282  0.3557 -1.5243
   6323SM  H11T 8093   3.998   5.800   6.483 -0.9328 -0.8827 -1.3638
   6323SM  C12S 8094   3.841   5.675   6.556  1.0752  0.5994 -1.1316
   6323SM  H12S 8095   3.765   5.754   6.538  0.1129  0.1980  0.9054
   6323SM  H12T 8096   3.818   5.621   6.650 -0.4981  0.9750 -1.2777
   6323SM  C13S 8097   3.837   5.583   6.435  0.7784  0.0050 -1.1497
   6323SM  H13S 8098   3.738   5.533   6.441  0.7712  0.1512  1.2152
   6323SM  H13T 8099   3.918   5.509   6.454 -0.0727 -0.4860  0.9233
   6323SM  C14S 8100   3.851   5.649   6.303 -0.9217 -0.1424 -0.3895
   6323SM  H14S 8101   3.954   5.686   6.285 -0.7784  0.5244  1.5519
   6323SM  H14T 8102   3.796   5.745   6.314  0.8136  0.7711  0.8041
   6323SM  C15S 8103   3.804   5.572   6.186 -0.0084 -0.0340 -0.4989
   6323SM  H15S 8104   3.820   5.631   6.093 -0.3232  0.2191 -0.3964
   6323SM  H15T 8105   3.693   5.562   6.192 -0.0057  0.6127  0.9416
   6323SM  C16S 8106   3.884   5.443   6.173  0.1142 -0.2317  0.0131
   6323SM  H16S 8107   3.857   5.378   6.259 -2.2013 -0.3847 -0.7837
   6323SM  H16T 8108   3.994   5.460   6.184  0.3029 -2.4408  2.6455
   6323SM  C17S 8109   3.843   5.339   6.065 -0.0933 -0.7645 -0.2531
   6323SM  H17S 8110   3.843   5.382   5.963 -3.2607 -2.4378 -1.0905
   6323SM  H17T 8111   3.735   5.310   6.065  0.0704 -1.4925 -2.2042
   6323SM  C18S 8112   3.922   5.207   6.070  0.7155  0.1325 -0.2779
   6323SM  H18S 8113   3.870   5.137   6.002 -2.7728  1.7606  0.5236
   6323SM  H18T 8114   3.909   5.158   6.169  3.5403 -2.8810 -1.2153
   6323SM  H18U 8115   4.028   5.235   6.050  0.1244  2.6416 -0.2656
   6323SM   C1F 8116   4.858   6.053   6.846 -0.0725  0.0670  0.5081
   6323SM    OF 8117   4.882   5.942   6.890 -0.1788  0.5432  0.6050
   6323SM   C2F 8118   4.915   6.102   6.708  0.6284  0.7549  0.4151
   6323SM   H2F 8119   5.014   6.053   6.704  0.7970  1.1805 -1.2369
   6323SM   H2G 8120   4.922   6.212   6.701 -1.0327  0.8081 -1.3791
   6323SM   C3F 8121   4.814   6.069   6.593  0.4432 -0.6038 -0.2316
   6323SM   H3F 8122   4.718   6.121   6.613  0.4104 -0.9674  0.5892
   6323SM   H3G 8123   4.796   5.960   6.604  2.8531 -1.0192  0.3333
   6323SM   C4F 8124   4.883   6.103   6.454 -0.4064  0.2453 -0.0999
   6323SM   H4F 8125   4.989   6.068   6.458 -0.7821 -0.8582  1.3675
   6323SM   H4G 8126   4.891   6.213   6.456 -1.4020  0.3192  0.5348
   6323SM   C5F 8127   4.796   6.030   6.346 -0.5975  0.1764 -0.5825
   6323SM   H5F 8128   4.702   6.089   6.351 -0.0172  1.1789 -1.1546
   6323SM   H5G 8129   4.787   5.924   6.377 -1.0279 -0.1246 -1.6889
   6323SM   C6F 8130   4.864   6.045   6.211  0.9739  0.5196  0.1009
   6323SM   H6F 8131   4.974   6.027   6.211  1.1902  1.6398  1.0439
   6323SM   H6G 8132   4.847   6.149   6.175  0.8754  0.4380 -0.0841
   6323SM   C7F 8133   4.800   5.954   6.105 -0.1412  0.3773  0.7298
   6323SM   H7F 8134   4.868   5.970   6.018  0.1030 -2.6953  0.2407
   6323SM   H7G 8135   4.698   5.990   6.078 -0.1868 -0.8161 -0.9076
   6323SM   C8F 8136   4.794   5.801   6.123  0.0074  0.4096  0.1717
   6323SM   H8F 8137   4.865   5.763   6.199 -0.5516 -0.3844  0.3052
   6323SM   H8G 8138   4.829   5.748   6.032 -0.1010  1.0006 -0.2235
   6323SM   C9F 8139   4.659   5.743   6.164 -0.0159 -0.2087 -0.7943
   6323SM   H9F 8140   4.577   5.791   6.107 -1.8438 -1.2067  0.8808
   6323SM   H9G 8141   4.645   5.755   6.274  1.3591 -1.2185 -0.4759
   6323SM  C10F 8142   4.641   5.591   6.133 -0.1749  0.2726 -0.1911
   6323SM  H10F 8143   4.537   5.563   6.158  0.6902 -2.0893  1.1304
   6323SM  H10G 8144   4.702   5.530   6.204  0.2291  0.7534 -0.1225
   6323SM  C11F 8145   4.670   5.555   5.989 -0.1975  0.7696  0.7075
   6323SM  H11F 8146   4.778   5.572   5.967 -1.0028  1.4881 -3.4303
   6323SM  H11G 8147   4.618   5.624   5.919 -0.5206  1.2898  1.4437
   6323SM  C12F 8148   4.638   5.411   5.951 -0.1121  0.4910 -0.4803
   6323SM  H12F 8149   4.716   5.344   5.993 -1.0273  0.3875  1.1279
   6323SM  H12G 8150   4.651   5.410   5.841  1.4927 -0.7618 -0.3190
   6323SM  C13F 8151   4.497   5.354   5.980 -0.0301 -0.4970  0.2868
   6323SM  H13F 8152   4.481   5.352   6.090 -0.8352  0.3900  0.1986
   6323SM  H13G 8153   4.494   5.248   5.947 -1.6467 -0.7154  1.0031
   6323SM  C14F 8154   4.390   5.439   5.914  0.5032  0.1581  0.1001
   6323SM  H14F 8155   4.421   5.444   5.807  2.0159  0.7207  0.5495
   6323SM  H14G 8156   4.390   5.541   5.958 -0.8736 -0.3438  1.3533
   6323SM  C15F 8157   4.244   5.378   5.928  0.3308  0.0852 -0.3809
   6323SM  H15F 8158   4.202   5.417   6.023  4.7319 -0.8388  2.1670
   6323SM  H15G 8159   4.251   5.268   5.920 -0.1896  0.1792 -3.4832
   6323SM  C16F 8160   4.154   5.424   5.805  0.5585  0.1268  0.0008
   6323SM  H16F 8161   4.058   5.368   5.808 -0.0002  1.0235 -0.8568
   6323SM  H16G 8162   4.205   5.384   5.715  1.1208 -1.1601  0.8515
   6323SM  C17F 8163   4.122   5.571   5.803 -1.0678 -0.3629 -0.0360
   6323SM  H17F 8164   4.205   5.645   5.797 -2.2941  0.9790 -1.1679
   6323SM  H17G 8165   4.082   5.588   5.905  0.9883 -0.2435  0.7934
   6323SM  C18F 8166   4.010   5.615   5.706  0.0742 -0.0918  0.6695
   6323SM  H18F 8167   3.920   5.549   5.705  0.9536 -1.3116  0.4330
   6323SM  H18G 8168   4.060   5.608   5.607  0.7942 -2.9622  1.1625
   6323SM  C19F 8169   3.961   5.759   5.738  0.5131  0.1748 -0.2817
   6323SM  H19F 8170   4.033   5.841   5.717  2.5434 -0.9961  1.5751
   6323SM  H19G 8171   3.948   5.768   5.848  2.1268 -0.1793 -0.0325
   6323SM  C20F 8172   3.831   5.788   5.653  0.3088  0.4663  0.8989
   6323SM  H20F 8173   3.759   5.707   5.680 -0.6432  0.3960 -1.5025
   6323SM  H20G 8174   3.849   5.779   5.543 -0.1762  2.0911  0.6583
   6323SM  C21F 8175   3.767   5.926   5.678 -0.0010  0.0356 -0.2360
   6323SM  H21F 8176   3.845   6.005   5.671 -1.5743  1.7520  0.7398
   6323SM  H21G 8177   3.739   5.934   5.785  1.0066  1.6843 -0.0589
   6323SM  C22F 8178   3.651   5.962   5.591 -0.8054 -0.2435  0.7319
   6323SM  H22F 8179   3.578   5.880   5.574 -0.1576 -0.6793 -0.0240
   6323SM  H22G 8180   3.684   5.995   5.490 -0.1534 -0.2486  0.9390
   6323SM  C23F 8181   3.576   6.084   5.655 -0.2884  0.2659 -0.0581
   6323SM  H23F 8182   3.513   6.127   5.575  0.8112 -0.9021 -1.6077
   6323SM  H23G 8183   3.647   6.164   5.687 -1.3382  0.3092  2.4022
   6323SM  H23H 8184   3.507   6.060   5.739 -0.2987  1.8111  0.4160
   6423SM     N 8185   4.394   4.618   7.611 -0.8632  0.1638 -0.4613
   6423SM   C15 8186   4.414   4.478   7.656 -0.1410  0.0747 -0.4936
   6423SM  H15A 8187   4.409   4.459   7.762  1.2402 -2.3429 -0.7840
   6423SM  H15B 8188   4.513   4.443   7.630 -0.0140  0.6114 -0.7506
   6423SM  H15C 8189   4.340   4.414   7.610  1.2575 -1.4613 -0.7225
   6423SM   C14 8190   4.437   4.641   7.465  1.6210  0.2932 -0.0916
   6423SM  H14A 8191   4.414   4.743   7.437 -1.2166 -0.3999 -0.5959
   6423SM  H14B 8192   4.379   4.573   7.404  1.4251  0.3819 -0.0060
   6423SM  H14C 8193   4.536   4.615   7.430  1.5572  2.2136 -1.8120
   6423SM   C13 8194   4.251   4.655   7.621 -0.8793 -0.1906  0.0192
   6423SM  H13A 8195   4.193   4.565   7.608 -1.9941  0.2692  1.5628
   6423SM  H13B 8196   4.219   4.725   7.545 -1.6419  2.7805  2.8736
   6423SM  H13C 8197   4.219   4.694   7.716 -0.1774 -0.4285  0.3565
   6423SM   C12 8198   4.480   4.709   7.699  0.0162 -0.1830  0.4436
   6423SM  H12A 8199   4.454   4.689   7.802  3.0553 -0.6022  1.2122
   6423SM  H12B 8200   4.449   4.810   7.679 -1.4436  0.1295  3.6153
   6423SM   C11 8201   4.635   4.699   7.698  0.1218 -0.0411  0.3859
   6423SM  H11A 8202   4.663   4.593   7.714  0.9590  0.1961  0.5238
   6423SM  H11B 8203   4.659   4.749   7.795  0.1061  0.9368 -0.0963
   6423SM     P 8204   4.810   4.692   7.496  0.2202  0.0176  0.1922
   6423SM   O13 8205   4.844   4.794   7.390  0.0792 -0.9568  0.1410
   6423SM   O14 8206   4.924   4.661   7.585  0.3069 -0.0922  0.0281
   6423SM   O11 8207   4.746   4.557   7.439  0.4909 -0.3861  0.2103
   6423SM   O12 8208   4.693   4.755   7.588 -0.8739 -0.0702  0.2615
   6423SM   C1S 8209   4.836   4.454   7.391 -0.2978 -0.2657 -0.0933
   6423SM   H1S 8210   4.861   4.384   7.474  3.2842  2.3320  1.2410
   6423SM   H1T 8211   4.938   4.486   7.363 -1.1331  0.5084 -2.5143
   6423SM    NF 8212   4.848   4.250   7.246 -0.2668  0.5235 -0.1929
   6423SM   HNF 8213   4.918   4.244   7.174 -1.4800  1.1178 -1.4681
   6423SM   C2S 8214   4.771   4.372   7.273 -0.0407  0.7772  0.3347
   6423SM   H2S 8215   4.669   4.340   7.303 -0.8901  0.9837 -2.1159
   6423SM   C3S 8216   4.763   4.463   7.143 -0.2827  0.6905 -0.2946
   6423SM   H3S 8217   4.868   4.488   7.115  0.8006 -2.8322  0.1335
   6423SM    O3 8218   4.690   4.583   7.170  0.3122 -0.0937  0.4292
   6423SM   HO3 8219   4.714   4.588   7.263  0.6113 -1.5218  0.4571
   6423SM   C4S 8220   4.704   4.394   7.034  0.6038  0.0554  0.4637
   6423SM   H4S 8221   4.594   4.387   7.032  0.6001  0.1448  0.2231
   6423SM   C5S 8222   4.766   4.336   6.928  0.4629  0.3418 -0.2553
   6423SM   H5S 8223   4.875   4.341   6.932  0.4215  0.9159  0.1844
   6423SM   C6S 8224   4.698   4.262   6.815  0.1802  0.6612  0.6231
   6423SM   H6S 8225   4.587   4.268   6.820  0.0735 -0.3022 -0.2286
   6423SM   H6T 8226   4.724   4.157   6.837  1.3944  0.7344 -0.3947
   6423SM   C7S 8227   4.754   4.291   6.676 -0.2791 -0.0195 -0.6492
   6423SM   H7S 8228   4.865   4.300   6.685 -0.4720  1.1773  1.2974
   6423SM   H7T 8229   4.718   4.392   6.647 -0.1176  0.3315  0.3098
   6423SM   C8S 8230   4.718   4.171   6.584 -0.1571 -0.6535 -0.2549
   6423SM   H8S 8231   4.608   4.156   6.583 -0.6126  1.8479  1.5382
   6423SM   H8T 8232   4.758   4.081   6.635  1.0171  0.2712  0.4902
   6423SM   C9S 8233   4.779   4.183   6.448  0.3215 -0.1203  0.1645
   6423SM   H9S 8234   4.889   4.200   6.456  0.3434 -0.8384  1.6265
   6423SM   H9T 8235   4.735   4.261   6.382  2.3668 -0.0469 -1.2297
   6423SM  C10S 8236   4.766   4.052   6.366  0.1218 -0.8997  0.6734
   6423SM  H10S 8237   4.660   4.029   6.341  0.3307 -1.3764  0.2314
   6423SM  H10T 8238   4.798   3.963   6.424 -1.5730 -1.0672  1.4391
   6423SM  C11S 8239   4.857   4.061   6.238 -0.2882  0.2586  0.3531
   6423SM  H11S 8240   4.966   4.061   6.259  0.2393 -2.3481 -1.8217
   6423SM  H11T 8241   4.835   4.163   6.201  2.4025  0.8232  0.1381
   6423SM  C12S 8242   4.813   3.968   6.123 -0.0545  0.3958  0.3191
   6423SM  H12S 8243   4.884   3.975   6.038 -0.1545 -0.4084  0.1593
   6423SM  H12T 8244   4.711   3.999   6.091 -1.1575 -0.0253  3.1295
   6423SM  C13S 8245   4.808   3.821   6.162 -0.3158  0.1752 -0.1612
   6423SM  H13S 8246   4.756   3.762   6.083 -0.6212  0.2587 -0.0224
   6423SM  H13T 8247   4.740   3.807   6.248  0.3690 -1.4799  0.1385
   6423SM  C14S 8248   4.951   3.766   6.179 -0.4012 -0.1442 -0.1826
   6423SM  H14S 8249   5.006   3.817   6.261  0.3087 -0.6844 -0.3138
   6423SM  H14T 8250   5.023   3.784   6.097  0.6654  0.7816  0.9198
   6423SM  C15S 8251   4.941   3.614   6.201 -0.6001 -0.2843  0.4200
   6423SM  H15S 8252   5.038   3.590   6.250 -0.0119  0.2699 -0.4462
   6423SM  H15T 8253   4.943   3.564   6.102  1.8723 -0.8796  0.7062
   6423SM  C16S 8254   4.823   3.562   6.280  0.3344  0.8195  0.2303
   6423SM  H16S 8255   4.737   3.565   6.209  0.4111  1.7326  0.1587
   6423SM  H16T 8256   4.796   3.623   6.369 -1.6008  1.7459 -0.9238
   6423SM  C17S 8257   4.838   3.413   6.320 -0.7980 -0.9504  0.5826
   6423SM  H17S 8258   4.750   3.381   6.379 -0.4840 -0.1989  1.4866
   6423SM  H17T 8259   4.933   3.406   6.377  0.4640  0.6761 -1.1634
   6423SM  C18S 8260   4.838   3.329   6.195 -0.3780 -0.2171 -0.0812
   6423SM  H18S 8261   4.743   3.355   6.142 -0.9663  0.7808  1.3931
   6423SM  H18T 8262   4.855   3.221   6.210 -0.1322 -0.8294 -3.7545
   6423SM  H18U 8263   4.923   3.355   6.128 -1.3890  1.8540 -0.6585
   6423SM   C1F 8264   4.836   4.140   7.321 -0.0737  0.6765  0.0501
   6423SM    OF 8265   4.790   4.143   7.431 -0.2807  0.5846 -0.0470
   6423SM   C2F 8266   4.878   4.012   7.253  0.2513  0.0585 -0.0119
   6423SM   H2F 8267   4.951   3.968   7.325  0.5371  0.0511 -0.3029
   6423SM   H2G 8268   4.929   4.027   7.156  0.2338  0.7995  0.0883
   6423SM   C3F 8269   4.758   3.923   7.220  0.6032  0.4204 -0.3660
   6423SM   H3F 8270   4.702   3.900   7.313 -1.1414 -0.1450 -1.5037
   6423SM   H3G 8271   4.802   3.827   7.186  0.1620  0.3883 -0.8645
   6423SM   C4F 8272   4.657   3.987   7.129  0.2596 -0.6945 -0.0892
   6423SM   H4F 8273   4.724   4.039   7.058  2.2139 -0.3090  1.8993
   6423SM   H4G 8274   4.613   4.079   7.174 -0.5180 -0.8893 -0.4265
   6423SM   C5F 8275   4.554   3.893   7.065  0.4442 -0.5807 -0.0279
   6423SM   H5F 8276   4.472   3.879   7.138 -1.9039  3.6050 -1.5579
   6423SM   H5G 8277   4.599   3.802   7.019  0.7652  0.2807 -1.5024
   6423SM   C6F 8278   4.493   3.962   6.940 -0.3736  0.0341  0.2301
   6423SM   H6F 8279   4.556   4.051   6.919 -1.3796  1.0207  1.2673
   6423SM   H6G 8280   4.403   4.018   6.973  0.1721  0.3439  1.2568
   6423SM   C7F 8281   4.469   3.869   6.824 -0.7604 -0.4683  0.2347
   6423SM   H7F 8282   4.403   3.787   6.861 -0.1457 -1.5006 -0.8498
   6423SM   H7G 8283   4.569   3.827   6.798  0.5367  2.5234 -0.0279
   6423SM   C8F 8284   4.405   3.936   6.697 -0.7712  0.4553 -0.0760
   6423SM   H8F 8285   4.454   4.034   6.682 -1.2351  0.8522  0.9030
   6423SM   H8G 8286   4.295   3.939   6.712 -1.0295  0.9066 -1.8200
   6423SM   C9F 8287   4.428   3.851   6.570  0.0314 -0.2577 -0.4660
   6423SM   H9F 8288   4.390   3.749   6.592 -0.9848  0.4487  1.1946
   6423SM   H9G 8289   4.536   3.849   6.542  0.9969  2.9516  2.3036
   6423SM  C10F 8290   4.342   3.902   6.453 -0.7447  1.1087 -0.3846
   6423SM  H10F 8291   4.405   3.973   6.396 -0.8709 -0.1973 -2.2521
   6423SM  H10G 8292   4.249   3.953   6.485  0.2065  3.2389 -0.8513
   6423SM  C11F 8293   4.308   3.789   6.359 -0.5323  0.6666 -0.3247
   6423SM  H11F 8294   4.258   3.818   6.264 -1.7751 -1.3151 -0.3170
   6423SM  H11G 8295   4.234   3.723   6.409 -0.8263  1.6556  0.5868
   6423SM  C12F 8296   4.422   3.699   6.307 -0.3418 -0.3156 -0.4815
   6423SM  H12F 8297   4.484   3.648   6.384  0.3836 -0.7251 -1.3155
   6423SM  H12G 8298   4.491   3.772   6.259 -0.5422  1.1677  1.3841
   6423SM  C13F 8299   4.373   3.602   6.203  0.2543 -0.1690 -0.2194
   6423SM  H13F 8300   4.306   3.652   6.130  0.5699 -2.3550 -2.1243
   6423SM  H13G 8301   4.317   3.512   6.239  2.4941 -2.4361 -2.0808
   6423SM  C14F 8302   4.481   3.542   6.117  0.1676  0.1286  0.6274
   6423SM  H14F 8303   4.538   3.476   6.186  1.5701  0.1726 -0.4597
   6423SM  H14G 8304   4.564   3.615   6.106  0.0680  0.6046  2.5137
   6423SM  C15F 8305   4.434   3.480   5.980  0.6990 -0.0194  0.2349
   6423SM  H15F 8306   4.527   3.465   5.921  1.5027 -1.1643  1.7367
   6423SM  H15G 8307   4.364   3.549   5.929  2.0017  0.5040 -0.9160
   6423SM  C16F 8308   4.374   3.341   5.993  0.2673  0.0522 -0.7018
   6423SM  H16F 8309   4.287   3.339   6.062  0.7164 -2.6009 -0.1029
   6423SM  H16G 8310   4.448   3.276   6.044 -1.2100 -0.0745  1.4096
   6423SM  C17F 8311   4.334   3.298   5.856 -0.1031 -0.0383  0.5350
   6423SM  H17F 8312   4.263   3.371   5.811 -1.6129 -0.9880  1.2870
   6423SM  H17G 8313   4.285   3.198   5.862  0.8881 -0.7003 -1.5070
   6423SM  C18F 8314   4.437   3.282   5.746 -0.5151 -0.4802  0.0223
   6423SM  H18F 8315   4.514   3.218   5.793 -0.1918 -0.8670 -1.0153
   6423SM  H18G 8316   4.479   3.379   5.711 -0.3277 -0.9106 -0.9793
   6423SM  C19F 8317   4.366   3.196   5.633  0.1026  0.0294  0.4138
   6423SM  H19F 8318   4.287   3.259   5.589 -2.3939 -0.2779  4.0219
   6423SM  H19G 8319   4.316   3.106   5.674 -0.1640  0.1264  0.3016
   6423SM  C20F 8320   4.452   3.137   5.515 -0.2503  0.6465 -0.0314
   6423SM  H20F 8321   4.386   3.064   5.463  1.1478 -0.9573  0.3288
   6423SM  H20G 8322   4.547   3.089   5.547  0.5054  0.8200 -1.8769
   6423SM  C21F 8323   4.497   3.246   5.416  0.4129 -0.4071 -0.4446
   6423SM  H21F 8324   4.516   3.338   5.475  0.7050 -1.2766  0.8551
   6423SM  H21G 8325   4.412   3.262   5.347 -0.0189 -1.2124 -0.1131
   6423SM  C22F 8326   4.603   3.202   5.322  0.2158  0.5033 -0.6720
   6423SM  H22F 8327   4.615   3.284   5.248 -0.5824  1.6602  0.4337
   6423SM  H22G 8328   4.565   3.114   5.266 -0.2581  0.3508 -0.1197
   6423SM  C23F 8329   4.736   3.164   5.389 -0.6572 -0.4133  0.6565
   6423SM  H23F 8330   4.718   3.082   5.461 -1.5252 -1.9055 -1.1843
   6423SM  H23G 8331   4.784   3.246   5.447  0.8911 -0.5426 -0.3805
   6423SM  H23H 8332   4.798   3.130   5.303  0.2175 -1.6186  1.7241
   6523SM     N 8333   5.157   5.960   7.669 -0.0532  0.4162 -0.3518
   6523SM   C15 8334   5.248   5.844   7.673  0.4181  0.4538  0.7946
   6523SM  H15A 8335   5.269   5.800   7.577  1.6020  1.6654  0.4814
   6523SM  H15B 8336   5.200   5.764   7.729 -1.9687  2.2980  1.5431
   6523SM  H15C 8337   5.337   5.879   7.722 -1.0033  2.1929  2.3132
   6523SM   C14 8338   5.141   5.997   7.809  0.1022  0.5270 -0.1338
   6523SM  H14A 8339   5.086   6.087   7.833 -1.7954 -0.9561  1.4656
   6523SM  H14B 8340   5.234   6.010   7.862 -0.4372 -0.0508  0.9952
   6523SM  H14C 8341   5.083   5.916   7.851  0.5512 -0.0659 -0.6445
   6523SM   C13 8342   5.219   6.068   7.589  0.0100 -0.4035  0.4564
   6523SM  H13A 8343   5.316   6.095   7.627 -0.4627 -0.3685  1.6770
   6523SM  H13B 8344   5.169   6.164   7.601  0.9389 -0.0587  1.7651
   6523SM  H13C 8345   5.224   6.044   7.484  0.3886 -1.4794  0.7109
   6523SM   C12 8346   5.020   5.923   7.609 -0.2563  0.5443  0.4298
   6523SM  H12A 8347   4.958   6.012   7.604 -0.4765  0.3508 -0.3039
   6523SM  H12B 8348   4.963   5.854   7.670 -1.0615  0.9221  0.1183
   6523SM   C11 8349   5.023   5.863   7.459  0.1309  0.3412 -0.3396
   6523SM  H11A 8350   5.066   5.938   7.389  0.7425 -1.3633 -1.8356
   6523SM  H11B 8351   4.915   5.853   7.435 -0.7899  3.4322  1.8709
   6523SM     P 8352   5.027   5.600   7.415  0.3087 -0.0473 -0.0829
   6523SM   O13 8353   5.129   5.507   7.358 -0.3257 -0.9829  0.2131
   6523SM   O14 8354   4.954   5.554   7.533  0.6782 -0.0137  0.0193
   6523SM   O11 8355   4.925   5.638   7.296  0.3634 -0.1012  0.0839
   6523SM   O12 8356   5.093   5.733   7.456  0.0382 -0.3790  0.0605
   6523SM   C1S 8357   4.973   5.674   7.173 -0.1303 -0.2251  1.1289
   6523SM   H1S 8358   5.064   5.614   7.152 -0.8561 -1.0401  0.2245
   6523SM   H1T 8359   4.990   5.784   7.171 -1.4133 -0.0061  1.1557
   6523SM    NF 8360   4.932   5.646   6.927  0.1026 -0.1833 -0.3111
   6523SM   HNF 8361   4.910   5.722   6.866  0.9844 -0.2717 -0.7558
   6523SM   C2S 8362   4.871   5.636   7.058 -0.4782  1.0706  0.1491
   6523SM   H2S 8363   4.834   5.533   7.075 -0.9637  1.4733  1.7684
   6523SM   C3S 8364   4.741   5.720   7.079 -0.4010  0.7120  0.0882
   6523SM   H3S 8365   4.776   5.826   7.081  0.8089  0.3581 -1.1083
   6523SM    O3 8366   4.668   5.702   7.201 -0.2266 -0.3516  0.1217
   6523SM   HO3 8367   4.723   5.672   7.273 -0.2888  1.0638  0.7877
   6523SM   C4S 8368   4.653   5.688   6.966  0.1898 -1.3668  0.6426
   6523SM   H4S 8369   4.620   5.585   6.943 -0.9346 -1.1737  1.3051
   6523SM   C5S 8370   4.603   5.789   6.891  0.0032  0.1926  0.0417
   6523SM   H5S 8371   4.619   5.894   6.919 -1.0525  0.1800  0.7057
   6523SM   C6S 8372   4.516   5.786   6.767  0.5642  0.2909  0.5575
   6523SM   H6S 8373   4.553   5.861   6.694 -0.2539 -1.1696 -1.4462
   6523SM   H6T 8374   4.411   5.801   6.800  0.6908 -0.9452  1.6330
   6523SM   C7S 8375   4.512   5.638   6.716 -0.3277  0.5191  1.2826
   6523SM   H7S 8376   4.461   5.572   6.790 -1.8909  0.5078  0.2398
   6523SM   H7T 8377   4.615   5.598   6.705 -0.8939 -0.8358  0.5982
   6523SM   C8S 8378   4.441   5.626   6.582  0.1693 -0.0676  0.1962
   6523SM   H8S 8379   4.473   5.705   6.510 -1.5871  0.8441  0.3686
   6523SM   H8T 8380   4.334   5.649   6.601  0.6797  2.1195  0.6529
   6523SM   C9S 8381   4.452   5.483   6.530  0.7849  0.2933 -0.4806
   6523SM   H9S 8382   4.435   5.409   6.611 -0.0575 -1.2215 -1.9893
   6523SM   H9T 8383   4.549   5.459   6.482  0.5638 -0.1765 -0.6985
   6523SM  C10S 8384   4.343   5.440   6.424 -0.2735 -0.1352  0.4197
   6523SM  H10S 8385   4.357   5.506   6.335  1.6476  0.3954  1.0704
   6523SM  H10T 8386   4.237   5.451   6.456 -0.8598 -1.8459 -0.7822
   6523SM  C11S 8387   4.372   5.298   6.375 -0.3530 -0.3065 -0.0832
   6523SM  H11S 8388   4.423   5.244   6.458  0.3012  0.3745 -0.0308
   6523SM  H11T 8389   4.444   5.307   6.291 -0.4301  1.4055 -0.0012
   6523SM  C12S 8390   4.247   5.228   6.329 -0.5888 -0.1120 -0.2913
   6523SM  H12S 8391   4.200   5.272   6.238 -1.2671  1.3346  0.7129
   6523SM  H12T 8392   4.175   5.223   6.413 -0.7207 -0.3053 -0.4138
   6523SM  C13S 8393   4.260   5.079   6.274  0.2596 -0.4433 -0.2593
   6523SM  H13S 8394   4.158   5.035   6.265  0.4463 -0.8343 -0.4909
   6523SM  H13T 8395   4.312   5.026   6.357  1.4752  0.5705 -0.3460
   6523SM  C14S 8396   4.308   5.064   6.130 -0.0337  0.3106  0.2055
   6523SM  H14S 8397   4.413   5.099   6.118  0.3023 -1.0364 -1.0516
   6523SM  H14T 8398   4.242   5.132   6.073 -1.6700 -1.3095  0.0742
   6523SM  C15S 8399   4.300   4.917   6.069  0.7118 -0.2624 -0.4809
   6523SM  H15S 8400   4.200   4.869   6.062 -0.3771  1.6250  1.0249
   6523SM  H15T 8401   4.357   4.848   6.134  1.0378  0.5279  0.0880
   6523SM  C16S 8402   4.349   4.906   5.924  0.3545  0.0975  0.5442
   6523SM  H16S 8403   4.421   4.821   5.918 -0.7502 -0.9182  1.2299
   6523SM  H16T 8404   4.392   5.000   5.885  0.6431  0.3663  1.4883
   6523SM  C17S 8405   4.244   4.871   5.824  0.0735 -0.1932 -0.3533
   6523SM  H17S 8406   4.183   4.963   5.830  3.1904  2.1406 -1.6045
   6523SM  H17T 8407   4.179   4.786   5.855 -1.6075  1.5063  1.0209
   6523SM  C18S 8408   4.301   4.845   5.689  0.4585 -0.3311 -0.2934
   6523SM  H18S 8409   4.372   4.760   5.696  2.0830  1.0073  0.2698
   6523SM  H18T 8410   4.345   4.935   5.640 -0.5078  0.3471  0.0442
   6523SM  H18U 8411   4.219   4.809   5.624 -0.8649 -1.4933  1.8946
   6523SM   C1F 8412   5.014   5.556   6.870  0.4139  0.0282  0.7086
   6523SM    OF 8413   5.056   5.462   6.934 -0.0849 -0.3382  0.6662
   6523SM   C2F 8414   5.063   5.579   6.728  0.3047 -0.2615 -0.5263
   6523SM   H2F 8415   5.020   5.502   6.660  0.1279 -1.2097  0.6219
   6523SM   H2G 8416   5.172   5.561   6.726  0.3483  0.0438 -1.1056
   6523SM   C3F 8417   5.032   5.721   6.677 -0.3663  0.7007 -0.2958
   6523SM   H3F 8418   5.092   5.793   6.736 -1.4460  1.2721  0.1431
   6523SM   H3G 8419   4.924   5.744   6.692 -0.1839  1.5052 -0.1542
   6523SM   C4F 8420   5.073   5.740   6.533 -0.1372 -0.0389 -0.2835
   6523SM   H4F 8421   5.042   5.842   6.500  1.6651  0.3711 -0.8301
   6523SM   H4G 8422   5.011   5.672   6.471  3.5438 -1.9214 -2.1651
   6523SM   C5F 8423   5.221   5.730   6.499 -0.1394 -0.3077  0.8701
   6523SM   H5F 8424   5.259   5.626   6.502  0.2174 -0.2372 -0.3620
   6523SM   H5G 8425   5.286   5.788   6.569 -0.1203 -0.0798  0.6657
   6523SM   C6F 8426   5.254   5.777   6.347  0.1301  0.4378 -0.5825
   6523SM   H6F 8427   5.225   5.882   6.327 -0.7739  0.4021  0.4644
   6523SM   H6G 8428   5.200   5.719   6.269 -0.5728  0.8745 -0.4346
   6523SM   C7F 8429   5.401   5.739   6.306  0.5279 -0.3346  0.4968
   6523SM   H7F 8430   5.416   5.636   6.343  2.1614  0.8481  3.4696
   6523SM   H7G 8431   5.466   5.802   6.370  0.0348  2.5052 -1.5896
   6523SM   C8F 8432   5.430   5.767   6.158 -0.4625 -0.3644  0.2237
   6523SM   H8F 8433   5.363   5.695   6.106  0.5577 -2.2502  1.4021
   6523SM   H8G 8434   5.535   5.739   6.133 -0.5505 -1.8657  1.4046
   6523SM   C9F 8435   5.415   5.902   6.098 -0.0189 -0.0169  0.2423
   6523SM   H9F 8436   5.493   5.978   6.118  0.7558 -1.1568  1.7717
   6523SM   H9G 8437   5.319   5.947   6.132 -0.5603  1.5984 -3.0334
   6523SM  C10F 8438   5.393   5.889   5.940  0.1281  0.3669 -1.0642
   6523SM  H10F 8439   5.317   5.810   5.927  0.2568 -0.4130  2.0312
   6523SM  H10G 8440   5.490   5.849   5.902  1.8558  1.2704  1.9755
   6523SM  C11F 8441   5.350   6.016   5.862 -0.5846 -0.3798  0.7273
   6523SM  H11F 8442   5.418   6.103   5.873  0.3839 -0.9694 -0.2842
   6523SM  H11G 8443   5.248   6.053   5.883 -0.7885  0.2365 -1.0977
   6523SM  C12F 8444   5.342   5.989   5.710 -0.1806 -0.2187 -0.6214
   6523SM  H12F 8445   5.266   5.912   5.688 -1.2346  0.8603 -0.8660
   6523SM  H12G 8446   5.438   5.948   5.672  1.0666  1.4729  0.5756
   6523SM  C13F 8447   5.304   6.104   5.613  0.2050  0.3024  0.4442
   6523SM  H13F 8448   5.388   6.177   5.609 -0.1676  0.7393  0.4509
   6523SM  H13G 8449   5.218   6.155   5.662  0.1499  1.2250 -0.5718
   6523SM  C14F 8450   5.270   6.053   5.475  0.0893  0.7563 -0.3828
   6523SM  H14F 8451   5.277   6.134   5.400  1.6171 -0.5140 -1.6784
   6523SM  H14G 8452   5.166   6.012   5.480  0.8541 -1.1436  2.2510
   6523SM  C15F 8453   5.362   5.930   5.423  0.4357  0.1892  0.6629
   6523SM  H15F 8454   5.313   5.843   5.473 -0.4076 -0.4519 -1.2004
   6523SM  H15G 8455   5.467   5.939   5.459  0.9532  0.5292 -0.8770
   6523SM  C16F 8456   5.333   5.908   5.275  0.0560  0.0846  0.2479
   6523SM  H16F 8457   5.386   5.982   5.211 -1.0330  0.4322 -0.2810
   6523SM  H16G 8458   5.223   5.913   5.263  0.0430  1.6399  0.7816
   6523SM  C17F 8459   5.380   5.765   5.228 -0.0665  0.0071  0.7199
   6523SM  H17F 8460   5.339   5.689   5.298  0.5885  0.3182  1.4579
   6523SM  H17G 8461   5.491   5.764   5.237  0.0153  1.0413  0.0340
   6523SM  C18F 8462   5.337   5.731   5.081  0.4285 -0.4658 -0.5768
   6523SM  H18F 8463   5.228   5.752   5.074  0.2055 -1.0687  0.7677
   6523SM  H18G 8464   5.343   5.621   5.069  1.8946 -0.6814  1.5170
   6523SM  C19F 8465   5.420   5.800   4.977  1.0101  0.1773  0.0888
   6523SM  H19F 8466   5.526   5.782   5.003  0.8065 -0.6498  0.3748
   6523SM  H19G 8467   5.409   5.910   4.989  0.2876 -0.0391  1.6893
   6523SM  C20F 8468   5.405   5.761   4.832  0.3635  0.0200  0.5605
   6523SM  H20F 8469   5.300   5.755   4.795  0.9258 -1.1241 -0.9449
   6523SM  H20G 8470   5.434   5.656   4.814 -2.0635 -0.7138  0.6058
   6523SM  C21F 8471   5.486   5.846   4.727 -0.0352  1.0502 -0.1375
   6523SM  H21F 8472   5.482   5.801   4.626  2.5762 -0.4692  0.3232
   6523SM  H21G 8473   5.589   5.830   4.766 -0.6858 -2.6592  0.4828
   6523SM  C22F 8474   5.432   5.989   4.705 -0.4700  0.6315  0.3872
   6523SM  H22F 8475   5.508   6.050   4.651 -1.6072 -0.4601 -2.6256
   6523SM  H22G 8476   5.414   6.037   4.804  0.5731  1.2275  0.3060
   6523SM  C23F 8477   5.295   6.008   4.635  0.2295  0.4409  0.1658
   6523SM  H23F 8478   5.295   5.970   4.530  1.4945  2.0811 -0.4699
   6523SM  H23G 8479   5.272   6.116   4.636  0.5658  0.5082  1.0856
   6523SM  H23H 8480   5.214   5.954   4.689 -0.2704 -0.2941 -1.2441
   6623SM     N 8481   2.983   1.284   7.290  0.3204  0.2034 -1.2965
   6623SM   C15 8482   3.092   1.347   7.215 -1.2650  0.3822  0.3088
   6623SM  H15A 8483   3.095   1.316   7.112  0.8661 -0.3839  0.5505
   6623SM  H15B 8484   3.182   1.308   7.262 -0.8200 -0.0361 -0.8457
   6623SM  H15C 8485   3.099   1.454   7.226 -0.6521  0.4008 -0.2067
   6623SM   C14 8486   2.853   1.330   7.238 -0.0179  0.2483 -0.1173
   6623SM  H14A 8487   2.846   1.438   7.234 -2.4165  0.1237 -0.1966
   6623SM  H14B 8488   2.764   1.300   7.291 -2.1128  2.6400 -2.0273
   6623SM  H14C 8489   2.842   1.299   7.136 -0.7027 -0.9683  0.3181
   6623SM   C13 8490   2.991   1.134   7.261  0.0979 -0.0268  0.1722
   6623SM  H13A 8491   3.001   1.111   7.156  2.0159 -0.9908  0.5158
   6623SM  H13B 8492   2.903   1.091   7.306 -0.6960  0.8753 -0.4855
   6623SM  H13C 8493   3.079   1.089   7.306  0.4236  1.1240  0.7290
   6623SM   C12 8494   2.999   1.306   7.442 -0.5408 -0.5460 -0.5785
   6623SM  H12A 8495   2.917   1.258   7.495 -1.2904 -0.4343 -1.5969
   6623SM  H12B 8496   2.992   1.413   7.453 -0.6738 -0.4872 -1.2282
   6623SM   C11 8497   3.145   1.288   7.512  0.1107  0.7414  0.1083
   6623SM  H11A 8498   3.188   1.191   7.478  0.3081  0.8616  0.0214
   6623SM  H11B 8499   3.130   1.278   7.622 -0.1028  0.1098  0.0273
   6623SM     P 8500   3.273   1.500   7.566  0.0979 -0.1552 -0.1560
   6623SM   O13 8501   3.162   1.528   7.658  0.0897  0.7560  0.6201
   6623SM   O14 8502   3.407   1.459   7.616 -0.4171 -0.4181  0.4259
   6623SM   O11 8503   3.289   1.622   7.472  0.2356 -0.1464  0.4697
   6623SM   O12 8504   3.238   1.384   7.465  0.3102  0.7159 -0.1757
   6623SM   C1S 8505   3.361   1.624   7.349  0.3312 -0.3797  0.2271
   6623SM   H1S 8506   3.329   1.539   7.286 -0.1030  0.9569 -1.4526
   6623SM   H1T 8507   3.468   1.609   7.371  0.5848 -0.3607 -0.9429
   6623SM    NF 8508   3.381   1.738   7.132 -0.5508 -0.0831 -0.5636
   6623SM   HNF 8509   3.473   1.764   7.105 -0.3601  1.8042  1.6677
   6623SM   C2S 8510   3.350   1.760   7.268 -0.2907 -0.1916 -0.0998
   6623SM   H2S 8511   3.244   1.789   7.280  0.3733  2.0199  1.1295
   6623SM   C3S 8512   3.431   1.862   7.338 -0.0960 -0.5078  0.7236
   6623SM   H3S 8513   3.537   1.829   7.337 -0.0319 -0.3554 -1.2395
   6623SM    O3 8514   3.390   1.894   7.473 -0.1607 -0.0410 -0.1245
   6623SM   HO3 8515   3.315   1.837   7.491 -1.1994  1.9739  2.7573
   6623SM   C4S 8516   3.431   1.987   7.250 -0.1109  0.4501 -0.2342
   6623SM   H4S 8517   3.340   2.009   7.191 -1.4375 -1.8020  0.8290
   6623SM   C5S 8518   3.528   2.082   7.247  0.3741  0.1406  0.7838
   6623SM   H5S 8519   3.614   2.061   7.312 -0.4588 -1.7560  1.3474
   6623SM   C6S 8520   3.535   2.212   7.166  0.5196 -0.4371  0.4728
   6623SM   H6S 8521   3.535   2.291   7.244  0.8454 -0.9284  0.9864
   6623SM   H6T 8522   3.434   2.230   7.126  0.4738  1.2165  1.2708
   6623SM   C7S 8523   3.640   2.214   7.061 -0.2669 -0.3485  0.0398
   6623SM   H7S 8524   3.650   2.113   7.017  1.8664  0.7495 -2.2558
   6623SM   H7T 8525   3.738   2.235   7.110  0.0325 -0.1628 -0.6181
   6623SM   C8S 8526   3.621   2.320   6.951 -0.1798 -0.6400  0.4415
   6623SM   H8S 8527   3.715   2.331   6.892 -0.7666  3.9026 -0.0135
   6623SM   H8T 8528   3.613   2.419   7.000 -0.0542 -0.5720  0.3260
   6623SM   C9S 8529   3.501   2.303   6.851  0.2127 -0.4028 -0.4555
   6623SM   H9S 8530   3.478   2.406   6.816  1.6120  0.0254 -0.1495
   6623SM   H9T 8531   3.419   2.249   6.902  0.6597 -1.4945 -0.8694
   6623SM  C10S 8532   3.529   2.229   6.723 -0.5494 -0.3158 -0.3004
   6623SM  H10S 8533   3.618   2.271   6.673 -0.4545  2.0157  1.6443
   6623SM  H10T 8534   3.449   2.240   6.647  0.0860  1.6610 -0.7351
   6623SM  C11S 8535   3.551   2.076   6.758 -0.8976  0.2790  0.3589
   6623SM  H11S 8536   3.473   2.046   6.831 -0.0228 -0.8498  0.8651
   6623SM  H11T 8537   3.647   2.053   6.808 -0.8714 -0.3793  0.0185
   6623SM  C12S 8538   3.533   1.973   6.639  0.4686 -0.1444  0.6225
   6623SM  H12S 8539   3.423   1.970   6.623 -0.0204  2.5495  2.6668
   6623SM  H12T 8540   3.578   1.887   6.692  0.3873 -1.6277 -1.6014
   6623SM  C13S 8541   3.619   1.998   6.515 -0.0425 -0.2828 -0.4426
   6623SM  H13S 8542   3.724   1.978   6.546 -0.6771 -1.7781  0.9086
   6623SM  H13T 8543   3.602   2.099   6.474 -0.6542 -0.3224 -0.2912
   6623SM  C14S 8544   3.585   1.902   6.397 -0.3591 -0.7736 -0.0959
   6623SM  H14S 8545   3.483   1.919   6.357 -0.6239 -1.2670  0.3507
   6623SM  H14T 8546   3.588   1.799   6.439  1.7548 -1.0370 -0.7704
   6623SM  C15S 8547   3.690   1.926   6.288 -0.1176  0.4064 -0.1796
   6623SM  H15S 8548   3.792   1.907   6.329 -0.3998 -0.5841  0.0976
   6623SM  H15T 8549   3.702   2.033   6.261  1.2500  1.3345  3.5279
   6623SM  C16S 8550   3.674   1.847   6.160  0.3742 -0.0948  0.6348
   6623SM  H16S 8551   3.628   1.749   6.181  0.8008 -1.0414 -2.3855
   6623SM  H16T 8552   3.771   1.826   6.110  0.5346 -0.1867  0.9803
   6623SM  C17S 8553   3.573   1.918   6.065  0.1154  0.1731 -0.7436
   6623SM  H17S 8554   3.596   2.025   6.050 -1.0228  0.2821 -1.8647
   6623SM  H17T 8555   3.485   1.921   6.132  3.3598 -1.4107  4.1894
   6623SM  C18S 8556   3.555   1.856   5.928 -0.0343 -0.0699 -0.1644
   6623SM  H18S 8557   3.483   1.907   5.861  0.4038 -1.2513 -1.5918
   6623SM  H18T 8558   3.518   1.752   5.945 -0.0972 -0.0887 -0.4131
   6623SM  H18U 8559   3.656   1.852   5.882  0.7177 -0.9160  1.4674
   6623SM   C1F 8560   3.309   1.661   7.055  0.4211 -0.3300  0.1244
   6623SM    OF 8561   3.197   1.634   7.085  0.3799  0.5772 -0.4081
   6623SM   C2F 8562   3.363   1.623   6.917 -0.1023  0.4864  0.1382
   6623SM   H2F 8563   3.394   1.517   6.908  0.4425  0.8038 -2.8769
   6623SM   H2G 8564   3.454   1.686   6.904  0.4604 -0.6424 -1.9625
   6623SM   C3F 8565   3.254   1.656   6.817 -0.4406 -0.2683 -0.4334
   6623SM   H3F 8566   3.221   1.762   6.825 -1.5125 -0.6422  0.3464
   6623SM   H3G 8567   3.165   1.593   6.839 -0.6308  0.3608  0.6345
   6623SM   C4F 8568   3.305   1.627   6.671  0.0656 -0.0687  1.0551
   6623SM   H4F 8569   3.319   1.517   6.665 -1.1613 -0.1775 -0.5498
   6623SM   H4G 8570   3.400   1.675   6.642 -0.2267  0.8897  1.6458
   6623SM   C5F 8571   3.197   1.667   6.562 -0.3018 -0.3867  0.4598
   6623SM   H5F 8572   3.170   1.775   6.570 -0.1098 -0.4213  1.8192
   6623SM   H5G 8573   3.104   1.614   6.593 -0.1076  0.3471  2.4328
   6623SM   C6F 8574   3.243   1.640   6.415  0.0259 -0.3701  0.4435
   6623SM   H6F 8575   3.257   1.530   6.400 -1.0534 -0.4640 -0.0415
   6623SM   H6G 8576   3.336   1.699   6.409 -1.1119  1.5226  0.5492
   6623SM   C7F 8577   3.144   1.689   6.309  1.2750  0.1360 -0.4926
   6623SM   H7F 8578   3.079   1.770   6.349  2.1196  0.2960  0.6053
   6623SM   H7G 8579   3.072   1.609   6.279  2.0129 -1.3735  1.4786
   6623SM   C8F 8580   3.205   1.744   6.177 -0.3521 -0.2214  0.1871
   6623SM   H8F 8581   3.275   1.671   6.131 -2.2853 -2.7114  0.9594
   6623SM   H8G 8582   3.265   1.836   6.194  4.0445 -2.5468 -1.2573
   6623SM   C9F 8583   3.092   1.770   6.068 -0.3119 -0.8200  0.4132
   6623SM   H9F 8584   3.015   1.844   6.098  0.6627  0.3693  0.0387
   6623SM   H9G 8585   3.043   1.671   6.054 -0.2127 -0.8067 -0.0455
   6623SM  C10F 8586   3.152   1.809   5.932 -0.3991 -0.5210 -0.3168
   6623SM  H10F 8587   3.224   1.730   5.901  0.6487 -0.2566  1.2959
   6623SM  H10G 8588   3.202   1.908   5.939 -1.9480  0.3076 -0.5401
   6623SM  C11F 8589   3.047   1.807   5.824 -0.1498  0.3587  0.8517
   6623SM  H11F 8590   2.968   1.875   5.863  0.8737  2.9197 -1.2662
   6623SM  H11G 8591   2.999   1.707   5.813 -1.6790  1.2131 -0.7556
   6623SM  C12F 8592   3.078   1.863   5.686 -0.3926  0.3204 -0.2141
   6623SM  H12F 8593   3.160   1.932   5.716  0.8569 -1.9573  2.0316
   6623SM  H12G 8594   3.002   1.921   5.629 -0.1937 -0.6714 -1.5283
   6623SM  C13F 8595   3.123   1.755   5.583 -0.0189 -0.1811 -0.0401
   6623SM  H13F 8596   3.038   1.698   5.541 -0.1987  1.5174 -2.1223
   6623SM  H13G 8597   3.187   1.687   5.644 -1.1482 -2.2148 -1.0272
   6623SM  C14F 8598   3.193   1.815   5.458 -0.3588 -0.1509  0.5535
   6623SM  H14F 8599   3.267   1.893   5.487  0.5120  0.3058 -2.5496
   6623SM  H14G 8600   3.124   1.872   5.391 -1.0351 -1.6022 -0.0173
   6623SM  C15F 8601   3.278   1.713   5.383  0.9930 -0.2133  0.2782
   6623SM  H15F 8602   3.333   1.649   5.455  0.7095 -1.3396 -0.4850
   6623SM  H15G 8603   3.358   1.761   5.322 -0.6864  0.8855 -1.1324
   6623SM  C16F 8604   3.203   1.600   5.308  0.2174  0.0930 -0.0512
   6623SM  H16F 8605   3.146   1.552   5.389  0.3201 -2.0373 -1.1844
   6623SM  H16G 8606   3.274   1.530   5.260  2.3095  1.7225  0.4688
   6623SM  C17F 8607   3.100   1.641   5.195 -0.2143 -0.0820 -0.1666
   6623SM  H17F 8608   3.039   1.722   5.241 -1.0937 -0.7186 -0.1834
   6623SM  H17G 8609   3.025   1.559   5.187 -0.8517  0.4998 -0.3258
   6623SM  C18F 8610   3.163   1.689   5.074  0.0765  0.3516 -0.8617
   6623SM  H18F 8611   3.242   1.616   5.044  1.2183  1.1958  0.0044
   6623SM  H18G 8612   3.214   1.788   5.080 -2.5870  1.8106 -0.9101
   6623SM  C19F 8613   3.062   1.714   4.958 -0.2481 -0.5958 -0.4665
   6623SM  H19F 8614   2.991   1.791   4.995  0.8187 -0.5921  1.7275
   6623SM  H19G 8615   3.011   1.623   4.919  1.0069 -0.1508 -3.4102
   6623SM  C20F 8616   3.136   1.766   4.836 -0.9748 -0.2562  0.2127
   6623SM  H20F 8617   3.212   1.697   4.793 -1.0921 -0.8315  0.9043
   6623SM  H20G 8618   3.197   1.853   4.868 -1.9266 -0.2939  2.2970
   6623SM  C21F 8619   3.037   1.803   4.726  0.1279 -0.3289  0.1024
   6623SM  H21F 8620   2.948   1.858   4.764 -1.5851 -1.5643 -1.8897
   6623SM  H21G 8621   3.004   1.714   4.668 -0.2963 -0.6907  0.8798
   6623SM  C22F 8622   3.102   1.897   4.622 -0.7757  0.7362  0.4797
   6623SM  H22F 8623   3.210   1.873   4.607 -0.5618  0.6732  1.9748
   6623SM  H22G 8624   3.096   1.996   4.673 -0.5765  0.1209  1.7349
   6623SM  C23F 8625   3.029   1.909   4.493  1.3530 -0.1991 -0.1114
   6623SM  H23F 8626   3.020   1.811   4.443  1.0579 -1.2238  1.8502
   6623SM  H23G 8627   3.068   1.989   4.426 -0.0642  0.5990 -0.0472
   6623SM  H23H 8628   2.928   1.948   4.522  1.0278  0.0263 -1.4872
   6723SM     N 8629   3.520   6.896   7.408 -0.0027 -0.3591  0.3666
   6723SM   C15 8630   3.425   6.983   7.497  0.3606  0.0920 -0.4206
   6723SM  H15A 8631   3.481   7.037   7.572 -0.6581 -0.1087  0.5276
   6723SM  H15B 8632   3.352   6.921   7.548  0.2807  1.0884  0.7247
   6723SM  H15C 8633   3.367   7.045   7.432 -0.7420 -0.0442  0.3996
   6723SM   C14 8634   3.594   6.986   7.319 -0.2202 -0.4667 -0.3813
   6723SM  H14A 8635   3.659   7.042   7.385 -3.1730  1.7995  0.8147
   6723SM  H14B 8636   3.541   7.060   7.261 -0.1405  0.9447  1.2733
   6723SM  H14C 8637   3.656   6.937   7.246 -0.7133  1.5315 -2.2212
   6723SM   C13 8638   3.619   6.825   7.487 -0.3880  0.3505  0.0551
   6723SM  H13A 8639   3.681   6.893   7.543  2.1921 -2.4451  0.8539
   6723SM  H13B 8640   3.681   6.765   7.423  0.5558  0.3151  0.9672
   6723SM  H13C 8641   3.569   6.756   7.553  0.2970 -0.6193 -0.4180
   6723SM   C12 8642   3.442   6.807   7.322 -0.1524  0.8198 -0.0220
   6723SM  H12A 8643   3.417   6.726   7.388  0.7476  0.2200 -0.3857
   6723SM  H12B 8644   3.506   6.758   7.249 -1.1022 -2.0065  0.9087
   6723SM   C11 8645   3.313   6.849   7.243  0.1304 -0.3259 -0.0956
   6723SM  H11A 8646   3.286   6.768   7.172 -0.1755 -1.0400  0.8191
   6723SM  H11B 8647   3.332   6.942   7.184  0.0389  1.4728  2.5337
   6723SM     P 8648   3.130   6.757   7.407  0.0636  0.1631 -0.0441
   6723SM   O13 8649   3.216   6.693   7.510  0.0753 -0.0718  0.0471
   6723SM   O14 8650   3.010   6.820   7.470 -0.7534  0.2655  0.5806
   6723SM   O11 8651   3.098   6.652   7.298 -0.5110  0.4964  0.7159
   6723SM   O12 8652   3.205   6.877   7.333  0.0609 -0.0925 -0.1665
   6723SM   C1S 8653   2.987   6.698   7.202 -0.0313  0.2811 -0.0820
   6723SM   H1S 8654   2.979   6.809   7.199  1.0591  0.4654  1.8295
   6723SM   H1T 8655   2.889   6.662   7.240 -0.7903  2.2466 -0.0691
   6723SM    NF 8656   2.912   6.694   6.961 -0.3280  0.0069  0.2309
   6723SM   HNF 8657   2.836   6.631   6.948  0.4768 -1.2119  1.1302
   6723SM   C2S 8658   3.005   6.642   7.058 -0.2919  0.7166  1.2498
   6723SM   H2S 8659   3.106   6.670   7.021 -0.6317  0.0005 -0.3112
   6723SM   C3S 8660   2.992   6.485   7.072 -0.2167 -0.7461  0.0992
   6723SM   H3S 8661   2.891   6.450   7.100  0.1538 -2.8638 -0.9817
   6723SM    O3 8662   3.088   6.428   7.161 -0.7248 -0.6225  0.2559
   6723SM   HO3 8663   3.118   6.509   7.203 -1.2967 -0.3729  0.1898
   6723SM   C4S 8664   3.020   6.423   6.940  0.6405 -0.0955 -0.4775
   6723SM   H4S 8665   3.096   6.464   6.872  0.5613 -1.0342 -1.1631
   6723SM   C5S 8666   2.959   6.311   6.900 -0.0785  0.4678  0.3510
   6723SM   H5S 8667   2.888   6.250   6.958 -0.1582 -0.5211 -0.7393
   6723SM   C6S 8668   2.985   6.242   6.770 -0.1890 -0.3980  0.0018
   6723SM   H6S 8669   2.896   6.270   6.710 -0.1943  2.8542  1.3485
   6723SM   H6T 8670   2.990   6.132   6.783 -0.8408 -0.5520 -0.9728
   6723SM   C7S 8671   3.099   6.288   6.676 -0.3566 -0.3448  0.0525
   6723SM   H7S 8672   3.197   6.272   6.726  0.9343  0.1540 -2.1709
   6723SM   H7T 8673   3.077   6.390   6.639 -1.5767  0.1261  1.8959
   6723SM   C8S 8674   3.100   6.210   6.542  0.0556 -0.1925 -0.0904
   6723SM   H8S 8675   3.001   6.223   6.493 -0.8216  0.9543  1.8862
   6723SM   H8T 8676   3.102   6.101   6.565  3.1510 -0.1155  0.3780
   6723SM   C9S 8677   3.218   6.241   6.453  0.6058 -0.5130  0.7118
   6723SM   H9S 8678   3.311   6.217   6.510  1.2257 -0.8513 -0.4209
   6723SM   H9T 8679   3.219   6.350   6.430  0.6818 -0.9507 -1.5685
   6723SM  C10S 8680   3.198   6.183   6.310 -0.1681  0.9749 -0.7744
   6723SM  H10S 8681   3.196   6.072   6.319  1.7042  1.0688  2.5013
   6723SM  H10T 8682   3.293   6.202   6.255 -0.9900 -0.6413 -2.8960
   6723SM  C11S 8683   3.070   6.225   6.239 -0.1337  0.3705  0.2692
   6723SM  H11S 8684   3.059   6.333   6.219  0.7141  0.1618 -1.4794
   6723SM  H11T 8685   2.983   6.206   6.305 -1.4438  0.9645 -1.2365
   6723SM  C12S 8686   3.039   6.138   6.116 -0.1264 -0.2413 -0.0366
   6723SM  H12S 8687   2.936   6.159   6.082 -0.2832 -2.4396 -1.1120
   6723SM  H12T 8688   3.027   6.033   6.153 -0.7896 -0.3335 -0.5017
   6723SM  C13S 8689   3.153   6.139   6.011  0.7830  0.8539 -0.0753
   6723SM  H13S 8690   3.241   6.090   6.057 -0.9385 -2.1166  0.3186
   6723SM  H13T 8691   3.184   6.239   5.974  1.9582  0.4052 -0.3386
   6723SM  C14S 8692   3.106   6.054   5.888  0.7645 -0.9059 -0.5808
   6723SM  H14S 8693   3.000   6.081   5.867  1.1255  0.1167 -1.1770
   6723SM  H14T 8694   3.113   5.947   5.916  0.9940 -0.2753  1.9566
   6723SM  C15S 8695   3.186   6.068   5.756  0.0242 -0.7795 -0.0641
   6723SM  H15S 8696   3.285   6.032   5.790 -0.6941 -0.8020  2.1936
   6723SM  H15T 8697   3.206   6.176   5.739 -0.5801 -0.3781  1.5182
   6723SM  C16S 8698   3.143   5.983   5.640  0.9251 -0.0546  0.2502
   6723SM  H16S 8699   3.043   6.022   5.609  1.2176  0.8668  0.4379
   6723SM  H16T 8700   3.107   5.880   5.664 -4.0420  1.3337 -0.1339
   6723SM  C17S 8701   3.239   5.984   5.525 -0.5051  0.1468  0.5712
   6723SM  H17S 8702   3.330   5.926   5.551  0.8201  0.6235 -2.5131
   6723SM  H17T 8703   3.259   6.088   5.491  0.2942 -0.3793 -0.6650
   6723SM  C18S 8704   3.190   5.908   5.397  1.0721 -0.0406  0.1348
   6723SM  H18S 8705   3.185   5.799   5.420  0.7178 -0.4104 -1.5420
   6723SM  H18T 8706   3.258   5.920   5.310 -1.7045  1.2997 -2.0284
   6723SM  H18U 8707   3.092   5.953   5.370  0.7941 -0.0369  1.1305
   6723SM   C1F 8708   2.939   6.808   6.907 -0.4449 -0.0465 -0.1248
   6723SM    OF 8709   3.042   6.870   6.932 -0.0289  0.1558  0.0105
   6723SM   C2F 8710   2.827   6.869   6.836 -0.5875  0.1904  0.4177
   6723SM   H2F 8711   2.819   6.976   6.866 -1.6558  0.0200  0.7858
   6723SM   H2G 8712   2.729   6.825   6.864 -0.4541 -1.5743 -1.6398
   6723SM   C3F 8713   2.855   6.861   6.678  0.2076  0.2672  0.1000
   6723SM   H3F 8714   2.867   6.752   6.662  1.2785  0.1769  1.2756
   6723SM   H3G 8715   2.946   6.925   6.671 -0.7882  1.9620  1.8610
   6723SM   C4F 8716   2.747   6.913   6.582 -0.5054 -0.2358  0.3542
   6723SM   H4F 8717   2.720   7.014   6.619  1.2825  0.3383  0.1887
   6723SM   H4G 8718   2.651   6.862   6.604  1.2783 -3.1292  2.1829
   6723SM   C5F 8719   2.789   6.909   6.441 -0.5184  0.3895 -0.4153
   6723SM   H5F 8720   2.889   6.956   6.432 -0.3449  0.3854  1.1862
   6723SM   H5G 8721   2.714   6.962   6.379 -1.1860  0.4011  0.3727
   6723SM   C6F 8722   2.795   6.772   6.376 -0.4545 -0.6351 -0.2716
   6723SM   H6F 8723   2.699   6.717   6.376 -0.1951 -1.1193  0.8754
   6723SM   H6G 8724   2.870   6.716   6.435 -1.3278  1.1346  2.6894
   6723SM   C7F 8725   2.837   6.784   6.231  0.1340 -0.2154  0.5709
   6723SM   H7F 8726   2.927   6.849   6.225  0.9378 -1.2959  0.7017
   6723SM   H7G 8727   2.764   6.832   6.162  0.4931 -0.4736 -0.0018
   6723SM   C8F 8728   2.877   6.646   6.177 -0.0503 -0.1830 -0.0717
   6723SM   H8F 8729   2.788   6.578   6.177  1.3852 -2.2430 -2.4291
   6723SM   H8G 8730   2.963   6.620   6.241  0.9243  3.1758  0.1326
   6723SM   C9F 8731   2.912   6.646   6.029  0.3384  0.8253 -0.3628
   6723SM   H9F 8732   3.004   6.705   6.010  0.3442  1.5960  1.7797
   6723SM   H9G 8733   2.824   6.692   5.978 -0.0182  0.9395  0.3348
   6723SM  C10F 8734   2.926   6.500   5.983  0.8045 -0.5027  0.1048
   6723SM  H10F 8735   2.824   6.457   5.994  0.8853 -0.4590  1.1092
   6723SM  H10G 8736   3.001   6.441   6.040  2.9206  0.9529 -1.0520
   6723SM  C11F 8737   2.944   6.486   5.829 -0.4271  0.5054  0.8386
   6723SM  H11F 8738   2.884   6.564   5.778 -1.9943 -2.4404 -2.2445
   6723SM  H11G 8739   2.902   6.391   5.789 -1.7308 -0.0347  3.2999
   6723SM  C12F 8740   3.092   6.486   5.779  0.3282 -0.2454 -0.3346
   6723SM  H12F 8741   3.147   6.416   5.845 -1.6592 -1.0666  0.5481
   6723SM  H12G 8742   3.137   6.583   5.806  2.7798 -1.5694  0.5743
   6723SM  C13F 8743   3.113   6.456   5.632  0.4098 -0.0178  0.5132
   6723SM  H13F 8744   3.082   6.532   5.556 -0.2843 -1.2908 -0.5187
   6723SM  H13G 8745   3.059   6.365   5.599  2.3870 -0.9471 -0.3271
   6723SM  C14F 8746   3.259   6.434   5.608  0.1183 -0.5876 -0.5988
   6723SM  H14F 8747   3.288   6.342   5.663 -0.3667 -2.8248 -3.7885
   6723SM  H14G 8748   3.301   6.530   5.646 -0.5909 -0.1010 -1.0294
   6723SM  C15F 8749   3.285   6.413   5.467 -0.5934  0.2897  0.5605
   6723SM  H15F 8750   3.251   6.493   5.397  2.5917  0.6187 -0.7995
   6723SM  H15G 8751   3.225   6.324   5.439  0.1209  0.2960 -1.1488
   6723SM  C16F 8752   3.428   6.386   5.432 -0.0912 -0.1963  0.0117
   6723SM  H16F 8753   3.452   6.290   5.482 -0.8483 -1.2934 -1.6475
   6723SM  H16G 8754   3.502   6.463   5.462  0.3032 -0.9815  1.0949
   6723SM  C17F 8755   3.448   6.357   5.285  0.1556  0.2397 -0.6182
   6723SM  H17F 8756   3.402   6.432   5.217  1.1853  0.9128 -0.6041
   6723SM  H17G 8757   3.393   6.261   5.281  1.2689 -0.6199  2.1624
   6723SM  C18F 8758   3.594   6.327   5.259 -0.0812 -0.1119 -0.1499
   6723SM  H18F 8759   3.620   6.245   5.330  0.8125  0.3092  0.0272
   6723SM  H18G 8760   3.654   6.415   5.292 -0.9007  0.5477 -0.3783
   6723SM  C19F 8761   3.634   6.285   5.115 -0.1862 -0.3298 -0.0336
   6723SM  H19F 8762   3.611   6.374   5.053  0.0910  0.1866  0.5995
   6723SM  H19G 8763   3.564   6.204   5.083 -0.0553 -0.4943  0.0904
   6723SM  C20F 8764   3.774   6.227   5.092  0.7745 -0.2455 -0.2158
   6723SM  H20F 8765   3.851   6.304   5.112  1.0586  0.3145 -3.1130
   6723SM  H20G 8766   3.785   6.205   4.984 -0.6845  1.4791 -0.7541
   6723SM  C21F 8767   3.804   6.100   5.169  0.6533  0.1460 -0.5159
   6723SM  H21F 8768   3.785   6.114   5.277  1.6784 -0.7241 -0.2064
   6723SM  H21G 8769   3.910   6.074   5.147  0.6198  0.0834 -0.6035
   6723SM  C22F 8770   3.712   5.983   5.124 -0.3733  0.2078  0.6959
   6723SM  H22F 8771   3.713   5.969   5.013 -0.0571 -1.2092  0.8617
   6723SM  H22G 8772   3.607   6.002   5.157 -1.4918  0.4417 -2.6114
   6723SM  C23F 8773   3.770   5.853   5.180 -0.4477 -0.0314  0.3047
   6723SM  H23F 8774   3.873   5.831   5.144 -1.0249  1.2069 -2.4170
   6723SM  H23G 8775   3.702   5.766   5.171  2.4805 -2.6235  1.5209
   6723SM  H23H 8776   3.778   5.865   5.290  3.9843 -1.7127  0.3788
   6823SM     N 8777   3.221   2.140   7.799  0.3889 -0.1746  0.3920
   6823SM   C15 8778   3.184   2.285   7.836 -0.5145 -0.5611  0.9088
   6823SM  H15A 8779   3.119   2.325   7.760 -0.5489 -1.3715  0.5003
   6823SM  H15B 8780   3.272   2.348   7.838 -0.0920 -1.1474  1.3914
   6823SM  H15C 8781   3.132   2.289   7.930 -1.3364  2.5437  0.4315
   6823SM   C14 8782   3.338   2.103   7.891  0.1691  0.3570  0.3229
   6823SM  H14A 8783   3.301   2.087   7.992 -1.0374 -0.2270 -0.1913
   6823SM  H14B 8784   3.408   2.183   7.907  1.7698 -1.4590  3.4705
   6823SM  H14C 8785   3.392   2.018   7.851 -2.7016 -0.9627 -1.0381
   6823SM   C13 8786   3.101   2.059   7.832 -0.6578 -0.0387 -0.2383
   6823SM  H13A 8787   3.115   1.957   7.798  0.2594  0.0136 -0.0596
   6823SM  H13B 8788   3.018   2.097   7.775 -1.9480  0.0155  1.6055
   6823SM  H13C 8789   3.091   2.072   7.938  1.8385  0.9188 -0.0549
   6823SM   C12 8790   3.258   2.124   7.653  0.6154 -0.1923 -0.2180
   6823SM  H12A 8791   3.280   2.021   7.629 -1.5137 -1.5222  2.7739
   6823SM  H12B 8792   3.349   2.179   7.635  1.1827 -0.5600  1.3771
   6823SM   C11 8793   3.153   2.197   7.555 -0.2829 -0.8616  0.5330
   6823SM  H11A 8794   3.170   2.164   7.450  0.4208 -0.9214  0.6579
   6823SM  H11B 8795   3.182   2.305   7.552 -0.0770 -0.9056  0.8232
   6823SM     P 8796   2.912   2.290   7.553  0.5610  0.2582  0.0059
   6823SM   O13 8797   2.784   2.251   7.617 -0.2734 -0.1638  0.1640
   6823SM   O14 8798   2.962   2.425   7.583 -0.8620  0.1336 -0.0890
   6823SM   O11 8799   2.903   2.289   7.395  1.0627 -0.0408  0.0783
   6823SM   O12 8800   3.018   2.179   7.584  0.2930  0.0441 -0.1466
   6823SM   C1S 8801   2.889   2.158   7.338 -0.2437  0.2253  0.5699
   6823SM   H1S 8802   2.783   2.125   7.343 -0.9115  1.8540 -1.2780
   6823SM   H1T 8803   2.961   2.084   7.377 -1.0142  0.6854  3.0056
   6823SM    NF 8804   2.845   2.040   7.123 -0.4909  0.0830  0.5382
   6823SM   HNF 8805   2.884   1.949   7.118 -0.3039  0.2238 -0.7662
   6823SM   C2S 8806   2.913   2.152   7.180 -0.3599 -0.7319  0.2134
   6823SM   H2S 8807   2.872   2.245   7.136 -0.6115 -0.7942  0.3134
   6823SM   C3S 8808   3.072   2.149   7.150  0.1542 -0.1792  0.4644
   6823SM   H3S 8809   3.122   2.061   7.196  0.1488  0.3064  1.4277
   6823SM    O3 8810   3.127   2.261   7.219 -0.0965  0.4462  0.3682
   6823SM   HO3 8811   3.054   2.293   7.272  0.1343 -1.3561  1.8932
   6823SM   C4S 8812   3.109   2.162   7.004  0.3859  0.0942  0.2712
   6823SM   H4S 8813   3.127   2.265   6.971  2.0141 -0.4399 -0.6104
   6823SM   C5S 8814   3.120   2.061   6.917  0.1107 -0.4579  0.5113
   6823SM   H5S 8815   3.092   1.959   6.947  1.3230 -0.4600  1.7427
   6823SM   C6S 8816   3.166   2.075   6.771  0.1207  0.3485 -0.2890
   6823SM   H6S 8817   3.262   2.021   6.760 -0.0564  0.0414 -0.3553
   6823SM   H6T 8818   3.187   2.181   6.749  0.8358  0.0623 -1.0047
   6823SM   C7S 8819   3.065   2.018   6.668 -0.3228  0.1791 -0.5894
   6823SM   H7S 8820   2.966   2.066   6.680 -1.1207 -1.8813  2.3937
   6823SM   H7T 8821   3.050   1.910   6.692  0.1224 -0.1383 -1.7006
   6823SM   C8S 8822   3.115   2.041   6.524 -0.3276  0.6519 -0.0931
   6823SM   H8S 8823   3.034   2.002   6.459  1.6692 -0.0850 -2.2537
   6823SM   H8T 8824   3.206   1.984   6.498  0.9692  2.4498  0.2640
   6823SM   C9S 8825   3.143   2.184   6.479  0.2581  0.4711 -0.5828
   6823SM   H9S 8826   3.243   2.204   6.522  1.0971  0.5066 -2.4512
   6823SM   H9T 8827   3.060   2.247   6.517 -0.4481 -0.7285 -0.0856
   6823SM  C10S 8828   3.148   2.201   6.322  0.3854 -0.0866 -0.2477
   6823SM  H10S 8829   3.117   2.303   6.291  3.2276  0.4349 -1.6720
   6823SM  H10T 8830   3.082   2.125   6.274  1.0973 -0.4054 -0.7338
   6823SM  C11S 8831   3.291   2.186   6.270  0.7739  0.4752  0.2772
   6823SM  H11S 8832   3.345   2.115   6.337 -0.6348 -1.6575 -0.7433
   6823SM  H11T 8833   3.336   2.286   6.281  0.4540  0.7294 -0.6811
   6823SM  C12S 8834   3.313   2.126   6.132 -0.4885  0.1638 -0.1881
   6823SM  H12S 8835   3.287   2.018   6.132 -0.2632  0.0961  0.7706
   6823SM  H12T 8836   3.420   2.138   6.107 -1.0210  2.7480 -1.5646
   6823SM  C13S 8837   3.239   2.211   6.028 -0.1020 -0.3594  0.4946
   6823SM  H13S 8838   3.262   2.319   6.034 -1.9571  0.0395  1.1008
   6823SM  H13T 8839   3.129   2.200   6.038 -0.0085 -1.8763  0.1114
   6823SM  C14S 8840   3.276   2.174   5.880  0.2186  0.4596  0.0747
   6823SM  H14S 8841   3.294   2.067   5.853  0.7869  0.7831 -0.8602
   6823SM  H14T 8842   3.370   2.228   5.858 -1.1887  2.8063 -0.5866
   6823SM  C15S 8843   3.176   2.234   5.775 -0.2515  0.2080 -0.1735
   6823SM  H15S 8844   3.157   2.341   5.799  1.4238  0.9873 -1.9806
   6823SM  H15T 8845   3.079   2.183   5.788  0.0248  0.1480  1.9663
   6823SM  C16S 8846   3.224   2.224   5.630 -0.0785 -0.0190 -0.3472
   6823SM  H16S 8847   3.251   2.117   5.614 -1.3747 -0.2978 -0.7712
   6823SM  H16T 8848   3.320   2.279   5.630  1.0687 -1.8940  0.8459
   6823SM  C17S 8849   3.122   2.282   5.528 -0.2621  0.0130  0.6244
   6823SM  H17S 8850   3.031   2.217   5.530  1.7834 -3.1406 -0.3153
   6823SM  H17T 8851   3.153   2.277   5.421  3.0552 -2.8575  1.5274
   6823SM  C18S 8852   3.078   2.428   5.548  0.0412 -0.3303  0.0911
   6823SM  H18S 8853   3.173   2.486   5.543  1.1450 -1.5395  3.4645
   6823SM  H18T 8854   3.038   2.436   5.652  0.9116  1.4661  0.3265
   6823SM  H18U 8855   3.009   2.465   5.470  3.7449  0.0397 -3.3179
   6823SM   C1F 8856   2.711   2.043   7.094 -0.4390  0.5266  0.1528
   6823SM    OF 8857   2.642   2.145   7.089  0.0140 -0.0286 -0.0014
   6823SM   C2F 8858   2.652   1.906   7.078 -0.6310  0.2844  0.1141
   6823SM   H2F 8859   2.570   1.891   7.151  1.6120 -0.1239  2.7111
   6823SM   H2G 8860   2.726   1.825   7.096 -1.7001 -0.8002 -0.2448
   6823SM   C3F 8861   2.589   1.889   6.934 -0.6135 -0.0909  0.1444
   6823SM   H3F 8862   2.550   1.988   6.899 -0.4976 -0.0878  0.0240
   6823SM   H3G 8863   2.503   1.818   6.940 -0.2029 -0.5188  1.0789
   6823SM   C4F 8864   2.706   1.841   6.839 -0.7478  0.1511  0.0538
   6823SM   H4F 8865   2.734   1.737   6.864  1.3840  0.4500 -0.8749
   6823SM   H4G 8866   2.795   1.905   6.858 -1.2443  1.2098 -1.0607
   6823SM   C5F 8867   2.677   1.873   6.692  0.1288  0.1476  0.8610
   6823SM   H5F 8868   2.692   1.978   6.660  0.0961 -0.0316  0.2381
   6823SM   H5G 8869   2.569   1.855   6.670  0.4554 -0.7508 -0.1025
   6823SM   C6F 8870   2.752   1.771   6.600 -0.0157  0.0824  0.6233
   6823SM   H6F 8871   2.695   1.676   6.606 -0.8599  0.6780  3.1113
   6823SM   H6G 8872   2.856   1.760   6.637 -0.0581 -0.0827  0.6922
   6823SM   C7F 8873   2.751   1.831   6.461 -0.5637  0.2880  0.1888
   6823SM   H7F 8874   2.836   1.901   6.444  0.2929 -1.0389 -1.2567
   6823SM   H7G 8875   2.669   1.906   6.457  0.0996  1.3739  3.7381
   6823SM   C8F 8876   2.740   1.732   6.348 -0.2322  0.2615  0.3383
   6823SM   H8F 8877   2.650   1.667   6.359 -0.7604  0.4563 -2.0734
   6823SM   H8G 8878   2.820   1.656   6.351 -0.7679 -0.2774  1.6120
   6823SM   C9F 8879   2.725   1.790   6.208  0.2011 -0.8124  0.5511
   6823SM   H9F 8880   2.813   1.846   6.169 -0.5052 -0.2376 -0.2434
   6823SM   H9G 8881   2.643   1.865   6.211  1.1307  0.5342 -2.8706
   6823SM  C10F 8882   2.695   1.686   6.103  0.1658  0.5389 -0.4565
   6823SM  H10F 8883   2.593   1.646   6.117  1.0052 -1.2659  1.0444
   6823SM  H10G 8884   2.772   1.606   6.105 -0.9197 -0.5208  0.7657
   6823SM  C11F 8885   2.694   1.756   5.967 -0.6173  0.1782  0.0396
   6823SM  H11F 8886   2.798   1.774   5.931 -0.7919  2.2330  0.4398
   6823SM  H11G 8887   2.644   1.855   5.967  0.7886  0.9031  0.0505
   6823SM  C12F 8888   2.631   1.667   5.860  0.3021 -0.0306  0.1473
   6823SM  H12F 8889   2.522   1.651   5.873  0.4175 -0.8132  0.1998
   6823SM  H12G 8890   2.677   1.568   5.881 -1.6037 -0.7451  1.1197
   6823SM  C13F 8891   2.658   1.717   5.717  0.7068  0.4470  0.6467
   6823SM  H13F 8892   2.766   1.737   5.704  0.5324  0.6328 -0.6625
   6823SM  H13G 8893   2.614   1.819   5.708  1.3771  0.5761 -1.7707
   6823SM  C14F 8894   2.613   1.623   5.602  0.3448  0.1782  0.1859
   6823SM  H14F 8895   2.502   1.616   5.606  0.3898 -0.0987  1.5602
   6823SM  H14G 8896   2.661   1.524   5.618  2.1560  0.5102 -2.4384
   6823SM  C15F 8897   2.656   1.686   5.471 -0.7426 -0.2040 -0.0276
   6823SM  H15F 8898   2.766   1.704   5.471 -0.6340 -0.2482 -3.4226
   6823SM  H15G 8899   2.612   1.787   5.457  0.0437  0.2695  0.8179
   6823SM  C16F 8900   2.630   1.603   5.345  0.7906  0.0172  0.0220
   6823SM  H16F 8901   2.519   1.601   5.336  0.7141 -1.0371  0.9064
   6823SM  H16G 8902   2.669   1.501   5.363  1.8737 -0.0763 -2.4907
   6823SM  C17F 8903   2.695   1.640   5.216 -0.4743  0.4331  0.8574
   6823SM  H17F 8904   2.806   1.630   5.219 -0.4352  0.6116  0.2111
   6823SM  H17G 8905   2.669   1.746   5.191 -1.5108 -0.3652 -1.8287
   6823SM  C18F 8906   2.649   1.553   5.091  0.0341 -0.2323 -0.8844
   6823SM  H18F 8907   2.706   1.458   5.096  0.2397 -0.1191  3.6851
   6823SM  H18G 8908   2.691   1.619   5.013  2.3879  0.7540  1.0743
   6823SM  C19F 8909   2.495   1.526   5.076 -0.7501  0.0030 -0.0643
   6823SM  H19F 8910   2.441   1.613   5.118 -0.3010 -0.1020  0.7492
   6823SM  H19G 8911   2.483   1.436   5.140 -1.7356  0.7277  0.8051
   6823SM  C20F 8912   2.466   1.495   4.934  0.3362 -0.4356 -0.1422
   6823SM  H20F 8913   2.556   1.442   4.897  2.4636  2.9464 -0.3099
   6823SM  H20G 8914   2.455   1.584   4.868 -1.6192  0.2338  0.9720
   6823SM  C21F 8915   2.342   1.402   4.921 -0.0864  0.2972 -0.1828
   6823SM  H21F 8916   2.365   1.311   4.981  0.1784 -0.1852 -1.0061
   6823SM  H21G 8917   2.340   1.361   4.818  0.9631 -0.0133 -0.0867
   6823SM  C22F 8918   2.218   1.452   4.989 -0.3675 -0.8195  0.4152
   6823SM  H22F 8919   2.190   1.553   4.954  0.2338 -1.2408 -1.3982
   6823SM  H22G 8920   2.231   1.457   5.099 -2.7995 -1.3256  0.7720
   6823SM  C23F 8921   2.097   1.359   4.967  1.3060 -0.1126  0.4914
   6823SM  H23F 8922   2.112   1.253   4.998 -1.6242 -1.1535 -1.3408
   6823SM  H23G 8923   2.053   1.358   4.866  0.4310 -0.0193  0.8656
   6823SM  H23H 8924   2.014   1.396   5.031 -1.0390 -0.5059 -2.1511
   6923SM     N 8925   4.299   3.227   7.821  0.5832  0.4325  0.3530
   6923SM   C15 8926   4.185   3.130   7.853 -0.6649  0.0733  0.7548
   6923SM  H15A 8927   4.144   3.142   7.952  3.3255  1.4912  2.4490
   6923SM  H15B 8928   4.223   3.030   7.844 -0.2502  0.1872  1.1987
   6923SM  H15C 8929   4.106   3.145   7.780 -2.3937 -0.5810  2.4107
   6923SM   C14 8930   4.243   3.361   7.837 -0.3781 -0.5384  0.1172
   6923SM  H14A 8931   4.183   3.367   7.927  0.0665  1.5784  0.3268
   6923SM  H14B 8932   4.183   3.398   7.755  1.6221  0.9623 -0.7473
   6923SM  H14C 8933   4.326   3.430   7.839  1.4946 -2.6499 -0.6121
   6923SM   C13 8934   4.401   3.217   7.925 -0.1854 -0.0910 -0.2184
   6923SM  H13A 8935   4.441   3.117   7.934 -2.2113 -0.9569 -0.2833
   6923SM  H13B 8936   4.368   3.243   8.024  0.3636  1.3678 -0.3842
   6923SM  H13C 8937   4.479   3.289   7.906 -0.9074  0.2060 -2.3340
   6923SM   C12 8938   4.350   3.195   7.683  0.3011 -0.2065 -0.5823
   6923SM  H12A 8939   4.268   3.217   7.616 -0.4998 -0.7459  0.2003
   6923SM  H12B 8940   4.371   3.089   7.671 -1.4627 -0.8143  1.0584
   6923SM   C11 8941   4.479   3.263   7.634 -0.4221  0.6472 -0.2055
   6923SM  H11A 8942   4.484   3.217   7.533  0.6131 -0.6832  0.4290
   6923SM  H11B 8943   4.552   3.219   7.704 -0.7577 -0.5846 -0.6101
   6923SM     P 8944   4.400   3.475   7.513 -0.0415  0.3025 -0.2259
   6923SM   O13 8945   4.324   3.589   7.578 -0.0641 -0.1841 -0.2680
   6923SM   O14 8946   4.486   3.503   7.392  0.5930 -0.4323 -0.0923
   6923SM   O11 8947   4.297   3.369   7.468 -0.1426 -0.3956  0.1444
   6923SM   O12 8948   4.477   3.406   7.633 -0.2208  0.0914  0.5575
   6923SM   C1S 8949   4.192   3.390   7.373 -0.6430  0.4331 -0.5727
   6923SM   H1S 8950   4.158   3.496   7.367  0.3523  0.8371  0.5533
   6923SM   H1T 8951   4.105   3.328   7.403 -0.9981  0.5418 -1.3424
   6923SM    NF 8952   4.134   3.400   7.132  0.5220  0.0835  0.3038
   6923SM   HNF 8953   4.061   3.340   7.100  1.0520 -0.1069 -0.5813
   6923SM   C2S 8954   4.230   3.350   7.231 -0.2354  1.1440  0.6289
   6923SM   H2S 8955   4.336   3.378   7.215  0.2609 -1.4603 -1.2518
   6923SM   C3S 8956   4.230   3.193   7.226  0.5811 -0.7603 -0.9722
   6923SM   H3S 8957   4.127   3.154   7.242  0.6705 -0.0206  2.0739
   6923SM    O3 8958   4.303   3.127   7.335 -0.2006 -0.3168  0.0971
   6923SM   HO3 8959   4.321   3.193   7.401  0.1190 -0.6061  0.3032
   6923SM   C4S 8960   4.289   3.150   7.096 -0.0458  0.3030  0.0128
   6923SM   H4S 8961   4.390   3.191   7.085 -0.7908  1.7010 -2.2221
   6923SM   C5S 8962   4.230   3.081   6.998  0.0507 -0.3232  0.7410
   6923SM   H5S 8963   4.121   3.063   6.996  0.0343 -0.2259  0.7704
   6923SM   C6S 8964   4.292   3.038   6.874 -0.3113 -0.6328  0.7188
   6923SM   H6S 8965   4.322   2.932   6.889 -0.2829 -0.4555  2.0673
   6923SM   H6T 8966   4.385   3.095   6.852 -0.0285 -0.6010  1.9025
   6923SM   C7S 8967   4.212   3.049   6.748  0.1207 -0.4761  0.5317
   6923SM   H7S 8968   4.286   3.034   6.667  0.1306  0.8032  0.2808
   6923SM   H7T 8969   4.187   3.157   6.740  2.0221  0.0638  1.1668
   6923SM   C8S 8970   4.104   2.943   6.741  0.4467  0.0523  0.9369
   6923SM   H8S 8971   4.022   2.948   6.816  0.9035 -3.2601  1.8018
   6923SM   H8T 8972   4.161   2.851   6.766 -0.8677 -0.8548  0.7018
   6923SM   C9S 8973   4.028   2.937   6.599 -0.8478  0.8230 -0.8558
   6923SM   H9S 8974   3.948   2.865   6.625  1.9893 -1.9388  0.8195
   6923SM   H9T 8975   4.107   2.905   6.527 -1.4563  0.0185 -1.1764
   6923SM  C10S 8976   3.977   3.070   6.555  0.9959 -0.2278  0.3694
   6923SM  H10S 8977   3.924   3.073   6.458  1.5137  0.7140  0.1059
   6923SM  H10T 8978   4.071   3.126   6.535  0.7094  0.1009 -0.0546
   6923SM  C11S 8979   3.874   3.144   6.657 -0.0668  0.2266 -0.0440
   6923SM  H11S 8980   3.932   3.189   6.740  1.8366 -2.6200  0.3090
   6923SM  H11T 8981   3.809   3.060   6.690 -0.4075  0.6455  0.3485
   6923SM  C12S 8982   3.788   3.249   6.597 -0.3169  0.1716  0.5684
   6923SM  H12S 8983   3.706   3.276   6.666 -1.2708  0.3090 -0.5763
   6923SM  H12T 8984   3.731   3.222   6.506 -2.1252  0.4367  1.5750
   6923SM  C13S 8985   3.867   3.377   6.568  0.2635 -0.8303  0.4165
   6923SM  H13S 8986   3.962   3.350   6.519  1.4704  2.6527  0.5916
   6923SM  H13T 8987   3.904   3.417   6.665 -1.4807 -1.4737  1.3940
   6923SM  C14S 8988   3.796   3.494   6.497  0.4623 -0.5457  0.3309
   6923SM  H14S 8989   3.776   3.575   6.571 -1.7681  0.5610 -1.3472
   6923SM  H14T 8990   3.691   3.462   6.486  0.1541  1.0758 -2.2821
   6923SM  C15S 8991   3.845   3.536   6.359 -0.4017  0.7870  0.2123
   6923SM  H15S 8992   3.952   3.568   6.362 -0.1607 -0.0869  1.3069
   6923SM  H15T 8993   3.782   3.617   6.316  0.7266  0.4441 -2.2716
   6923SM  C16S 8994   3.827   3.424   6.256 -1.1642 -0.7035 -0.1073
   6923SM  H16S 8995   3.717   3.412   6.254 -1.0568 -1.8301 -0.1852
   6923SM  H16T 8996   3.878   3.331   6.289 -0.4387 -0.4945 -0.6109
   6923SM  C17S 8997   3.876   3.462   6.115  0.1322 -0.5925  0.2279
   6923SM  H17S 8998   3.844   3.567   6.098  0.7486 -0.0976  1.9356
   6923SM  H17T 8999   3.821   3.403   6.038 -1.5619 -0.5525  1.3457
   6923SM  C18S 9000   4.021   3.436   6.083 -0.2888  0.3960 -0.5330
   6923SM  H18S 9001   4.044   3.342   6.138 -1.1972  1.5312  1.9001
   6923SM  H18T 9002   4.095   3.513   6.113  0.0984 -0.1317 -0.1197
   6923SM  H18U 9003   4.040   3.431   5.973  0.6978  2.9290 -0.5484
   6923SM   C1F 9004   4.154   3.520   7.089 -0.7168  0.4896  0.4767
   6923SM    OF 9005   4.246   3.587   7.130  0.3973  0.3526  0.5648
   6923SM   C2F 9006   4.049   3.567   6.993 -0.2385 -0.3131 -0.0927
   6923SM   H2F 9007   3.973   3.622   7.053 -0.3107 -0.6134  0.0877
   6923SM   H2G 9008   3.992   3.485   6.947 -0.6512  0.2492 -0.5975
   6923SM   C3F 9009   4.115   3.673   6.886  1.2548  0.0231  0.6264
   6923SM   H3F 9010   4.200   3.619   6.840  1.6051 -2.5545  3.8858
   6923SM   H3G 9011   4.157   3.756   6.946  2.1975 -0.9958  1.4066
   6923SM   C4F 9012   3.998   3.717   6.794  0.3045 -0.6186 -0.2822
   6923SM   H4F 9013   3.929   3.765   6.866  0.8455  1.0132 -0.8065
   6923SM   H4G 9014   3.944   3.626   6.760  1.4609 -1.2746 -0.4387
   6923SM   C5F 9015   4.031   3.797   6.674  1.8340 -0.1284  0.8770
   6923SM   H5F 9016   4.087   3.741   6.595  2.4573 -0.0813  1.2770
   6923SM   H5G 9017   4.090   3.889   6.695 -1.4020  2.3178  0.0858
   6923SM   C6F 9018   3.902   3.853   6.600 -0.2402 -0.2983  0.2063
   6923SM   H6F 9019   3.855   3.937   6.656  0.8264  1.3922 -1.3384
   6923SM   H6G 9020   3.819   3.779   6.591 -0.6948  0.1836  0.4017
   6923SM   C7F 9021   3.925   3.901   6.459 -0.3477 -0.5233  0.4076
   6923SM   H7F 9022   3.953   3.820   6.388  0.4573  0.5091 -0.4687
   6923SM   H7G 9023   4.007   3.974   6.472  0.8163 -1.7848  0.4648
   6923SM   C8F 9024   3.801   3.973   6.404  0.2727  0.0504 -0.3048
   6923SM   H8F 9025   3.779   4.066   6.461 -1.8635 -1.1816  1.0040
   6923SM   H8G 9026   3.716   3.906   6.430 -0.3562  1.4163  1.3503
   6923SM   C9F 9027   3.793   4.000   6.259 -0.1010 -0.6789  0.1313
   6923SM   H9F 9028   3.689   4.023   6.225  1.2316  5.0113 -1.1224
   6923SM   H9G 9029   3.824   3.906   6.208 -0.3199 -1.4415  1.3467
   6923SM  C10F 9030   3.889   4.110   6.215 -0.0384 -0.3952 -0.4815
   6923SM  H10F 9031   3.989   4.085   6.255 -0.9673 -1.5985  1.2134
   6923SM  H10G 9032   3.850   4.203   6.261 -0.7344 -1.2880  0.8118
   6923SM  C11F 9033   3.901   4.119   6.061 -0.3415 -0.3165  0.1423
   6923SM  H11F 9034   3.947   4.219   6.040 -0.9809 -0.1927 -0.7445
   6923SM  H11G 9035   3.799   4.123   6.017 -0.9273 -1.8754  1.2627
   6923SM  C12F 9036   3.972   4.002   5.992  0.1242 -0.8541  0.5429
   6923SM  H12F 9037   3.906   3.913   5.996  0.9503 -1.5051 -0.0631
   6923SM  H12G 9038   4.069   3.979   6.041 -0.4674 -0.9739  1.6984
   6923SM  C13F 9039   3.982   4.025   5.842  0.2475 -0.3132  0.0076
   6923SM  H13F 9040   4.021   4.127   5.820 -3.6223  1.8667  2.1246
   6923SM  H13G 9041   3.883   4.032   5.792  0.3288 -0.0328 -0.1167
   6923SM  C14F 9042   4.068   3.914   5.786  0.1679  0.6260  0.1075
   6923SM  H14F 9043   4.021   3.818   5.814  0.1119  0.3167 -0.9790
   6923SM  H14G 9044   4.172   3.907   5.823  0.3969  0.1113 -0.6257
   6923SM  C15F 9045   4.078   3.906   5.629  0.1452  0.8786 -0.3616
   6923SM  H15F 9046   4.105   4.007   5.593  1.9701  0.2718 -0.8272
   6923SM  H15G 9047   3.978   3.875   5.592 -0.6822  2.5326  0.4034
   6923SM  C16F 9048   4.180   3.804   5.579  0.6797 -0.1842 -0.5598
   6923SM  H16F 9049   4.153   3.701   5.612 -1.3626  0.2040 -0.9092
   6923SM  H16G 9050   4.274   3.826   5.634 -0.1397  1.4050  0.2773
   6923SM  C17F 9051   4.205   3.820   5.429 -1.1993  0.0220  0.5582
   6923SM  H17F 9052   4.245   3.922   5.413  3.6724 -1.2589  2.7083
   6923SM  H17G 9053   4.115   3.803   5.365 -0.5808 -1.7332  0.1078
   6923SM  C18F 9054   4.303   3.719   5.377 -0.0762 -0.4736  0.0781
   6923SM  H18F 9055   4.289   3.709   5.267 -0.7259  0.2179  0.0929
   6923SM  H18G 9056   4.279   3.617   5.415  0.7608 -0.5104  0.5380
   6923SM  C19F 9057   4.454   3.734   5.411  0.0501  0.4081 -0.2979
   6923SM  H19F 9058   4.457   3.725   5.522  0.2501  0.4056 -0.3034
   6923SM  H19G 9059   4.484   3.840   5.393  0.1923  0.6684  1.2654
   6923SM  C20F 9060   4.540   3.638   5.333  0.0604  0.5356  0.0452
   6923SM  H20F 9061   4.506   3.650   5.227 -3.7564 -1.1199  0.9215
   6923SM  H20G 9062   4.512   3.537   5.368 -3.0880  1.4407  0.3828
   6923SM  C21F 9063   4.700   3.664   5.346 -0.8631 -0.7313 -0.6780
   6923SM  H21F 9064   4.727   3.667   5.453 -1.3372  0.4630 -0.5768
   6923SM  H21G 9065   4.728   3.759   5.296 -0.1597 -0.9976 -0.8046
   6923SM  C22F 9066   4.795   3.566   5.271  0.1894  0.1551  0.2073
   6923SM  H22F 9067   4.756   3.559   5.167  1.3266 -0.3272 -0.1985
   6923SM  H22G 9068   4.791   3.470   5.325 -0.9633 -0.1648 -0.4058
   6923SM  C23F 9069   4.942   3.616   5.264 -0.7087 -0.0479  1.1419
   6923SM  H23F 9070   4.998   3.543   5.203 -1.0283  0.2046  0.5425
   6923SM  H23G 9071   4.984   3.606   5.366  0.2993 -1.1984  0.6292
   6923SM  H23H 9072   4.962   3.718   5.223 -1.1608 -0.2382  0.4402
   7023SM     N 9073   3.997   1.851   7.680  0.1780  0.6218  0.2745
   7023SM   C15 9074   3.909   1.948   7.760 -0.7085 -0.3666  0.0624
   7023SM  H15A 9075   3.811   1.939   7.716  0.1803 -2.0942 -1.7240
   7023SM  H15B 9076   3.944   2.051   7.758  2.5732 -1.3173  1.5281
   7023SM  H15C 9077   3.913   1.911   7.861  2.7385 -2.3961 -0.6482
   7023SM   C14 9078   4.140   1.879   7.719 -0.1060 -0.0720  0.1528
   7023SM  H14A 9079   4.207   1.805   7.678  0.6837  0.3834  0.6001
   7023SM  H14B 9080   4.156   1.858   7.824  1.2301 -1.5230 -0.2976
   7023SM  H14C 9081   4.180   1.976   7.697  0.2408 -0.2976 -0.2311
   7023SM   C13 9082   3.965   1.706   7.728  0.0738 -0.6051 -0.1782
   7023SM  H13A 9083   3.989   1.708   7.833 -1.3125 -0.2738  0.1484
   7023SM  H13B 9084   4.019   1.639   7.664  0.5707  0.3670 -0.8063
   7023SM  H13C 9085   3.861   1.694   7.703 -0.2676  2.1606 -0.4026
   7023SM   C12 9086   3.971   1.862   7.532  0.1363  0.9802  0.4438
   7023SM  H12A 9087   3.970   1.965   7.501 -0.6761  0.5358 -1.0827
   7023SM  H12B 9088   3.880   1.812   7.502  1.5684 -1.0131 -0.8651
   7023SM   C11 9089   4.072   1.811   7.429  0.2040  0.5344  0.1940
   7023SM  H11A 9090   4.173   1.853   7.449 -0.1521  1.6520 -0.2834
   7023SM  H11B 9091   4.031   1.844   7.331  0.4833 -0.1953 -0.1832
   7023SM     P 9092   4.195   1.581   7.446  0.1716  0.0601  0.3011
   7023SM   O13 9093   4.277   1.615   7.562  0.0735  0.1052  0.2958
   7023SM   O14 9094   4.165   1.441   7.430  0.2550  0.3353  0.9335
   7023SM   O11 9095   4.278   1.626   7.320  0.1436  0.4130 -0.3768
   7023SM   O12 9096   4.064   1.668   7.437 -0.0994 -0.2390  0.0737
   7023SM   C1S 9097   4.240   1.603   7.184  0.7176  0.4118 -0.5326
   7023SM   H1S 9098   4.145   1.650   7.152  0.4240  0.4468  0.3622
   7023SM   H1T 9099   4.225   1.495   7.162  1.6705  0.0393  0.4817
   7023SM    NF 9100   4.306   1.713   6.966  0.0778  0.7693 -0.3015
   7023SM   HNF 9101   4.327   1.657   6.886 -1.7372 -2.1836  1.0944
   7023SM   C2S 9102   4.351   1.668   7.096  0.2580 -0.1949 -0.0485
   7023SM   H2S 9103   4.385   1.763   7.143  0.8078  1.3387 -3.2473
   7023SM   C3S 9104   4.464   1.567   7.096  0.1078  0.0431 -0.2740
   7023SM   H3S 9105   4.434   1.479   7.035 -1.4818  1.2420 -1.3144
   7023SM    O3 9106   4.489   1.503   7.227  0.1197  0.6315  0.8702
   7023SM   HO3 9107   4.404   1.518   7.270 -1.6652 -1.2030 -1.7258
   7023SM   C4S 9108   4.584   1.640   7.032 -0.5912  0.2133  0.2080
   7023SM   H4S 9109   4.599   1.618   6.925  0.4556  0.4427  0.3029
   7023SM   C5S 9110   4.667   1.730   7.088  0.9361 -0.5706  0.0176
   7023SM   H5S 9111   4.645   1.760   7.192  0.9808  0.7949 -0.3380
   7023SM   C6S 9112   4.776   1.805   7.014  0.4568  0.3065  0.0830
   7023SM   H6S 9113   4.795   1.765   6.913 -1.5127  1.9529 -1.0133
   7023SM   H6T 9114   4.865   1.785   7.078  1.2274  0.6390 -0.8814
   7023SM   C7S 9115   4.758   1.958   7.016 -0.0096 -0.1261  0.2922
   7023SM   H7S 9116   4.843   2.013   6.971 -1.3041  0.4717 -1.5268
   7023SM   H7T 9117   4.752   1.998   7.119 -1.7107  0.9360 -0.1841
   7023SM   C8S 9118   4.632   1.999   6.940 -0.2239  0.4623  0.2136
   7023SM   H8S 9119   4.629   2.109   6.954 -1.2220  0.9578 -2.9692
   7023SM   H8T 9120   4.541   1.945   6.974  0.9775 -1.0982  1.1185
   7023SM   C9S 9121   4.638   1.975   6.785  0.0129  0.0985  0.2077
   7023SM   H9S 9122   4.647   1.868   6.756  0.8546  0.5891 -1.5036
   7023SM   H9T 9123   4.725   2.030   6.742 -0.7787 -0.4546 -2.2498
   7023SM  C10S 9124   4.518   2.031   6.709  0.0451 -0.4078  0.4256
   7023SM  H10S 9125   4.505   2.132   6.751  1.5212  0.2172 -0.5358
   7023SM  H10T 9126   4.421   1.978   6.712 -0.7812  0.7059 -2.7080
   7023SM  C11S 9127   4.543   2.047   6.555  0.0078  0.0859 -0.0685
   7023SM  H11S 9128   4.522   1.948   6.509  1.2736 -1.1443  1.8562
   7023SM  H11T 9129   4.649   2.051   6.524 -0.3140  0.2731 -1.1921
   7023SM  C12S 9130   4.459   2.153   6.482 -0.0652  0.2185 -0.1722
   7023SM  H12S 9131   4.460   2.238   6.553 -1.7937 -0.6750  1.0129
   7023SM  H12T 9132   4.352   2.126   6.468 -0.5207  2.7389 -2.2402
   7023SM  C13S 9133   4.509   2.186   6.337 -0.2097 -0.3672 -0.9178
   7023SM  H13S 9134   4.474   2.099   6.277 -1.3830 -0.6490  0.1365
   7023SM  H13T 9135   4.619   2.186   6.325 -0.2523  1.0276 -1.5513
   7023SM  C14S 9136   4.454   2.316   6.270 -0.5871 -0.2989  0.1070
   7023SM  H14S 9137   4.495   2.386   6.346 -1.9545  0.7386 -0.0710
   7023SM  H14T 9138   4.344   2.315   6.280 -0.6894  2.9183  0.2211
   7023SM  C15S 9139   4.504   2.318   6.122 -0.1065 -0.3183  0.7088
   7023SM  H15S 9140   4.440   2.239   6.075 -2.3709  1.4457  0.6213
   7023SM  H15T 9141   4.611   2.289   6.117 -0.2576 -0.8451  0.3654
   7023SM  C16S 9142   4.471   2.452   6.053  0.5194 -0.6270  0.4282
   7023SM  H16S 9143   4.563   2.513   6.065  0.2478 -0.4170  1.5917
   7023SM  H16T 9144   4.380   2.490   6.104  0.2988  0.5492 -0.7720
   7023SM  C17S 9145   4.435   2.437   5.906 -0.6357  0.2923  0.1284
   7023SM  H17S 9146   4.398   2.537   5.873 -0.0067  0.4755 -0.0373
   7023SM  H17T 9147   4.350   2.368   5.887 -0.3621  0.4503 -1.9252
   7023SM  C18S 9148   4.555   2.382   5.820  0.1462 -0.0197 -0.1499
   7023SM  H18S 9149   4.633   2.461   5.814 -0.1349  0.2783  0.0193
   7023SM  H18T 9150   4.531   2.367   5.713 -0.6100 -0.3109  0.0560
   7023SM  H18U 9151   4.593   2.289   5.866  2.1444  0.6330 -0.3487
   7023SM   C1F 9152   4.214   1.810   6.968 -0.3701 -0.3694  0.2989
   7023SM    OF 9153   4.182   1.869   7.068 -0.0445 -0.5430  0.1768
   7023SM   C2F 9154   4.156   1.845   6.832 -0.0019  0.5474  0.0555
   7023SM   H2F 9155   4.078   1.773   6.798  0.8674  1.1750 -3.8013
   7023SM   H2G 9156   4.239   1.820   6.762  0.3890  2.1273 -0.0823
   7023SM   C3F 9157   4.115   1.994   6.824 -0.5647 -0.4415 -0.3623
   7023SM   H3F 9158   4.207   2.052   6.842 -0.9135 -0.6966  2.6744
   7023SM   H3G 9159   4.031   2.019   6.892 -0.2506 -1.7301  0.5396
   7023SM   C4F 9160   4.063   2.015   6.684 -0.2156 -0.1302  0.2833
   7023SM   H4F 9161   4.005   1.934   6.633  0.9803 -0.8961  0.0964
   7023SM   H4G 9162   4.152   2.024   6.619  0.5003  2.7202  1.5114
   7023SM   C5F 9163   3.991   2.150   6.662  0.7649 -0.1587  0.1328
   7023SM   H5F 9164   4.034   2.233   6.723  0.4388  0.0211  0.1236
   7023SM   H5G 9165   3.882   2.146   6.681  1.0803 -0.3407  2.0680
   7023SM   C6F 9166   4.000   2.194   6.517  0.4069 -0.8938  0.4015
   7023SM   H6F 9167   3.981   2.105   6.453 -0.5210  0.2451 -0.9528
   7023SM   H6G 9168   4.101   2.224   6.483  0.9668 -1.6966  1.2860
   7023SM   C7F 9169   3.886   2.284   6.471  0.4328  0.5440 -0.2698
   7023SM   H7F 9170   3.888   2.388   6.510  0.9542  1.5765 -2.8591
   7023SM   H7G 9171   3.791   2.235   6.504  0.2979  1.7974  1.3343
   7023SM   C8F 9172   3.869   2.287   6.320 -0.9870 -0.3722  0.2018
   7023SM   H8F 9173   3.846   2.186   6.281  0.3354 -0.4838 -0.3424
   7023SM   H8G 9174   3.969   2.314   6.279 -0.9101  0.3389  0.8176
   7023SM   C9F 9175   3.749   2.367   6.270  0.7955 -0.7249 -0.5754
   7023SM   H9F 9176   3.770   2.475   6.286 -0.9432 -0.5844  1.1358
   7023SM   H9G 9177   3.665   2.342   6.339  1.0536  1.3472  0.5606
   7023SM  C10F 9178   3.706   2.330   6.130  0.0160  0.0785  0.9642
   7023SM  H10F 9179   3.700   2.219   6.123  1.5131 -0.0336  1.0887
   7023SM  H10G 9180   3.797   2.359   6.073 -0.9075 -0.0830 -0.6384
   7023SM  C11F 9181   3.590   2.416   6.071 -0.5124 -0.2556  0.0791
   7023SM  H11F 9182   3.590   2.524   6.095  0.2292 -0.5912  1.7399
   7023SM  H11G 9183   3.492   2.366   6.086 -0.4198 -0.1393  1.1083
   7023SM  C12F 9184   3.609   2.425   5.917 -0.2259 -0.8134 -0.5542
   7023SM  H12F 9185   3.585   2.326   5.873 -2.1647 -0.4895 -0.2944
   7023SM  H12G 9186   3.713   2.463   5.907  0.1868 -1.3772  1.2786
   7023SM  C13F 9187   3.514   2.519   5.847 -0.5480  0.2568  0.5683
   7023SM  H13F 9188   3.528   2.620   5.891  1.6306  0.6869 -0.9615
   7023SM  H13G 9189   3.407   2.497   5.866 -1.0173 -1.1977 -2.9579
   7023SM  C14F 9190   3.529   2.525   5.689  0.5537  0.0074 -0.1436
   7023SM  H14F 9191   3.505   2.429   5.641  2.7140  0.0389 -1.4096
   7023SM  H14G 9192   3.638   2.540   5.671  0.2686  0.6008 -1.4960
   7023SM  C15F 9193   3.448   2.637   5.618 -0.0793  0.6718 -0.1249
   7023SM  H15F 9194   3.447   2.730   5.679 -2.2250 -0.6424  2.0316
   7023SM  H15G 9195   3.344   2.599   5.628 -0.2432  1.0943 -0.1977
   7023SM  C16F 9196   3.490   2.680   5.476  0.2573 -0.0513 -0.5744
   7023SM  H16F 9197   3.595   2.714   5.494  0.0641 -0.7363  2.3742
   7023SM  H16G 9198   3.427   2.764   5.440  1.5851  1.4581  0.4448
   7023SM  C17F 9199   3.476   2.567   5.378  0.1487  0.0989  0.8046
   7023SM  H17F 9200   3.373   2.537   5.351  1.6282 -2.5914 -2.4934
   7023SM  H17G 9201   3.520   2.478   5.428  0.0361 -0.4071  0.0154
   7023SM  C18F 9202   3.544   2.583   5.241 -0.2565 -0.2198  0.2925
   7023SM  H18F 9203   3.638   2.640   5.257  0.1762 -0.1335 -2.1598
   7023SM  H18G 9204   3.479   2.643   5.173 -3.1914  0.4464  3.4247
   7023SM  C19F 9205   3.568   2.447   5.195 -0.3802 -0.5198  0.4062
   7023SM  H19F 9206   3.564   2.447   5.084 -2.4830 -0.1264  0.4520
   7023SM  H19G 9207   3.481   2.381   5.214  0.0489 -0.6517  2.0877
   7023SM  C20F 9208   3.704   2.380   5.223 -0.8082  0.0134 -0.3496
   7023SM  H20F 9209   3.702   2.316   5.314  0.3346  0.9067  0.3332
   7023SM  H20G 9210   3.787   2.454   5.233 -1.1669  0.3188  0.5036
   7023SM  C21F 9211   3.756   2.298   5.103  0.3856 -0.1463 -0.1952
   7023SM  H21F 9212   3.782   2.344   5.006  2.1532  0.7233  0.6479
   7023SM  H21G 9213   3.682   2.219   5.077  0.4576 -0.2765 -0.0107
   7023SM  C22F 9214   3.891   2.240   5.146 -0.0512  0.9584 -0.3448
   7023SM  H22F 9215   3.880   2.196   5.247  0.7152 -0.2966 -0.7752
   7023SM  H22G 9216   3.965   2.321   5.157  0.2719  0.4785  1.2121
   7023SM  C23F 9217   3.949   2.127   5.062 -0.6243  0.5232 -0.2351
   7023SM  H23F 9218   4.039   2.076   5.102 -0.3582  1.1011 -0.0940
   7023SM  H23G 9219   3.970   2.163   4.959 -1.3265  1.5613 -0.0260
   7023SM  H23H 9220   3.870   2.049   5.067  0.5429 -0.6619  0.6253
   7123SM     N 9221   5.492   7.131   7.687  0.0253  0.3805 -0.1943
   7123SM   C15 9222   5.617   7.088   7.614  0.3580  0.0062 -0.3718
   7123SM  H15A 9223   5.607   6.982   7.601  1.1647 -0.0949 -0.2224
   7123SM  H15B 9224   5.689   7.094   7.694 -1.0841  0.0184  0.9865
   7123SM  H15C 9225   5.639   7.154   7.531 -1.6544  2.8583  1.1844
   7123SM   C14 9226   5.453   7.037   7.795  0.1121  0.2780 -0.0389
   7123SM  H14A 9227   5.535   7.012   7.860 -0.4064  1.0550  0.9617
   7123SM  H14B 9228   5.410   6.943   7.765 -1.8334  1.6973 -2.0042
   7123SM  H14C 9229   5.375   7.088   7.850 -0.9454 -2.1188  0.8073
   7123SM   C13 9230   5.518   7.269   7.742 -0.0097  0.0422  0.1188
   7123SM  H13A 9231   5.615   7.273   7.789  0.0203 -1.7348  0.2979
   7123SM  H13B 9232   5.438   7.298   7.809  0.0095  0.2720  0.0398
   7123SM  H13C 9233   5.517   7.348   7.669  1.4013 -0.1951 -0.1913
   7123SM   C12 9234   5.381   7.137   7.584 -0.1058 -0.7771  0.7567
   7123SM  H12A 9235   5.296   7.169   7.643  0.7413 -2.2619  2.9239
   7123SM  H12B 9236   5.352   7.042   7.542  0.4672 -0.6142 -0.0207
   7123SM   C11 9237   5.398   7.243   7.472 -0.2520  0.2477  0.2609
   7123SM  H11A 9238   5.334   7.216   7.385  0.1666 -2.5921  0.7586
   7123SM  H11B 9239   5.504   7.251   7.439 -0.5378  0.5765 -0.6168
   7123SM     P 9240   5.380   7.512   7.452 -0.5145  0.1429 -0.0040
   7123SM   O13 9241   5.256   7.587   7.421 -0.0728 -0.2055 -0.6662
   7123SM   O14 9242   5.485   7.558   7.542  0.1993  0.2322  0.0810
   7123SM   O11 9243   5.455   7.465   7.320  0.0335  0.5725  0.0772
   7123SM   O12 9244   5.345   7.369   7.510  0.3319 -0.3082  0.5704
   7123SM   C1S 9245   5.497   7.557   7.222  0.1922 -0.0961  0.5656
   7123SM   H1S 9246   5.597   7.600   7.245  1.6415  0.6682 -5.4998
   7123SM   H1T 9247   5.425   7.641   7.211 -0.0369 -0.0078  2.4472
   7123SM    NF 9248   5.566   7.576   6.989 -0.0948 -0.4126  0.2867
   7123SM   HNF 9249   5.507   7.613   6.918  0.5978 -0.0488 -0.1037
   7123SM   C2S 9250   5.508   7.486   7.083  0.1783  0.2084  0.2634
   7123SM   H2S 9251   5.581   7.403   7.096  0.7029  0.9589  2.3356
   7123SM   C3S 9252   5.369   7.432   7.027 -0.2275  0.2417 -0.7050
   7123SM   H3S 9253   5.303   7.521   7.029 -0.8526 -0.2274  0.4362
   7123SM    O3 9254   5.317   7.331   7.113 -0.0476  0.1761  0.2781
   7123SM   HO3 9255   5.347   7.353   7.202 -1.8365  0.2859  0.9006
   7123SM   C4S 9256   5.377   7.373   6.887 -0.3620 -0.6830 -0.8378
   7123SM   H4S 9257   5.462   7.303   6.876  0.3532  0.1037 -0.4253
   7123SM   C5S 9258   5.299   7.408   6.781  0.5669  0.0770  0.0052
   7123SM   H5S 9259   5.228   7.491   6.785  1.1194  0.7975 -2.8915
   7123SM   C6S 9260   5.322   7.356   6.642  0.1861  0.3296  0.2027
   7123SM   H6S 9261   5.325   7.440   6.569  1.9414  1.8933  1.9730
   7123SM   H6T 9262   5.236   7.292   6.613 -0.2004  1.6446 -1.8026
   7123SM   C7S 9263   5.461   7.279   6.614  0.2905  0.2137 -0.2682
   7123SM   H7S 9264   5.461   7.190   6.682 -1.6066 -0.1396 -0.6829
   7123SM   H7T 9265   5.547   7.341   6.648  0.9433  1.2078 -3.4380
   7123SM   C8S 9266   5.461   7.213   6.475  0.0765  0.4797 -0.2469
   7123SM   H8S 9267   5.568   7.215   6.445  0.1554  2.5158  0.0241
   7123SM   H8T 9268   5.399   7.269   6.402 -0.7399  0.6307  0.5480
   7123SM   C9S 9269   5.394   7.072   6.479 -0.0946 -0.5729 -0.1666
   7123SM   H9S 9270   5.286   7.064   6.501 -0.0003 -0.0568  0.5052
   7123SM   H9T 9271   5.442   7.017   6.562 -1.4336 -1.2969  0.1655
   7123SM  C10S 9272   5.416   6.994   6.343 -0.6298  0.2270 -1.0095
   7123SM  H10S 9273   5.379   6.891   6.361 -0.0436  0.0247 -0.9231
   7123SM  H10T 9274   5.525   6.981   6.325 -0.8994 -0.6423 -2.1307
   7123SM  C11S 9275   5.344   7.040   6.228 -0.0964  0.0602 -0.1906
   7123SM  H11S 9276   5.358   7.150   6.214 -1.4015  0.2145 -0.3972
   7123SM  H11T 9277   5.234   7.033   6.245 -0.0364 -1.7751 -0.3705
   7123SM  C12S 9278   5.381   6.954   6.103  0.0094 -0.1318  0.2620
   7123SM  H12S 9279   5.349   6.849   6.120 -3.0103  0.2668 -2.1034
   7123SM  H12T 9280   5.491   6.948   6.088  0.0716 -0.9469  0.9841
   7123SM  C13S 9281   5.306   6.987   5.973 -0.1519 -0.2721  0.1389
   7123SM  H13S 9282   5.197   6.990   5.995  0.3092 -1.3497  2.9694
   7123SM  H13T 9283   5.318   6.914   5.891 -1.4208  0.3099 -0.5845
   7123SM  C14S 9284   5.361   7.123   5.919 -0.1167  0.9429 -0.3431
   7123SM  H14S 9285   5.467   7.103   5.892 -0.3912 -0.0971 -0.7035
   7123SM  H14T 9286   5.357   7.184   6.012 -1.0398 -0.3797  0.5169
   7123SM  C15S 9287   5.269   7.172   5.807  0.0099 -0.2882  0.1836
   7123SM  H15S 9288   5.291   7.281   5.804  0.9307 -0.4604  0.3297
   7123SM  H15T 9289   5.160   7.160   5.824  0.0766  0.2725  1.0942
   7123SM  C16S 9290   5.288   7.098   5.678 -0.2440 -0.1649  0.1831
   7123SM  H16S 9291   5.285   6.989   5.699  2.3096 -0.2469  0.4546
   7123SM  H16T 9292   5.389   7.134   5.646 -0.0768 -1.2157 -0.5054
   7123SM  C17S 9293   5.198   7.147   5.567 -0.3162 -0.2984  0.2466
   7123SM  H17S 9294   5.212   7.257   5.564 -0.5940 -0.2329  1.1817
   7123SM  H17T 9295   5.090   7.131   5.587 -0.9925  1.8835 -1.3337
   7123SM  C18S 9296   5.235   7.091   5.423 -0.0828  0.1718 -0.4220
   7123SM  H18S 9297   5.344   7.106   5.414  0.2320 -0.8036  1.2532
   7123SM  H18T 9298   5.180   7.138   5.339  0.4393  0.0357 -0.8399
   7123SM  H18U 9299   5.208   6.983   5.424 -1.1841  0.4166  1.5686
   7123SM   C1F 9300   5.691   7.626   6.997  0.4594 -0.9694 -0.3161
   7123SM    OF 9301   5.771   7.577   7.072  0.0928  0.2105 -0.5544
   7123SM   C2F 9302   5.722   7.755   6.921  0.5428 -0.6718  0.4658
   7123SM   H2F 9303   5.786   7.812   6.992  0.4133 -1.8205  1.5579
   7123SM   H2G 9304   5.634   7.810   6.884  1.6047  0.1709 -0.8705
   7123SM   C3F 9305   5.810   7.720   6.796  0.9968 -0.2172  0.3285
   7123SM   H3F 9306   5.898   7.660   6.826  0.4377 -0.9147  0.6130
   7123SM   H3G 9307   5.838   7.817   6.751  2.0197 -1.1334 -1.1059
   7123SM   C4F 9308   5.727   7.636   6.690  0.0050  0.1941 -0.4264
   7123SM   H4F 9309   5.621   7.669   6.678 -0.4875 -1.0812  0.2420
   7123SM   H4G 9310   5.722   7.533   6.732  1.6858  0.0498 -0.5009
   7123SM   C5F 9311   5.790   7.635   6.556 -0.4843 -0.6461  0.9476
   7123SM   H5F 9312   5.892   7.597   6.574  0.0661  1.1521  1.8586
   7123SM   H5G 9313   5.793   7.740   6.521 -0.2666 -1.4997 -1.7994
   7123SM   C6F 9314   5.724   7.544   6.459 -0.2488  0.3501 -0.2192
   7123SM   H6F 9315   5.613   7.546   6.472 -0.2841  1.2885 -0.6056
   7123SM   H6G 9316   5.756   7.440   6.480  0.5423  0.6652  0.1410
   7123SM   C7F 9317   5.760   7.565   6.315 -0.6177 -0.0329  1.1923
   7123SM   H7F 9318   5.870   7.564   6.299 -0.8501 -2.3579 -0.9575
   7123SM   H7G 9319   5.735   7.665   6.274  0.5088 -0.2275 -0.0464
   7123SM   C8F 9320   5.702   7.464   6.216  0.3146  0.3600 -0.1898
   7123SM   H8F 9321   5.592   7.476   6.211 -0.1417 -2.8191  0.3314
   7123SM   H8G 9322   5.700   7.356   6.244  1.9746  0.3943  0.1475
   7123SM   C9F 9323   5.733   7.485   6.068  0.3792  1.1175  0.2416
   7123SM   H9F 9324   5.841   7.460   6.053 -0.2802 -0.7917 -1.9025
   7123SM   H9G 9325   5.718   7.595   6.064 -0.7004  0.9807  0.3687
   7123SM  C10F 9326   5.635   7.393   5.972  0.0540  0.2480  0.3182
   7123SM  H10F 9327   5.534   7.371   6.011 -0.6911 -1.0737 -2.1427
   7123SM  H10G 9328   5.694   7.299   5.966 -0.4656 -0.0547 -0.0723
   7123SM  C11F 9329   5.631   7.454   5.834 -0.0110  0.2476  0.2989
   7123SM  H11F 9330   5.713   7.525   5.812 -0.5047  0.5676 -0.5452
   7123SM  H11G 9331   5.539   7.516   5.836 -1.0248 -1.2285  2.3755
   7123SM  C12F 9332   5.629   7.346   5.722  0.0805  0.1262 -0.2836
   7123SM  H12F 9333   5.548   7.272   5.735  2.5130 -2.8099 -0.8940
   7123SM  H12G 9334   5.724   7.290   5.736 -0.2481 -0.3171  0.2280
   7123SM  C13F 9335   5.614   7.405   5.583  0.2414  0.0497 -0.5180
   7123SM  H13F 9336   5.632   7.322   5.511 -1.3201  0.1666 -1.0878
   7123SM  H13G 9337   5.698   7.476   5.573 -0.2670  0.4960 -1.8995
   7123SM  C14F 9338   5.474   7.475   5.565  0.1616  0.3856 -0.6420
   7123SM  H14F 9339   5.460   7.571   5.619 -0.7463 -0.2587  0.3047
   7123SM  H14G 9340   5.396   7.403   5.595 -1.9780  2.1448 -1.6564
   7123SM  C15F 9341   5.459   7.519   5.415 -0.0770 -0.9380  0.1296
   7123SM  H15F 9342   5.428   7.433   5.353 -0.3210 -1.6140  1.1621
   7123SM  H15G 9343   5.559   7.558   5.385  0.3976  0.0096  2.6292
   7123SM  C16F 9344   5.367   7.638   5.406 -0.8282 -0.3021  0.0605
   7123SM  H16F 9345   5.432   7.724   5.431  0.1167 -1.5895  2.2977
   7123SM  H16G 9346   5.287   7.618   5.481  0.3750  1.5532  1.9358
   7123SM  C17F 9347   5.298   7.649   5.269 -0.5666 -0.2313 -0.0781
   7123SM  H17F 9348   5.241   7.555   5.253  0.4440 -0.7011 -1.0775
   7123SM  H17G 9349   5.370   7.665   5.186  1.7678  1.3793  2.1320
   7123SM  C18F 9350   5.196   7.763   5.268  0.1296 -0.2360  0.4007
   7123SM  H18F 9351   5.252   7.858   5.259  1.1485 -0.5205  2.9378
   7123SM  H18G 9352   5.143   7.764   5.366  0.1898 -0.6203  0.4388
   7123SM  C19F 9353   5.089   7.754   5.155  0.5438 -0.0367  0.1137
   7123SM  H19F 9354   5.023   7.671   5.189  2.1909 -0.5122  2.4382
   7123SM  H19G 9355   5.139   7.725   5.060  0.5839 -0.8166  0.3666
   7123SM  C20F 9356   5.012   7.883   5.134 -0.0075  0.2331  0.0552
   7123SM  H20F 9357   4.964   7.873   5.034 -0.7869 -0.9990  0.5296
   7123SM  H20G 9358   5.087   7.965   5.141  0.4290 -0.1276 -0.3381
   7123SM  C21F 9359   4.910   7.918   5.241  0.1100  0.0728  0.2218
   7123SM  H21F 9360   4.953   7.881   5.337  0.5012 -1.6410 -0.5734
   7123SM  H21G 9361   4.814   7.862   5.230 -1.4716  2.8291 -0.8747
   7123SM  C22F 9362   4.887   8.066   5.250  0.2879  0.1165 -0.1515
   7123SM  H22F 9363   4.838   8.087   5.153  0.1288  0.1047 -0.0734
   7123SM  H22G 9364   4.988   8.110   5.263  0.4505 -0.5278  0.9147
   7123SM  C23F 9365   4.791   8.103   5.364 -0.4928 -0.7311  0.5730
   7123SM  H23F 9366   4.742   8.201   5.343  2.8828  0.4500 -2.7461
   7123SM  H23G 9367   4.849   8.116   5.458  2.3815  0.8591 -1.2779
   7123SM  H23H 9368   4.714   8.025   5.384 -0.3808 -1.0373 -0.1936
   7223SM     N 9369   7.452   3.430   7.780  0.2609 -0.3930  0.5982
   7223SM   C15 9370   7.523   3.303   7.753 -0.7971 -0.7655 -0.5010
   7223SM  H15A 9371   7.627   3.310   7.781  0.3362  1.3242 -4.4473
   7223SM  H15B 9372   7.523   3.280   7.648 -0.1698  1.1806 -0.9743
   7223SM  H15C 9373   7.469   3.224   7.803 -0.2017 -0.2037  1.1028
   7223SM   C14 9374   7.299   3.414   7.751 -0.1849  0.1805 -0.0868
   7223SM  H14A 9375   7.258   3.323   7.793 -0.7517 -0.0585 -1.1140
   7223SM  H14B 9376   7.285   3.402   7.645  0.2233  1.9545 -0.3707
   7223SM  H14C 9377   7.242   3.503   7.773  2.0125  1.7112 -0.2838
   7223SM   C13 9378   7.461   3.461   7.924  0.3495  0.4132 -0.3534
   7223SM  H13A 9379   7.397   3.545   7.948 -1.9078 -1.0249 -1.1046
   7223SM  H13B 9380   7.555   3.498   7.964 -0.1939  0.0727  1.3066
   7223SM  H13C 9381   7.427   3.375   7.979  1.3143 -1.2386 -2.2033
   7223SM   C12 9382   7.515   3.549   7.698  0.1171  0.2323 -0.7063
   7223SM  H12A 9383   7.620   3.563   7.717  0.5828 -1.1287 -2.0724
   7223SM  H12B 9384   7.460   3.635   7.732 -1.4831 -0.3627 -1.6955
   7223SM   C11 9385   7.502   3.553   7.540 -0.5037 -0.1109 -1.0139
   7223SM  H11A 9386   7.548   3.459   7.505  1.6944  0.0273  1.1942
   7223SM  H11B 9387   7.564   3.634   7.497 -0.2164  0.1617 -0.1130
   7223SM     P 9388   7.286   3.681   7.470 -0.0605  0.0235 -0.2296
   7223SM   O13 9389   7.140   3.656   7.478 -0.1408  0.1819  0.0827
   7223SM   O14 9390   7.333   3.792   7.554  0.4341 -0.4306  0.8674
   7223SM   O11 9391   7.326   3.699   7.323  0.4664 -0.5504  0.1597
   7223SM   O12 9392   7.367   3.554   7.509 -0.0952  0.3849  0.4850
   7223SM   C1S 9393   7.298   3.601   7.217  0.3540 -0.0431 -0.4095
   7223SM   H1S 9394   7.203   3.547   7.238  0.8076 -1.1718 -1.1900
   7223SM   H1T 9395   7.376   3.522   7.222  1.3136  0.9303  0.5745
   7223SM    NF 9396   7.222   3.575   6.992 -0.7491  1.5240  0.1846
   7223SM   HNF 9397   7.285   3.533   6.927 -0.6014  2.0114  0.0095
   7223SM   C2S 9398   7.276   3.671   7.083  0.2658  0.2620  0.2161
   7223SM   H2S 9399   7.196   3.741   7.112 -1.2430 -1.6774  0.9692
   7223SM   C3S 9400   7.410   3.737   7.032  0.1325 -0.2776  0.1218
   7223SM   H3S 9401   7.492   3.663   7.039  0.6414  0.2105 -0.4908
   7223SM    O3 9402   7.460   3.827   7.125 -0.1990 -0.6577 -0.9757
   7223SM   HO3 9403   7.430   3.789   7.208 -1.7313 -0.1616 -1.2593
   7223SM   C4S 9404   7.384   3.805   6.902 -0.4758 -0.5878 -0.2432
   7223SM   H4S 9405   7.332   3.901   6.910  0.9394  0.2053 -0.3865
   7223SM   C5S 9406   7.423   3.748   6.787  0.5199  0.6351 -0.5045
   7223SM   H5S 9407   7.457   3.644   6.794 -0.0469  0.5346  1.1623
   7223SM   C6S 9408   7.400   3.806   6.647 -0.2409 -0.0899 -0.0285
   7223SM   H6S 9409   7.412   3.917   6.650  0.5028 -0.1743  0.2217
   7223SM   H6T 9410   7.303   3.772   6.605 -1.5507  3.0400  0.1449
   7223SM   C7S 9411   7.492   3.763   6.532  0.0209 -0.3656 -0.1328
   7223SM   H7S 9412   7.495   3.653   6.524  2.2132 -0.4196  0.6915
   7223SM   H7T 9413   7.594   3.793   6.565  0.2878 -1.2449 -0.1475
   7223SM   C8S 9414   7.469   3.829   6.391  0.1816 -1.0850  0.0737
   7223SM   H8S 9415   7.527   3.782   6.309 -1.9827  0.8088 -2.7670
   7223SM   H8T 9416   7.499   3.936   6.403 -0.0233 -1.2189  2.1071
   7223SM   C9S 9417   7.325   3.813   6.344 -0.1105  0.2964  0.0437
   7223SM   H9S 9418   7.262   3.886   6.400 -2.2147 -0.4127 -1.2692
   7223SM   H9T 9419   7.281   3.712   6.362  0.0895  0.5807  2.3919
   7223SM  C10S 9420   7.294   3.850   6.194 -0.1492 -0.3233  0.1305
   7223SM  H10S 9421   7.370   3.805   6.126 -1.0460  0.4208 -1.4185
   7223SM  H10T 9422   7.319   3.957   6.179  1.1959 -0.7895 -1.2985
   7223SM  C11S 9423   7.153   3.818   6.147  0.1937 -0.8208 -0.6886
   7223SM  H11S 9424   7.093   3.844   6.237  3.3952 -0.8622  1.6411
   7223SM  H11T 9425   7.148   3.710   6.123 -0.7722 -1.0188  0.3129
   7223SM  C12S 9426   7.109   3.899   6.019 -0.5606 -0.0516  0.3421
   7223SM  H12S 9427   7.153   4.001   6.011 -0.9101  0.0232 -0.7885
   7223SM  H12T 9428   6.999   3.906   6.031 -0.6881  0.4298 -0.9622
   7223SM  C13S 9429   7.145   3.820   5.898 -0.5251  0.1458  0.2348
   7223SM  H13S 9430   7.089   3.724   5.893 -1.6662  0.7787  0.4073
   7223SM  H13T 9431   7.254   3.799   5.895 -0.9045 -1.9863 -0.0130
   7223SM  C14S 9432   7.106   3.902   5.777  0.2977 -1.4695  0.0095
   7223SM  H14S 9433   7.159   3.998   5.792 -0.2101 -1.0904 -0.5911
   7223SM  H14T 9434   6.997   3.920   5.793  0.6152  1.5442 -0.6380
   7223SM  C15S 9435   7.145   3.836   5.653  0.6283 -0.0211 -0.1819
   7223SM  H15S 9436   7.088   3.741   5.645  1.5386 -0.5319 -0.7247
   7223SM  H15T 9437   7.250   3.799   5.650  0.3753 -0.7095 -1.6206
   7223SM  C16S 9438   7.123   3.936   5.534 -0.3149  0.0942  0.7997
   7223SM  H16S 9439   7.175   4.034   5.538 -1.1427  0.8442 -3.0134
   7223SM  H16T 9440   7.016   3.950   5.510 -0.2058 -1.6674 -1.0857
   7223SM  C17S 9441   7.195   3.870   5.409  0.3060 -0.2987  0.3736
   7223SM  H17S 9442   7.128   3.794   5.363  1.4157 -0.6890 -0.6517
   7223SM  H17T 9443   7.286   3.812   5.433  0.2815 -0.3820  0.2647
   7223SM  C18S 9444   7.232   3.964   5.294  0.0212  0.0524 -0.1727
   7223SM  H18S 9445   7.313   4.035   5.322 -0.1522  0.5223 -0.8306
   7223SM  H18T 9446   7.142   4.024   5.266 -1.5768 -1.9128  0.4569
   7223SM  H18U 9447   7.265   3.909   5.204 -0.9824 -0.2477 -0.3784
   7223SM   C1F 9448   7.095   3.533   6.988  0.0871 -0.0445  0.0724
   7223SM    OF 9449   7.018   3.569   7.072  0.2077  0.3645 -0.0107
   7223SM   C2F 9450   7.044   3.442   6.885 -0.2793  0.1798  0.4590
   7223SM   H2F 9451   6.937   3.417   6.900 -1.6415  2.1077 -4.1687
   7223SM   H2G 9452   7.098   3.349   6.912  0.5646  1.0486  1.8416
   7223SM   C3F 9453   7.077   3.496   6.740  0.1384  0.6183 -0.4132
   7223SM   H3F 9454   7.034   3.422   6.670 -2.1628  2.3719 -0.9628
   7223SM   H3G 9455   7.187   3.493   6.725  0.3950  0.8348  1.2093
   7223SM   C4F 9456   7.032   3.645   6.714  0.2000  0.6430  1.1169
   7223SM   H4F 9457   7.099   3.711   6.772  0.6277  2.4400 -1.2716
   7223SM   H4G 9458   6.928   3.654   6.753 -0.6729  2.1815 -1.3491
   7223SM   C5F 9459   7.028   3.679   6.561 -0.2147  1.3086 -0.5799
   7223SM   H5F 9460   7.128   3.647   6.524  0.0151  0.1423  0.9491
   7223SM   H5G 9461   7.020   3.790   6.562  2.7727  1.6883  2.5667
   7223SM   C6F 9462   6.926   3.628   6.459  0.2816 -0.5388 -1.0751
   7223SM   H6F 9463   6.933   3.696   6.371 -1.1183  0.3607 -0.5311
   7223SM   H6G 9464   6.830   3.644   6.512  0.2278 -0.8982 -1.0687
   7223SM   C7F 9465   6.938   3.481   6.412 -0.4223  0.4158  0.3497
   7223SM   H7F 9466   6.908   3.403   6.484 -1.2616  0.2208 -0.1920
   7223SM   H7G 9467   7.042   3.458   6.381 -0.6961 -0.2867 -0.0783
   7223SM   C8F 9468   6.854   3.451   6.286  0.0684 -0.0222 -0.6051
   7223SM   H8F 9469   6.749   3.462   6.319  0.0948  0.6777 -0.7482
   7223SM   H8G 9470   6.870   3.344   6.258  2.9278  0.1177  0.1104
   7223SM   C9F 9471   6.890   3.533   6.161 -0.0656 -0.2294  0.5121
   7223SM   H9F 9472   6.993   3.503   6.132 -0.0134 -0.6946  1.1522
   7223SM   H9G 9473   6.893   3.641   6.187  1.2321 -0.3613  0.9565
   7223SM  C10F 9474   6.787   3.511   6.049  0.9610  1.1600  0.0108
   7223SM  H10F 9475   6.691   3.538   6.098  0.8786  0.6154  0.1530
   7223SM  H10G 9476   6.779   3.406   6.015 -2.1429  1.0236  0.8018
   7223SM  C11F 9477   6.810   3.595   5.927  0.2563 -0.1448  0.4875
   7223SM  H11F 9478   6.917   3.583   5.900  0.8243  0.1991  2.4874
   7223SM  H11G 9479   6.792   3.701   5.955 -0.1653  0.1500 -0.7967
   7223SM  C12F 9480   6.715   3.552   5.813  0.1536 -0.5522  0.7161
   7223SM  H12F 9481   6.608   3.568   5.839  0.2008 -0.9622  1.1784
   7223SM  H12G 9482   6.735   3.446   5.789  2.1219 -0.9062  3.4776
   7223SM  C13F 9483   6.745   3.646   5.693 -0.8399  0.1776  0.5299
   7223SM  H13F 9484   6.852   3.631   5.669 -1.5092 -0.7480 -2.2351
   7223SM  H13G 9485   6.723   3.752   5.720 -0.2919  0.7941 -1.2566
   7223SM  C14F 9486   6.679   3.610   5.560  0.6524  0.0077 -0.0946
   7223SM  H14F 9487   6.568   3.614   5.568  0.6211 -0.4908 -0.2492
   7223SM  H14G 9488   6.701   3.502   5.549  1.3491  0.3666 -3.2085
   7223SM  C15F 9489   6.725   3.685   5.435  0.3531 -0.2911 -0.5143
   7223SM  H15F 9490   6.816   3.645   5.386  1.2417  0.7324  0.2625
   7223SM  H15G 9491   6.754   3.790   5.456 -0.6802 -0.3379  1.2889
   7223SM  C16F 9492   6.609   3.687   5.344 -0.1169  0.3187  0.3935
   7223SM  H16F 9493   6.520   3.727   5.395  1.2662  0.4281  2.8741
   7223SM  H16G 9494   6.581   3.583   5.315 -0.4626  0.7146 -0.7333
   7223SM  C17F 9495   6.637   3.771   5.214 -0.2384  0.2464  0.5610
   7223SM  H17F 9496   6.706   3.709   5.153  0.2776 -0.0575  1.4400
   7223SM  H17G 9497   6.702   3.857   5.239  0.3278  0.3038 -0.9762
   7223SM  C18F 9498   6.494   3.812   5.154 -0.4229  0.1375 -0.5788
   7223SM  H18F 9499   6.457   3.889   5.224  1.0574 -0.1714  0.5966
   7223SM  H18G 9500   6.427   3.723   5.159 -0.6946  0.3387 -0.5829
   7223SM  C19F 9501   6.490   3.855   5.008 -0.0117 -0.1735 -0.3737
   7223SM  H19F 9502   6.540   3.784   4.938 -1.7313  0.1482 -2.0350
   7223SM  H19G 9503   6.528   3.959   5.002 -0.1548 -0.1686 -1.5021
   7223SM  C20F 9504   6.352   3.852   4.953 -0.3306  0.5507 -0.2021
   7223SM  H20F 9505   6.285   3.898   5.029  0.1781 -0.4443  0.8768
   7223SM  H20G 9506   6.321   3.746   4.939  2.1681 -0.3021  0.1132
   7223SM  C21F 9507   6.338   3.933   4.826  0.6249  0.4455 -1.0058
   7223SM  H21F 9508   6.403   3.897   4.743  1.3452  1.2273 -0.7941
   7223SM  H21G 9509   6.359   4.038   4.854  1.1535  0.0006  0.3481
   7223SM  C22F 9510   6.190   3.944   4.789  0.1514  0.8579  0.1592
   7223SM  H22F 9511   6.138   4.000   4.870 -1.0502 -0.0231  0.0130
   7223SM  H22G 9512   6.141   3.845   4.781  1.4609  0.0846  1.2420
   7223SM  C23F 9513   6.169   4.032   4.672  0.1614 -0.0783  0.2136
   7223SM  H23F 9514   6.199   4.138   4.685 -1.5357  0.9494 -3.0109
   7223SM  H23G 9515   6.067   4.039   4.628  1.5243  0.8220 -3.1271
   7223SM  H23H 9516   6.226   3.984   4.590 -0.8822 -0.0408 -0.5632
   7323SM     N 9517   4.963   1.465   7.390 -0.2230  0.3675 -0.3198
   7323SM   C15 9518   4.851   1.410   7.305 -0.0542  0.1461 -0.1523
   7323SM  H15A 9519   4.778   1.364   7.370 -1.0542  1.5421 -0.2405
   7323SM  H15B 9520   4.888   1.351   7.223  0.0795  0.5953 -0.4225
   7323SM  H15C 9521   4.796   1.485   7.251  0.2925 -0.2924 -1.1258
   7323SM   C14 9522   5.038   1.348   7.448 -0.1256 -0.7136 -0.3945
   7323SM  H14A 9523   4.970   1.276   7.492 -1.6109  0.2342 -1.0470
   7323SM  H14B 9524   5.111   1.374   7.522 -0.1659  0.0450 -0.6151
   7323SM  H14C 9525   5.093   1.299   7.369  0.1509 -1.0974  0.0299
   7323SM   C13 9526   5.063   1.525   7.305  0.4631  0.2773  0.1331
   7323SM  H13A 9527   5.094   1.466   7.220 -0.7990  0.0712 -0.1994
   7323SM  H13B 9528   5.158   1.533   7.356  0.1408 -2.8859  1.4308
   7323SM  H13C 9529   5.037   1.622   7.264  1.4965  0.4540 -0.1502
   7323SM   C12 9530   4.915   1.563   7.497  0.1333  0.5109  0.4591
   7323SM  H12A 9531   4.830   1.515   7.544  0.1392 -0.5568 -0.5543
   7323SM  H12B 9532   4.879   1.651   7.446 -0.6454 -0.7295 -1.2507
   7323SM   C11 9533   5.010   1.628   7.601 -1.1449  1.2922 -0.2065
   7323SM  H11A 9534   5.072   1.548   7.646 -1.1124  1.9622  1.0065
   7323SM  H11B 9535   4.962   1.663   7.696  1.2382 -2.4444  2.6383
   7323SM     P 9536   5.026   1.872   7.537 -0.3092  0.3156 -0.0784
   7323SM   O13 9537   4.878   1.857   7.507  0.1598  0.2530 -0.4239
   7323SM   O14 9538   5.072   1.954   7.652  0.2144 -0.4913  0.2762
   7323SM   O11 9539   5.094   1.922   7.408  0.4007 -0.0747 -0.2052
   7323SM   O12 9540   5.092   1.724   7.551 -0.6934  0.0546  0.2974
   7323SM   C1S 9541   5.228   1.889   7.372 -0.8417  0.1152  0.0840
   7323SM   H1S 9542   5.251   1.781   7.381  0.3988  0.4251  0.9399
   7323SM   H1T 9543   5.305   1.948   7.427  1.4079 -0.8838 -1.8451
   7323SM    NF 9544   5.365   1.880   7.157 -0.9775  0.6612 -0.5504
   7323SM   HNF 9545   5.450   1.932   7.154 -0.0888 -0.7288 -0.3327
   7323SM   C2S 9546   5.247   1.944   7.224 -0.4465  0.0740 -0.1337
   7323SM   H2S 9547   5.158   1.923   7.161 -0.4849  0.3656 -0.1753
   7323SM   C3S 9548   5.257   2.098   7.234  0.3097 -0.2526 -0.3607
   7323SM   H3S 9549   5.334   2.132   7.307 -2.2187  2.2685  1.3527
   7323SM    O3 9550   5.137   2.163   7.279  0.1629 -0.0701 -0.3407
   7323SM   HO3 9551   5.074   2.096   7.307  0.0712 -0.1821 -0.8033
   7323SM   C4S 9552   5.298   2.140   7.096 -0.6231 -0.3280 -0.4940
   7323SM   H4S 9553   5.408   2.138   7.092 -0.6056  1.0501 -1.4417
   7323SM   C5S 9554   5.227   2.194   6.994  0.7595  0.5988 -0.1260
   7323SM   H5S 9555   5.117   2.193   7.007  0.6868 -2.7017 -0.2008
   7323SM   C6S 9556   5.279   2.240   6.860  0.4347 -0.3851  0.2337
   7323SM   H6S 9557   5.390   2.233   6.858  0.3836 -1.4630  0.4466
   7323SM   H6T 9558   5.245   2.344   6.839  1.1956 -0.1951 -0.1079
   7323SM   C7S 9559   5.251   2.152   6.732  0.0701 -0.2847  0.0831
   7323SM   H7S 9560   5.144   2.122   6.739 -0.2260  0.7485  0.0533
   7323SM   H7T 9561   5.307   2.056   6.730 -1.6367 -1.3184 -1.2732
   7323SM   C8S 9562   5.278   2.228   6.604 -0.0369 -0.2470 -0.0102
   7323SM   H8S 9563   5.380   2.272   6.604  0.4477 -1.3338 -0.5122
   7323SM   H8T 9564   5.203   2.310   6.596  0.8911  0.5115 -1.2216
   7323SM   C9S 9565   5.247   2.135   6.489 -0.0977 -1.1537  0.1932
   7323SM   H9S 9566   5.140   2.106   6.502 -0.9352  0.7433 -1.8316
   7323SM   H9T 9567   5.322   2.054   6.504 -0.6983 -1.7974 -0.2006
   7323SM  C10S 9568   5.263   2.201   6.354  0.3931 -0.3281 -0.1475
   7323SM  H10S 9569   5.372   2.225   6.344  0.1826 -0.1134 -2.6693
   7323SM  H10T 9570   5.206   2.296   6.353 -0.5552 -0.8272  1.8390
   7323SM  C11S 9571   5.222   2.107   6.242  0.5714  0.3995  0.2156
   7323SM  H11S 9572   5.111   2.103   6.238  0.6140 -0.0471 -0.6999
   7323SM  H11T 9573   5.256   2.005   6.268  1.1260  0.6203  0.3730
   7323SM  C12S 9574   5.260   2.145   6.100  0.3782  0.5612 -0.7734
   7323SM  H12S 9575   5.370   2.147   6.089  0.3685  1.2593 -0.8203
   7323SM  H12T 9576   5.221   2.248   6.087 -0.3938  0.0415 -3.0076
   7323SM  C13S 9577   5.197   2.046   5.999 -0.3287  0.1034 -0.1806
   7323SM  H13S 9578   5.089   2.039   6.026 -0.6170  0.3705 -1.2248
   7323SM  H13T 9579   5.252   1.951   6.017  2.0474  1.5819  0.8133
   7323SM  C14S 9580   5.220   2.083   5.848  0.2868  0.2777 -0.7331
   7323SM  H14S 9581   5.205   2.000   5.775  1.8730 -0.3920 -0.3419
   7323SM  H14T 9582   5.325   2.117   5.842 -0.4182  3.4595  1.9224
   7323SM  C15S 9583   5.119   2.193   5.809 -0.3309  0.5343 -0.2599
   7323SM  H15S 9584   5.132   2.278   5.880  1.1104 -0.4044  0.6555
   7323SM  H15T 9585   5.022   2.141   5.821 -0.2308  0.9010  2.7566
   7323SM  C16S 9586   5.128   2.233   5.663  0.7986 -0.4364  0.2701
   7323SM  H16S 9587   5.208   2.175   5.611 -0.6009  0.3862 -3.0440
   7323SM  H16T 9588   5.143   2.341   5.644 -4.8240  0.4054 -0.9993
   7323SM  C17S 9589   4.994   2.193   5.591  0.3312 -0.4481  0.0326
   7323SM  H17S 9590   4.903   2.231   5.642  1.0547 -0.0000  1.0313
   7323SM  H17T 9591   4.972   2.085   5.585 -0.0899 -0.2869 -1.9160
   7323SM  C18S 9592   4.977   2.258   5.452  0.2836  0.3374 -0.3356
   7323SM  H18S 9593   4.990   2.368   5.461  0.0898  0.1930  2.3644
   7323SM  H18T 9594   4.875   2.239   5.411 -0.0007  1.9576 -0.4427
   7323SM  H18U 9595   5.040   2.210   5.373  0.4399 -2.5257  1.3970
   7323SM   C1F 9596   5.381   1.752   7.126 -0.0376 -0.1639  0.2705
   7323SM    OF 9597   5.283   1.679   7.139 -0.4873  0.0981  0.1084
   7323SM   C2F 9598   5.516   1.708   7.066 -0.4203  0.3737 -0.6514
   7323SM   H2F 9599   5.526   1.600   7.091 -1.2872  0.5237  0.4255
   7323SM   H2G 9600   5.598   1.766   7.115 -0.7073 -0.0875  0.3969
   7323SM   C3F 9601   5.526   1.730   6.914  0.6709 -1.0497  0.7405
   7323SM   H3F 9602   5.444   1.684   6.856  0.2931  0.6877 -0.1743
   7323SM   H3G 9603   5.622   1.680   6.889  0.9510 -1.4518  2.4952
   7323SM   C4F 9604   5.523   1.879   6.878  0.3180  0.3448  0.9262
   7323SM   H4F 9605   5.592   1.931   6.948 -1.6916 -0.1394  3.4203
   7323SM   H4G 9606   5.425   1.926   6.900 -0.2977  0.5348 -1.8614
   7323SM   C5F 9607   5.557   1.921   6.732  0.1409  0.2019 -0.5435
   7323SM   H5F 9608   5.546   2.029   6.710 -3.0822 -0.0608 -0.7670
   7323SM   H5G 9609   5.493   1.858   6.667  1.6223 -0.2152 -1.6182
   7323SM   C6F 9610   5.707   1.889   6.696 -0.1212  0.5178 -0.3407
   7323SM   H6F 9611   5.699   1.778   6.695 -0.2073  0.5243 -0.8479
   7323SM   H6G 9612   5.766   1.918   6.786  1.2664  1.5579 -1.5383
   7323SM   C7F 9613   5.749   1.958   6.567  0.5790  0.3619 -0.1932
   7323SM   H7F 9614   5.855   1.929   6.549  0.0835 -0.6162 -1.7145
   7323SM   H7G 9615   5.751   2.067   6.586  2.2261  0.3213 -0.0133
   7323SM   C8F 9616   5.658   1.919   6.452  0.5407 -0.5332  0.7239
   7323SM   H8F 9617   5.550   1.942   6.465  0.7063  0.5669  0.3069
   7323SM   H8G 9618   5.656   1.812   6.424  2.6143 -0.3543 -0.2817
   7323SM   C9F 9619   5.707   1.996   6.329 -0.5820 -0.4181  0.2311
   7323SM   H9F 9620   5.806   1.953   6.302 -0.3946 -0.0792  0.3722
   7323SM   H9G 9621   5.710   2.105   6.350  0.5535 -0.1947 -0.9204
   7323SM  C10F 9622   5.625   1.974   6.207  0.2740 -0.1298  0.5548
   7323SM  H10F 9623   5.523   2.010   6.232  0.1039 -1.5418  2.0789
   7323SM  H10G 9624   5.619   1.864   6.190 -0.1736 -0.7405  4.0004
   7323SM  C11F 9625   5.672   2.060   6.089 -0.2906 -0.5064  0.1238
   7323SM  H11F 9626   5.713   2.157   6.124  2.0626 -0.0466 -3.3924
   7323SM  H11G 9627   5.595   2.085   6.012  1.2737 -2.3285 -2.2019
   7323SM  C12F 9628   5.795   2.004   6.016 -0.7371  0.7573  0.0443
   7323SM  H12F 9629   5.796   1.895   5.994  3.5212  0.6849 -0.2092
   7323SM  H12G 9630   5.884   2.021   6.081 -1.0644  0.6665  0.5257
   7323SM  C13F 9631   5.818   2.074   5.877 -0.5979  0.7496  0.5222
   7323SM  H13F 9632   5.725   2.078   5.817 -0.8960  0.7145  0.9757
   7323SM  H13G 9633   5.888   2.002   5.829 -3.2301 -0.4660 -1.8272
   7323SM  C14F 9634   5.879   2.211   5.888 -0.1349  0.6751 -0.7174
   7323SM  H14F 9635   5.975   2.199   5.942 -0.4292 -1.7114 -0.6423
   7323SM  H14G 9636   5.808   2.274   5.946  0.5759  0.9224 -0.0947
   7323SM  C15F 9637   5.897   2.279   5.749  0.1511  0.2699  0.2629
   7323SM  H15F 9638   5.801   2.295   5.696 -1.3749  0.6841  2.9884
   7323SM  H15G 9639   5.953   2.218   5.675 -2.4329 -0.6155 -1.0678
   7323SM  C16F 9640   5.957   2.426   5.755  0.2202 -0.0759  0.8166
   7323SM  H16F 9641   6.065   2.446   5.769  0.4362 -1.6405  1.7052
   7323SM  H16G 9642   5.904   2.465   5.844 -1.8748  0.7654 -0.7181
   7323SM  C17F 9643   5.918   2.504   5.635  0.2796  0.2067  0.1436
   7323SM  H17F 9644   5.957   2.607   5.642  1.2085 -0.0986 -0.2971
   7323SM  H17G 9645   5.808   2.498   5.618  0.5408 -0.0300 -1.6446
   7323SM  C18F 9646   5.986   2.460   5.508 -0.1992 -0.5051 -0.9317
   7323SM  H18F 9647   5.967   2.353   5.482 -0.8831 -0.6696  0.1764
   7323SM  H18G 9648   6.094   2.481   5.524 -0.3186 -1.2439  1.1050
   7323SM  C19F 9649   5.943   2.548   5.392 -0.2260 -0.0175  0.4972
   7323SM  H19F 9650   5.989   2.645   5.419 -1.1461  0.5749  0.0156
   7323SM  H19G 9651   5.833   2.564   5.401  0.0530  2.5698  0.0468
   7323SM  C20F 9652   5.990   2.488   5.258 -0.2312 -0.1598 -0.2177
   7323SM  H20F 9653   5.953   2.383   5.250  1.2199 -0.6128 -1.2200
   7323SM  H20G 9654   6.100   2.496   5.264 -0.3195  1.9287 -0.9004
   7323SM  C21F 9655   5.931   2.568   5.138  0.1111 -0.4285 -0.3002
   7323SM  H21F 9656   5.953   2.673   5.167 -1.3038 -0.3990  0.7784
   7323SM  H21G 9657   5.821   2.557   5.127  0.1270 -0.5791 -0.3084
   7323SM  C22F 9658   6.001   2.556   5.000 -0.0278 -0.0819 -0.0612
   7323SM  H22F 9659   5.994   2.450   4.970 -1.4021 -0.0464  0.0605
   7323SM  H22G 9660   6.112   2.569   5.001 -0.2554  2.9461 -1.6278
   7323SM  C23F 9661   5.941   2.642   4.898 -0.1318 -0.3623 -0.0862
   7323SM  H23F 9662   5.833   2.619   4.908  0.0001 -1.0144 -0.0918
   7323SM  H23G 9663   5.978   2.628   4.794 -0.8055  0.5507 -0.4596
   7323SM  H23H 9664   5.952   2.750   4.921 -0.4509 -0.6027  1.2959
   7423SM     N 9665   0.783   4.698   7.838 -0.3093  0.4729 -0.8855
   7423SM   C15 9666   0.651   4.746   7.802 -0.4621  0.6981 -0.0244
   7423SM  H15A 9667   0.590   4.673   7.751 -1.8895  0.7205  1.5727
   7423SM  H15B 9668   0.664   4.836   7.743  3.6646  2.6696  3.3263
   7423SM  H15C 9669   0.596   4.770   7.892 -0.1274  0.6013  0.2107
   7423SM   C14 9670   0.840   4.791   7.947 -0.5310  0.1705  0.2961
   7423SM  H14A 9671   0.925   4.737   7.985 -0.4979  0.1465  0.1883
   7423SM  H14B 9672   0.776   4.818   8.030 -0.1113  1.0064  0.3467
   7423SM  H14C 9673   0.870   4.881   7.896  1.6074 -1.5412 -1.7059
   7423SM   C13 9674   0.770   4.563   7.904  0.4439 -0.6979  0.7131
   7423SM  H13A 9675   0.704   4.571   7.989 -0.3686 -0.6761  0.0882
   7423SM  H13B 9676   0.867   4.532   7.941  0.2350 -1.5613  0.5501
   7423SM  H13C 9677   0.730   4.481   7.846  0.3236  0.1926 -0.4837
   7423SM   C12 9678   0.877   4.698   7.725 -0.1931  0.0442  0.1529
   7423SM  H12A 9679   0.849   4.629   7.647 -2.9511  3.6427 -2.3832
   7423SM  H12B 9680   0.973   4.660   7.756  0.3793  0.2079 -1.3389
   7423SM   C11 9681   0.898   4.830   7.648  0.1249  0.0297  0.0711
   7423SM  H11A 9682   0.995   4.806   7.600  0.3998  0.2708  0.4959
   7423SM  H11B 9683   0.924   4.913   7.717 -1.2243  1.1054 -0.6581
   7423SM     P 9684   0.734   5.002   7.544 -0.2133 -0.1992 -0.2828
   7423SM   O13 9685   0.605   5.008   7.613 -0.7489  0.5477  0.2093
   7423SM   O14 9686   0.833   5.107   7.587  0.0553 -0.5233  0.3105
   7423SM   O11 9687   0.702   5.019   7.394 -0.0287 -0.4891  0.2499
   7423SM   O12 9688   0.795   4.852   7.551  0.4783 -0.3557  0.1029
   7423SM   C1S 9689   0.758   4.935   7.296 -0.4887 -0.7027  0.3255
   7423SM   H1S 9690   0.741   4.826   7.311 -1.0814 -0.7046 -0.3070
   7423SM   H1T 9691   0.867   4.949   7.280 -0.4017 -1.3898  0.2844
   7423SM    NF 9692   0.711   4.862   7.056 -0.5051 -0.0469  0.5103
   7423SM   HNF 9693   0.784   4.867   6.989  0.0912 -0.8563  1.0748
   7423SM   C2S 9694   0.703   4.972   7.155  0.1336 -0.2927  0.2400
   7423SM   H2S 9695   0.595   4.992   7.170  0.1326  0.2215 -0.4119
   7423SM   C3S 9696   0.776   5.104   7.106  0.2528 -0.1373 -0.6762
   7423SM   H3S 9697   0.881   5.070   7.091 -0.2345 -1.2588 -1.7719
   7423SM    O3 9698   0.783   5.205   7.204  0.7839 -0.3803 -0.2201
   7423SM   HO3 9699   0.728   5.177   7.278 -0.3325 -1.1963 -1.3112
   7423SM   C4S 9700   0.715   5.156   6.979 -0.0055 -0.4418 -0.1693
   7423SM   H4S 9701   0.605   5.156   6.970 -0.0735 -1.1895  0.5189
   7423SM   C5S 9702   0.788   5.199   6.871 -0.1317 -0.3943  0.6369
   7423SM   H5S 9703   0.896   5.202   6.892 -0.2002 -0.4573  0.9958
   7423SM   C6S 9704   0.733   5.252   6.743 -0.7375  0.9504  0.6243
   7423SM   H6S 9705   0.804   5.223   6.663  0.0094 -0.5451  1.7644
   7423SM   H6T 9706   0.738   5.363   6.742  0.9808  0.8942  0.7654
   7423SM   C7S 9707   0.590   5.197   6.711  0.0397  0.1693  0.4366
   7423SM   H7S 9708   0.510   5.249   6.769 -1.7127 -2.0290  0.1071
   7423SM   H7T 9709   0.574   5.089   6.729 -2.1731  0.2817 -0.5557
   7423SM   C8S 9710   0.556   5.216   6.560 -0.0624  0.5496  0.6165
   7423SM   H8S 9711   0.453   5.178   6.542 -0.6029  2.2720 -0.0997
   7423SM   H8T 9712   0.628   5.160   6.497 -1.5856 -0.0347 -0.6658
   7423SM   C9S 9713   0.558   5.368   6.508 -0.3379  0.3691 -0.8075
   7423SM   H9S 9714   0.663   5.404   6.500 -0.5307  1.3907  0.8543
   7423SM   H9T 9715   0.511   5.431   6.586 -0.5363 -0.5676 -0.1563
   7423SM  C10S 9716   0.491   5.399   6.373  0.2311 -0.0608 -0.3896
   7423SM  H10S 9717   0.479   5.505   6.343  2.1847  0.3406  0.1321
   7423SM  H10T 9718   0.391   5.350   6.370 -0.1898  0.8267 -1.7442
   7423SM  C11S 9719   0.568   5.347   6.251  0.4088 -0.1524  0.1456
   7423SM  H11S 9720   0.576   5.236   6.254 -2.6086 -0.4435  0.5153
   7423SM  H11T 9721   0.666   5.398   6.234  0.3497 -0.8397 -2.9050
   7423SM  C12S 9722   0.480   5.372   6.130  0.5815 -0.2461  0.2609
   7423SM  H12S 9723   0.474   5.481   6.110 -1.7350 -0.3209  0.2672
   7423SM  H12T 9724   0.377   5.334   6.149  0.1042  0.1096 -1.4026
   7423SM  C13S 9725   0.528   5.318   5.993 -0.3574 -0.4710  0.1715
   7423SM  H13S 9726   0.495   5.212   5.990 -3.5421  0.3676  1.5055
   7423SM  H13T 9727   0.638   5.319   5.977 -0.1821 -3.1623  0.7497
   7423SM  C14S 9728   0.462   5.391   5.879 -0.0021 -0.4798 -0.7957
   7423SM  H14S 9729   0.488   5.497   5.899  0.4988 -0.7428  0.0119
   7423SM  H14T 9730   0.353   5.376   5.888  0.2312 -1.9259  0.0445
   7423SM  C15S 9731   0.509   5.342   5.741 -0.5748  0.2592 -0.7160
   7423SM  H15S 9732   0.506   5.231   5.741  2.9659  0.0614 -0.5892
   7423SM  H15T 9733   0.616   5.369   5.736 -0.7232  0.5919 -2.5735
   7423SM  C16S 9734   0.427   5.381   5.621  0.3516 -0.3099 -0.3427
   7423SM  H16S 9735   0.403   5.489   5.611 -3.3329 -0.8995  0.7936
   7423SM  H16T 9736   0.334   5.325   5.641 -0.1282 -0.2882 -2.3515
   7423SM  C17S 9737   0.477   5.322   5.482 -0.4052  0.0921 -0.3591
   7423SM  H17S 9738   0.474   5.213   5.502  0.7857  0.1248  0.1097
   7423SM  H17T 9739   0.586   5.341   5.472 -0.1740 -1.4609 -0.9802
   7423SM  C18S 9740   0.390   5.361   5.370  1.0537 -0.2172  0.6815
   7423SM  H18S 9741   0.283   5.335   5.387  0.6835  0.5827 -0.2754
   7423SM  H18T 9742   0.422   5.292   5.289  0.4097 -0.5065  0.6628
   7423SM  H18U 9743   0.389   5.467   5.336 -1.7167 -0.4119 -0.1442
   7423SM   C1F 9744   0.643   4.750   7.068  0.2424 -0.0498  0.5766
   7423SM    OF 9745   0.573   4.720   7.171  0.1373 -0.0779  0.2224
   7423SM   C2F 9746   0.672   4.648   6.967 -0.3634  0.4908  0.3759
   7423SM   H2F 9747   0.730   4.561   7.006 -0.2928  0.1431 -0.4814
   7423SM   H2G 9748   0.739   4.686   6.887  0.2411 -0.1099  0.5825
   7423SM   C3F 9749   0.545   4.587   6.905 -0.4717  0.2429  0.1521
   7423SM   H3F 9750   0.487   4.538   6.986  2.1189 -1.3708  1.1389
   7423SM   H3G 9751   0.567   4.515   6.823 -0.3661  0.2634  0.1622
   7423SM   C4F 9752   0.455   4.698   6.841 -0.7729  0.1433  0.6128
   7423SM   H4F 9753   0.416   4.778   6.907 -0.0004  2.1159 -1.2049
   7423SM   H4G 9754   0.361   4.656   6.799  0.0400  0.9882 -2.2986
   7423SM   C5F 9755   0.517   4.770   6.721  0.5637  0.0259  0.2502
   7423SM   H5F 9756   0.556   4.684   6.663 -1.4190 -0.8956  0.2011
   7423SM   H5G 9757   0.599   4.842   6.740 -0.9397  1.5758  1.1096
   7423SM   C6F 9758   0.408   4.831   6.622  0.4892  0.5773  1.0859
   7423SM   H6F 9759   0.371   4.924   6.669  0.8540  2.2599 -1.7088
   7423SM   H6G 9760   0.319   4.766   6.609 -0.6752  2.3263 -0.0666
   7423SM   C7F 9761   0.457   4.844   6.479 -0.3530  0.0094  0.7522
   7423SM   H7F 9762   0.475   4.744   6.434  1.8687 -0.4574  2.4932
   7423SM   H7G 9763   0.551   4.904   6.475 -1.6351  2.4621  3.4618
   7423SM   C8F 9764   0.360   4.925   6.378 -0.5274  0.4466 -0.0174
   7423SM   H8F 9765   0.335   5.015   6.438  2.0647  0.5026  1.0888
   7423SM   H8G 9766   0.261   4.875   6.374 -0.5988  0.6306 -0.7906
   7423SM   C9F 9767   0.419   4.960   6.242  0.3798  0.7969 -0.0238
   7423SM   H9F 9768   0.520   5.006   6.238  0.8708 -0.2533  0.0396
   7423SM   H9G 9769   0.358   5.032   6.184 -0.1913  0.8703  0.6552
   7423SM  C10F 9770   0.441   4.837   6.157  0.2215 -1.0141 -0.0894
   7423SM  H10F 9771   0.345   4.800   6.115 -0.2266 -0.1099  0.1178
   7423SM  H10G 9772   0.474   4.752   6.221 -0.7134  0.2202  2.1597
   7423SM  C11F 9773   0.543   4.851   6.052  0.3461 -0.2576  0.6859
   7423SM  H11F 9774   0.647   4.861   6.090  0.5991 -2.1358  0.5841
   7423SM  H11G 9775   0.534   4.942   5.989  1.2160 -0.4476  0.2781
   7423SM  C12F 9776   0.529   4.746   5.943  0.3820  0.2427 -0.5360
   7423SM  H12F 9777   0.427   4.761   5.901 -0.3365 -1.7813  0.3167
   7423SM  H12G 9778   0.519   4.645   5.989  1.0388  0.6106  0.4615
   7423SM  C13F 9779   0.630   4.754   5.827  0.2400 -0.6635 -0.2616
   7423SM  H13F 9780   0.733   4.745   5.866  0.2427  0.1987 -0.0364
   7423SM  H13G 9781   0.631   4.858   5.787  0.0280 -0.9442 -1.0056
   7423SM  C14F 9782   0.599   4.639   5.734 -0.6474 -0.0595  0.3706
   7423SM  H14F 9783   0.495   4.649   5.696 -1.6469 -3.4811  1.8079
   7423SM  H14G 9784   0.611   4.535   5.773  1.5625 -0.7351 -1.7977
   7423SM  C15F 9785   0.706   4.650   5.615 -0.6289 -0.2833 -0.2165
   7423SM  H15F 9786   0.805   4.661   5.664 -1.8000  4.2951  1.6945
   7423SM  H15G 9787   0.687   4.745   5.560 -0.6747  0.3521  0.8562
   7423SM  C16F 9788   0.705   4.524   5.529  0.3648 -0.3611 -0.0733
   7423SM  H16F 9789   0.617   4.544   5.464  1.0830 -1.2257 -1.3612
   7423SM  H16G 9790   0.689   4.430   5.585  2.1958 -0.0204  1.1002
   7423SM  C17F 9791   0.819   4.526   5.429 -0.1853 -0.1197 -0.1981
   7423SM  H17F 9792   0.909   4.495   5.487 -1.2709 -0.7462  1.2293
   7423SM  H17G 9793   0.825   4.631   5.395 -0.2105  0.0311  0.2520
   7423SM  C18F 9794   0.797   4.434   5.304 -0.6047 -0.6248  0.3937
   7423SM  H18F 9795   0.701   4.460   5.255  0.6913 -1.0617 -2.5564
   7423SM  H18G 9796   0.796   4.328   5.338 -1.9499 -0.5304  0.6964
   7423SM  C19F 9797   0.916   4.442   5.205 -1.1538 -1.5984  0.4130
   7423SM  H19F 9798   1.006   4.397   5.253 -0.1073  2.3010  2.5610
   7423SM  H19G 9799   0.927   4.552   5.189 -0.4720 -1.4286  1.8374
   7423SM  C20F 9800   0.900   4.365   5.075 -0.5216  0.0175  0.0922
   7423SM  H20F 9801   0.828   4.428   5.018  0.2343 -0.9248 -1.9934
   7423SM  H20G 9802   0.857   4.264   5.093 -2.0424  0.6379  0.1586
   7423SM  C21F 9803   1.022   4.350   4.984  0.0670  0.1150 -0.7642
   7423SM  H21F 9804   1.086   4.278   5.040 -1.4410 -2.5302 -2.2121
   7423SM  H21G 9805   1.074   4.448   4.977  0.4027  0.3473  2.8375
   7423SM  C22F 9806   0.993   4.274   4.849  0.2091 -0.2855 -0.1521
   7423SM  H22F 9807   0.923   4.331   4.784  0.3850  1.1400  0.8517
   7423SM  H22G 9808   0.938   4.180   4.872  0.1307 -0.0325  0.7239
   7423SM  C23F 9809   1.114   4.258   4.763 -0.2832 -0.4264  0.3428
   7423SM  H23F 9810   1.139   4.356   4.716 -2.4288  0.0569  0.0893
   7423SM  H23G 9811   1.079   4.189   4.683 -0.8701 -1.2356  1.2780
   7423SM  H23H 9812   1.197   4.206   4.815 -1.0517  0.4541  2.5235
   7523SM     N 9813   6.725   6.227   7.745 -0.1460  0.0119  0.9958
   7523SM   C15 9814   6.693   6.370   7.778 -0.1000  0.1013  0.1707
   7523SM  H15A 9815   6.724   6.401   7.877  0.7008 -0.2881  0.0549
   7523SM  H15B 9816   6.586   6.382   7.772  0.0544  0.7797 -1.6911
   7523SM  H15C 9817   6.738   6.437   7.707 -1.3490  0.3730 -0.3910
   7523SM   C14 9818   6.873   6.215   7.761  0.2526 -0.3069  0.6954
   7523SM  H14A 9819   6.923   6.273   7.685  0.7211  0.3504  1.4856
   7523SM  H14B 9820   6.906   6.113   7.751 -0.6928 -0.5436 -0.1234
   7523SM  H14C 9821   6.906   6.270   7.848  1.5543  1.1786 -0.6638
   7523SM   C13 9822   6.653   6.131   7.828 -0.1362  0.5842 -0.0211
   7523SM  H13A 9823   6.675   6.030   7.797  0.3005  0.6296  0.1352
   7523SM  H13B 9824   6.546   6.145   7.831 -0.9050 -3.9223  1.7819
   7523SM  H13C 9825   6.685   6.157   7.928 -0.3726 -0.3854  0.3180
   7523SM   C12 9826   6.680   6.210   7.598  0.4381 -0.8689 -0.8415
   7523SM  H12A 9827   6.577   6.239   7.595  0.6110 -0.2970 -1.3275
   7523SM  H12B 9828   6.674   6.105   7.573 -0.1339 -0.5387 -2.1683
   7523SM   C11 9829   6.750   6.294   7.489  0.1336  0.1760 -0.2745
   7523SM  H11A 9830   6.716   6.267   7.387  0.8364  1.8667 -0.9906
   7523SM  H11B 9831   6.860   6.278   7.485  0.0715 -0.1434 -0.7871
   7523SM     P 9832   6.603   6.502   7.446  0.1847  0.1832  0.1614
   7523SM   O13 9833   6.483   6.442   7.502  0.0629 -0.4555  0.6109
   7523SM   O14 9834   6.622   6.647   7.464  0.1222 -0.2277  0.8560
   7523SM   O11 9835   6.605   6.468   7.295 -0.0671  0.4659  0.0570
   7523SM   O12 9836   6.727   6.437   7.508  0.0991  0.5222  0.4058
   7523SM   C1S 9837   6.728   6.477   7.214  0.6648  0.1366 -0.1050
   7523SM   H1S 9838   6.800   6.400   7.250  0.5234  0.4894  0.9735
   7523SM   H1T 9839   6.775   6.576   7.235  0.0517  0.0876  1.6133
   7523SM    NF 9840   6.827   6.449   6.985  0.1420  0.3756 -0.0452
   7523SM   HNF 9841   6.872   6.533   6.956 -1.3087  1.4081  0.5953
   7523SM   C2S 9842   6.700   6.458   7.053 -0.0514  0.6977 -0.6889
   7523SM   H2S 9843   6.643   6.363   7.047 -0.5486  0.9378  0.1357
   7523SM   C3S 9844   6.612   6.571   6.998  0.0046  0.0926 -0.1279
   7523SM   H3S 9845   6.668   6.667   7.004  0.1269 -0.0150  0.6440
   7523SM    O3 9846   6.488   6.570   7.062 -0.2202 -0.3561 -0.2619
   7523SM   HO3 9847   6.487   6.506   7.134 -0.7457  0.4900  0.5108
   7523SM   C4S 9848   6.580   6.552   6.855 -0.2207 -0.8850  0.1442
   7523SM   H4S 9849   6.509   6.476   6.820 -0.9511 -0.6850  1.1773
   7523SM   C5S 9850   6.656   6.604   6.752  0.4226  0.0620  0.0106
   7523SM   H5S 9851   6.744   6.664   6.780  0.6964 -0.5538  0.5102
   7523SM   C6S 9852   6.627   6.592   6.605 -0.6159  0.1299  0.4342
   7523SM   H6S 9853   6.667   6.686   6.561  0.0527  0.5305  1.8408
   7523SM   H6T 9854   6.516   6.595   6.596 -0.6465 -0.8608  0.3541
   7523SM   C7S 9855   6.690   6.473   6.531  0.5768 -0.0210 -0.0737
   7523SM   H7S 9856   6.645   6.377   6.563  2.3530 -1.7066 -2.3397
   7523SM   H7T 9857   6.800   6.461   6.542  0.3414 -3.3498 -0.6346
   7523SM   C8S 9858   6.654   6.460   6.382  0.4199  0.0986  0.1009
   7523SM   H8S 9859   6.716   6.380   6.337  1.2637  0.2133  1.0327
   7523SM   H8T 9860   6.680   6.554   6.327 -1.5625 -0.1171 -1.3310
   7523SM   C9S 9861   6.510   6.424   6.364  0.1236  0.2295  0.0198
   7523SM   H9S 9862   6.450   6.513   6.394 -0.7843  0.2965 -1.8913
   7523SM   H9T 9863   6.493   6.330   6.420  0.3352  0.7824  1.0411
   7523SM  C10S 9864   6.465   6.415   6.214  1.6145 -0.1297 -0.7378
   7523SM  H10S 9865   6.501   6.509   6.168 -1.1661  2.2244  1.5378
   7523SM  H10T 9866   6.354   6.417   6.212  1.5813  0.2003  0.4812
   7523SM  C11S 9867   6.513   6.287   6.140  0.6531 -0.1705  0.0952
   7523SM  H11S 9868   6.476   6.201   6.201 -0.8416  0.3952  0.0408
   7523SM  H11T 9869   6.624   6.281   6.138  0.6693  0.0272  0.3887
   7523SM  C12S 9870   6.451   6.271   6.002  0.2565 -0.4042  0.3404
   7523SM  H12S 9871   6.342   6.294   6.003  0.2975 -0.1927  0.0025
   7523SM  H12T 9872   6.452   6.162   5.979  0.2806  0.2042 -2.9666
   7523SM  C13S 9873   6.506   6.349   5.884 -0.1049 -0.1887 -0.1330
   7523SM  H13S 9874   6.617   6.339   5.885 -0.1981 -1.6962  1.9755
   7523SM  H13T 9875   6.480   6.456   5.902 -0.2087 -0.4056  1.0940
   7523SM  C14S 9876   6.462   6.302   5.745 -0.0595  0.1309 -0.0653
   7523SM  H14S 9877   6.483   6.385   5.674 -1.2245  0.7804  0.3464
   7523SM  H14T 9878   6.352   6.290   5.738  0.2203 -3.0231 -0.4466
   7523SM  C15S 9879   6.531   6.179   5.689  0.0063  0.1189  0.1595
   7523SM  H15S 9880   6.483   6.087   5.728 -0.8010  0.9378  1.1768
   7523SM  H15T 9881   6.635   6.172   5.728 -0.0913 -1.5672  0.1597
   7523SM  C16S 9882   6.537   6.172   5.533 -0.6321  0.2874 -0.0065
   7523SM  H16S 9883   6.585   6.079   5.495 -1.8072 -0.7022  0.8384
   7523SM  H16T 9884   6.591   6.254   5.483 -0.6155  0.2873  0.0108
   7523SM  C17S 9885   6.393   6.175   5.465  0.0621 -0.7397 -0.4845
   7523SM  H17S 9886   6.345   6.273   5.487 -0.7371 -0.4782 -3.1209
   7523SM  H17T 9887   6.338   6.091   5.513  0.7078 -0.7239  0.3081
   7523SM  C18S 9888   6.387   6.160   5.311  0.3034  0.9865 -0.2415
   7523SM  H18S 9889   6.440   6.070   5.275 -2.7506 -1.1124  0.0622
   7523SM  H18T 9890   6.441   6.240   5.257  0.9355  0.5654 -0.2379
   7523SM  H18U 9891   6.284   6.152   5.269  0.5062 -0.5508 -0.4911
   7523SM   C1F 9892   6.910   6.345   6.983  1.1867  0.2953  0.7509
   7523SM    OF 9893   6.871   6.234   7.020 -0.4295 -0.3600  0.2684
   7523SM   C2F 9894   7.047   6.372   6.930 -0.7748 -0.0057 -1.1089
   7523SM   H2F 9895   7.113   6.375   7.019 -1.5152  0.3903 -0.5573
   7523SM   H2G 9896   7.050   6.471   6.882 -0.6567  1.2450  1.3095
   7523SM   C3F 9897   7.099   6.262   6.839 -0.2397  0.1248 -0.3010
   7523SM   H3F 9898   7.081   6.163   6.885 -2.6349  0.6795  0.1015
   7523SM   H3G 9899   7.210   6.274   6.838 -0.1020 -1.0399 -0.0121
   7523SM   C4F 9900   7.033   6.260   6.699 -0.5282  0.4002 -0.6738
   7523SM   H4F 9901   7.056   6.345   6.631 -1.7283  0.4649 -1.0261
   7523SM   H4G 9902   6.923   6.260   6.718 -0.2587  0.7179  1.0230
   7523SM   C5F 9903   7.060   6.133   6.616  0.2353  0.5062  0.3970
   7523SM   H5F 9904   6.995   6.044   6.632  0.2885  0.2893 -0.5309
   7523SM   H5G 9905   7.155   6.086   6.653 -0.8720 -0.4617  2.1844
   7523SM   C6F 9906   7.086   6.168   6.469 -0.3280 -0.2690  0.9415
   7523SM   H6F 9907   7.089   6.068   6.421 -0.4125  0.0498  0.2600
   7523SM   H6G 9908   7.180   6.222   6.449  0.8239 -1.4987  2.7125
   7523SM   C7F 9909   6.978   6.248   6.395 -0.0279 -0.2353  0.2547
   7523SM   H7F 9910   6.974   6.353   6.432 -0.1858  0.6958 -2.2213
   7523SM   H7G 9911   6.878   6.205   6.417 -0.9895  1.8783  0.2940
   7523SM   C8F 9912   6.996   6.243   6.243 -0.5838  0.3908  0.2294
   7523SM   H8F 9913   7.105   6.250   6.225 -0.5364 -0.6301  0.0482
   7523SM   H8G 9914   6.952   6.327   6.185  0.7310  2.0845  1.5473
   7523SM   C9F 9915   6.931   6.116   6.180 -0.3175 -0.4597  0.7094
   7523SM   H9F 9916   6.821   6.109   6.198  0.2017 -1.1257  4.6027
   7523SM   H9G 9917   6.975   6.031   6.237 -0.8513 -0.2339  1.4782
   7523SM  C10F 9918   6.962   6.094   6.031 -0.2417 -0.0474  0.4528
   7523SM  H10F 9919   6.937   5.987   6.011 -0.5068 -0.3173  2.0834
   7523SM  H10G 9920   7.071   6.107   6.013 -0.2140 -0.5867  0.2106
   7523SM  C11F 9921   6.881   6.188   5.947 -0.5855 -0.4807 -0.3177
   7523SM  H11F 9922   6.888   6.290   5.989 -0.9553 -0.9665  0.9801
   7523SM  H11G 9923   6.777   6.153   5.964 -0.5859  0.4796  2.1301
   7523SM  C12F 9924   6.925   6.186   5.797  0.6006 -0.3626  0.8787
   7523SM  H12F 9925   7.025   6.232   5.782  0.7809 -1.4945 -1.9709
   7523SM  H12G 9926   6.852   6.247   5.740  1.0313  0.1321  0.8479
   7523SM  C13F 9927   6.936   6.048   5.728 -0.6721  0.2492  0.1554
   7523SM  H13F 9928   6.858   5.980   5.769  1.0171 -1.3998  0.7883
   7523SM  H13G 9929   7.032   6.005   5.765 -1.4607 -1.0392  0.7488
   7523SM  C14F 9930   6.925   6.054   5.583 -0.6652  0.0523  0.5408
   7523SM  H14F 9931   7.009   6.118   5.548 -0.9093  0.0258 -0.1079
   7523SM  H14G 9932   6.829   6.102   5.551  0.6652  2.1492 -0.5527
   7523SM  C15F 9933   6.939   5.918   5.506  0.3776  0.3075  0.5554
   7523SM  H15F 9934   6.870   5.838   5.542 -0.2102 -0.9912 -3.0756
   7523SM  H15G 9935   7.041   5.875   5.516 -0.7037 -2.7769 -0.2584
   7523SM  C16F 9936   6.928   5.931   5.350 -0.6600 -0.2508 -0.2627
   7523SM  H16F 9937   6.990   6.014   5.310  0.7712 -0.7786  0.7951
   7523SM  H16G 9938   6.821   5.957   5.334 -0.7547 -0.4220  0.0921
   7523SM  C17F 9939   6.966   5.806   5.270 -0.1834 -0.3694 -0.3556
   7523SM  H17F 9940   7.059   5.762   5.311  0.3718  1.2542  0.2080
   7523SM  H17G 9941   6.992   5.840   5.168  3.0767 -0.5945  0.2943
   7523SM  C18F 9942   6.855   5.697   5.278  0.1998  0.3130 -0.8489
   7523SM  H18F 9943   6.758   5.746   5.255 -0.6243 -0.2362  1.2040
   7523SM  H18G 9944   6.860   5.651   5.379 -0.3461  1.7693 -0.1216
   7523SM  C19F 9945   6.880   5.599   5.161  0.9950 -0.1916 -0.2585
   7523SM  H19F 9946   6.865   5.652   5.065 -3.1334 -0.2573  0.1889
   7523SM  H19G 9947   6.796   5.526   5.159  0.2810  0.6120 -0.4683
   7523SM  C20F 9948   7.005   5.507   5.160  0.1567 -0.2671 -0.0445
   7523SM  H20F 9949   7.097   5.562   5.129  1.3459 -1.9742  0.3236
   7523SM  H20G 9950   7.012   5.429   5.082 -0.8858 -0.0217 -0.3913
   7523SM  C21F 9951   7.042   5.451   5.303  0.3820  0.0289 -0.5090
   7523SM  H21F 9952   7.051   5.543   5.365  0.0730  1.9681 -3.1456
   7523SM  H21G 9953   7.141   5.401   5.306  0.8826  0.9776 -0.6788
   7523SM  C22F 9954   6.941   5.352   5.358 -0.5071 -0.3800 -0.2509
   7523SM  H22F 9955   6.933   5.255   5.304  0.3600  1.2192 -3.5524
   7523SM  H22G 9956   6.848   5.413   5.348  0.4137  1.3569  1.0950
   7523SM  C23F 9957   6.961   5.329   5.509 -0.3184  0.4636 -1.1797
   7523SM  H23F 9958   6.874   5.272   5.548  1.2696 -2.0479 -1.0731
   7523SM  H23G 9959   6.970   5.433   5.547 -0.5332 -0.3254  1.1641
   7523SM  H23H 9960   7.061   5.284   5.523 -0.5233  0.2450 -0.3381
   7623SM     N 9961   7.009   5.860   7.219 -0.7226 -0.1149  0.3012
   7623SM   C15 9962   7.026   5.811   7.074  0.3374 -0.6073  0.9035
   7623SM  H15A 9963   7.120   5.846   7.034 -1.2083  1.7473 -0.9150
   7623SM  H15B 9964   6.953   5.863   7.014  1.2091 -0.1459  0.2388
   7623SM  H15C 9965   7.016   5.705   7.054  2.1274 -0.4588 -1.0069
   7623SM   C14 9966   6.874   5.835   7.280  0.1827  0.3586 -0.6888
   7623SM  H14A 9967   6.851   5.907   7.357  0.2346 -1.5581  1.2007
   7623SM  H14B 9968   6.885   5.740   7.329  0.4627  0.5279 -0.4250
   7623SM  H14C 9969   6.799   5.826   7.202  1.4023 -0.1254 -1.8503
   7623SM   C13 9970   7.117   5.801   7.301 -0.1536  0.0130  0.0422
   7623SM  H13A 9971   7.203   5.774   7.241 -0.2451  0.8496 -0.4767
   7623SM  H13B 9972   7.086   5.706   7.343 -0.4204 -0.1076 -0.4144
   7623SM  H13C 9973   7.137   5.877   7.375 -2.7252  1.4124 -0.5989
   7623SM   C12 9974   7.030   6.010   7.216 -0.3016  0.5437  0.8591
   7623SM  H12A 9975   6.977   6.049   7.130 -0.3540 -0.6958  0.3031
   7623SM  H12B 9976   7.133   6.032   7.190 -0.4319  1.1460  0.8346
   7623SM   C11 9977   6.997   6.102   7.341  0.0689  0.4571  0.1459
   7623SM  H11A 9978   6.890   6.089   7.368 -0.3087  1.7507 -0.6238
   7623SM  H11B 9979   7.020   6.201   7.296 -1.3144 -0.1423 -2.0375
   7623SM     P 9980   7.189   6.165   7.501 -0.4809 -0.0445 -0.2909
   7623SM   O13 9981   7.115   6.285   7.549 -0.8763 -0.4671  0.3362
   7623SM   O14 9982   7.274   6.097   7.600 -0.1366  0.3455 -0.3353
   7623SM   O11 9983   7.277   6.211   7.375 -0.2241  0.3532 -0.5250
   7623SM   O12 9984   7.087   6.061   7.446 -0.0809 -0.7118  0.0816
   7623SM   C1S 9985   7.375   6.129   7.310 -0.1864 -0.0725  1.1089
   7623SM   H1S 9986   7.353   6.020   7.317  1.4235 -0.4338  0.9803
   7623SM   H1T 9987   7.474   6.142   7.358  1.1227 -0.0973 -1.4085
   7623SM    NF 9988   7.496   6.070   7.094 -0.8644  0.2347 -0.1822
   7623SM   HNF 9989   7.595   6.082   7.093 -0.8325 -0.0483 -1.2900
   7623SM   C2S 9990   7.409   6.173   7.160  0.2083 -0.2423 -0.0060
   7623SM   H2S 9991   7.310   6.165   7.111 -0.2799 -2.1805  1.1872
   7623SM   C3S 9992   7.470   6.310   7.151 -0.2170 -0.0453  0.1673
   7623SM   H3S 9993   7.580   6.302   7.166 -0.0623 -0.7191 -1.1829
   7623SM    O3 9994   7.435   6.400   7.258 -0.1548  0.6215  0.7180
   7623SM   HO3 9995   7.376   6.348   7.313  0.8756  0.3547  1.6126
   7623SM   C4S 9996   7.441   6.369   7.010  0.6749 -0.0637  0.7803
   7623SM   H4S 9997   7.335   6.388   6.989  1.0657 -0.2383 -1.6343
   7623SM   C5S 9998   7.529   6.385   6.907  0.4442 -0.0229 -0.3831
   7623SM   H5S 9999   7.632   6.347   6.911  1.3124  2.2024  0.3328
   7623SM   C6S10000   7.481   6.447   6.780 -0.7587 -0.7345  0.5144
   7623SM   H6S10001   7.517   6.551   6.762  0.0270 -0.6468  2.3910
   7623SM   H6T10002   7.370   6.455   6.776 -0.6007  1.6253 -1.3286
   7623SM   C7S10003   7.521   6.369   6.653  0.2379  0.5002 -0.4109
   7623SM   H7S10004   7.482   6.265   6.660 -0.0005  0.6033 -0.1277
   7623SM   H7T10005   7.630   6.367   6.637  0.2079  0.3288 -0.6017
   7623SM   C8S10006   7.449   6.443   6.535  0.1087 -0.2121 -0.2826
   7623SM   H8S10007   7.502   6.540   6.537  0.6310 -0.4799 -0.7266
   7623SM   H8T10008   7.340   6.450   6.554 -0.1945  0.2532 -2.0493
   7623SM   C9S10009   7.477   6.373   6.399  0.1704  0.4352  0.4004
   7623SM   H9S10010   7.470   6.264   6.417  1.5894 -0.1968 -2.2542
   7623SM   H9T10011   7.576   6.391   6.353  1.1598  1.1412  2.7015
   7623SM  C10S10012   7.363   6.395   6.294 -0.0579  0.2408 -0.1057
   7623SM  H10S10013   7.351   6.500   6.261 -0.2408  1.1867  2.7156
   7623SM  H10T10014   7.266   6.361   6.335  1.1101 -4.0422 -0.4117
   7623SM  C11S10015   7.376   6.309   6.168  0.3325  0.6028  0.0220
   7623SM  H11S10016   7.272   6.298   6.129  1.1387 -0.5041 -1.9739
   7623SM  H11T10017   7.417   6.207   6.179 -1.8939 -0.1377  2.3209
   7623SM  C12S10018   7.450   6.375   6.054 -0.0080 -1.0015  0.2131
   7623SM  H12S10019   7.553   6.401   6.085  0.6702 -0.7086 -2.0815
   7623SM  H12T10020   7.398   6.465   6.014  1.4885  0.0423  0.5179
   7623SM  C13S10021   7.479   6.287   5.940  0.6799  0.0785 -0.5032
   7623SM  H13S10022   7.499   6.183   5.973 -0.2815  0.3333  0.9662
   7623SM  H13T10023   7.574   6.322   5.894 -0.3923  1.7611 -1.5378
   7623SM  C14S10024   7.371   6.284   5.842  0.7383  0.3235 -0.0692
   7623SM  H14S10025   7.370   6.391   5.811  1.3482  1.5266  3.4989
   7623SM  H14T10026   7.267   6.274   5.881  1.4784  0.1437  2.0207
   7623SM  C15S10027   7.386   6.186   5.734 -0.2119  0.2456 -0.1556
   7623SM  H15S10028   7.350   6.088   5.772 -0.5761 -0.0977 -1.3652
   7623SM  H15T10029   7.496   6.181   5.718 -0.1402 -0.5096  0.5058
   7623SM  C16S10030   7.310   6.215   5.606 -0.4864 -0.5261  0.2499
   7623SM  H16S10031   7.201   6.220   5.628 -0.4024  1.8718  0.3795
   7623SM  H16T10032   7.328   6.127   5.541 -3.3805  1.0804 -3.0642
   7623SM  C17S10033   7.354   6.335   5.524 -0.6127 -1.1020  0.1566
   7623SM  H17S10034   7.463   6.330   5.543 -0.4810 -0.1240 -0.2995
   7623SM  H17T10035   7.309   6.427   5.566 -2.0301 -1.3471 -0.7653
   7623SM  C18S10036   7.312   6.316   5.381  0.4337 -0.6306  0.1209
   7623SM  H18S10037   7.339   6.405   5.321 -0.2553 -0.0683  0.6362
   7623SM  H18T10038   7.201   6.314   5.374  0.3430  3.1449 -2.1429
   7623SM  H18U10039   7.347   6.225   5.327  0.4895 -1.0256  0.8106
   7623SM   C1F10040   7.439   5.961   7.045  0.6371  0.2199 -0.0400
   7623SM    OF10041   7.325   5.937   7.090 -0.5249 -0.0677  0.3782
   7623SM   C2F10042   7.508   5.872   6.948  0.2867  0.0967  0.4714
   7623SM   H2F10043   7.502   5.767   6.985  3.4849 -0.9135 -1.5004
   7623SM   H2G10044   7.615   5.902   6.948  0.3157  0.0760  1.6999
   7623SM   C3F10045   7.442   5.872   6.810  0.1066 -0.0986  0.2760
   7623SM   H3F10046   7.428   5.975   6.773 -0.2146  0.1436  1.0541
   7623SM   H3G10047   7.347   5.817   6.828  0.3786 -1.3613 -1.7569
   7623SM   C4F10048   7.530   5.797   6.710 -0.4673  0.7412  0.4206
   7623SM   H4F10049   7.559   5.694   6.740 -1.5189  0.1520 -0.5265
   7623SM   H4G10050   7.626   5.854   6.707 -0.5042  0.7827 -0.2049
   7623SM   C5F10051   7.471   5.796   6.564 -0.0017 -0.2383 -0.4352
   7623SM   H5F10052   7.391   5.719   6.563 -0.2761 -0.1767  3.0118
   7623SM   H5G10053   7.549   5.760   6.494  0.0895 -0.6957 -0.1086
   7623SM   C6F10054   7.425   5.937   6.522 -0.1237  0.3520 -0.8247
   7623SM   H6F10055   7.508   6.009   6.541  1.9164 -1.4993 -2.1492
   7623SM   H6G10056   7.333   5.963   6.579  0.7853  1.2218  0.3008
   7623SM   C7F10057   7.413   5.953   6.373  0.2666  0.5807  0.4212
   7623SM   H7F10058   7.517   5.939   6.338  0.7904  0.1943  2.0376
   7623SM   H7G10059   7.367   6.051   6.350  0.2066  0.4493 -0.0357
   7623SM   C8F10060   7.322   5.850   6.307  0.2594 -0.9603  0.0710
   7623SM   H8F10061   7.222   5.850   6.355  1.8024 -1.4065  3.5966
   7623SM   H8G10062   7.362   5.748   6.324  0.0046 -0.9802  0.5798
   7623SM   C9F10063   7.311   5.887   6.159  0.2850  0.0490  0.0424
   7623SM   H9F10064   7.412   5.882   6.113  0.9007 -2.2691  1.4490
   7623SM   H9G10065   7.270   5.990   6.158  2.2619  0.9015 -2.0378
   7623SM  C10F10066   7.231   5.776   6.097  0.0194  0.3280  0.5924
   7623SM  H10F10067   7.130   5.778   6.143  0.0796  0.3107  0.7261
   7623SM  H10G10068   7.285   5.680   6.116 -0.5263 -0.6684 -2.3790
   7623SM  C11F10069   7.203   5.788   5.949  0.0017  0.2926  0.2506
   7623SM  H11F10070   7.183   5.893   5.918 -1.5733  0.4639  1.7077
   7623SM  H11G10071   7.120   5.721   5.920  0.3572 -0.1633  0.2687
   7623SM  C12F10072   7.323   5.735   5.861 -0.7731 -0.5472  0.2139
   7623SM  H12F10073   7.350   5.628   5.876  1.0781 -0.3614 -1.3846
   7623SM  H12G10074   7.417   5.786   5.889  0.8176 -2.5694 -1.1340
   7623SM  C13F10075   7.300   5.757   5.717  0.2750 -0.1391  0.3076
   7623SM  H13F10076   7.231   5.842   5.699  0.9229 -0.0864 -2.3502
   7623SM  H13G10077   7.247   5.670   5.673  0.2809 -0.0802  0.1829
   7623SM  C14F10078   7.438   5.782   5.646  0.2650 -0.4119 -0.4091
   7623SM  H14F10079   7.491   5.685   5.644 -1.1258 -1.3073  1.7683
   7623SM  H14G10080   7.495   5.849   5.714  0.1069  0.6793 -1.3294
   7623SM  C15F10081   7.433   5.829   5.501 -0.2283 -0.1104  0.0606
   7623SM  H15F10082   7.540   5.847   5.475 -0.1683  1.4741  1.2323
   7623SM  H15G10083   7.372   5.922   5.496 -1.0938 -0.7093 -0.6258
   7623SM  C16F10084   7.373   5.723   5.411 -0.3712 -0.2047  1.1304
   7623SM  H16F10085   7.274   5.681   5.437 -0.4291 -0.8679 -0.0590
   7623SM  H16G10086   7.443   5.638   5.419  0.5048  0.3107 -0.4728
   7623SM  C17F10087   7.367   5.762   5.258 -0.6593 -0.0926  0.0395
   7623SM  H17F10088   7.444   5.840   5.244 -1.2424  0.7606  1.3648
   7623SM  H17G10089   7.275   5.823   5.246 -0.4741  0.2139  0.1715
   7623SM  C18F10090   7.382   5.654   5.150 -0.0436 -0.4729  0.1388
   7623SM  H18F10091   7.312   5.572   5.173 -1.5238  0.9398  0.8522
   7623SM  H18G10092   7.482   5.607   5.164 -0.8003 -2.3005 -0.2603
   7623SM  C19F10093   7.367   5.698   5.004 -0.0495  0.8956  0.4727
   7623SM  H19F10094   7.402   5.802   4.987  0.4995  0.6811  0.2972
   7623SM  H19G10095   7.262   5.699   4.968 -0.9862  1.8277  2.9835
   7623SM  C20F10096   7.444   5.605   4.907  0.0552  0.5539  0.0299
   7623SM  H20F10097   7.530   5.586   4.975 -1.2868  0.9564  1.9208
   7623SM  H20G10098   7.473   5.662   4.816  1.0375 -1.7725 -1.1909
   7623SM  C21F10099   7.359   5.483   4.860  0.1877  0.8948 -0.7415
   7623SM  H21F10100   7.282   5.496   4.782  0.7597 -1.5706 -1.7919
   7623SM  H21G10101   7.321   5.450   4.959  1.0532  1.8816 -0.0638
   7623SM  C22F10102   7.448   5.375   4.804  0.0621 -0.5354  0.2026
   7623SM  H22F10103   7.523   5.355   4.884 -0.2583 -0.0870  0.6179
   7623SM  H22G10104   7.512   5.405   4.719  0.9592 -1.0132  0.6984
   7623SM  C23F10105   7.384   5.246   4.780  0.1882  0.0610 -0.1690
   7623SM  H23F10106   7.412   5.167   4.853 -1.0014 -0.3222 -0.0975
   7623SM  H23G10107   7.410   5.197   4.683 -0.4699 -0.6916  0.0190
   7623SM  H23H10108   7.274   5.264   4.771  0.0652 -1.1999 -2.0899
   7723SM     N10109   0.655   2.451   7.770  0.3117 -0.3329  0.6551
   7723SM   C1510110   0.592   2.453   7.901  0.5072 -0.3889 -0.6103
   7723SM  H15A10111   0.609   2.548   7.950 -2.5923 -0.3095  0.5665
   7723SM  H15B10112   0.611   2.373   7.971  2.2272  0.4949 -0.0032
   7723SM  H15C10113   0.485   2.449   7.889  0.4312 -0.8350  0.1463
   7723SM   C1410114   0.806   2.491   7.786  0.1244  0.2818 -0.1179
   7723SM  H14A10115   0.857   2.498   7.691  0.5791 -1.8638 -0.0884
   7723SM  H14B10116   0.856   2.424   7.855 -0.9167  1.2694  1.6767
   7723SM  H14C10117   0.820   2.588   7.830  0.7986 -0.1511  0.6488
   7723SM   C1310118   0.653   2.315   7.709 -0.1068  0.2702  0.4464
   7723SM  H13A10119   0.688   2.318   7.606 -0.6826 -2.9668  0.0419
   7723SM  H13B10120   0.558   2.265   7.693 -0.0104 -0.1240  1.0611
   7723SM  H13C10121   0.715   2.241   7.757 -1.6697 -1.4357  0.0016
   7723SM   C1210122   0.591   2.549   7.681 -0.3200  0.2219  0.2727
   7723SM  H12A10123   0.590   2.645   7.731  0.6327 -0.5940  1.9459
   7723SM  H12B10124   0.485   2.526   7.679 -0.9727  2.9697 -0.5737
   7723SM   C1110125   0.644   2.574   7.540 -0.0743 -0.3107 -0.1938
   7723SM  H11A10126   0.753   2.597   7.548 -0.6038  1.6185  2.7009
   7723SM  H11B10127   0.603   2.670   7.504  0.1135  0.5166  1.7216
   7723SM     P10128   0.474   2.417   7.407 -0.2717 -0.3778 -0.2415
   7723SM   O1310129   0.440   2.297   7.480 -0.5814 -0.0443  0.1205
   7723SM   O1410130   0.392   2.538   7.432 -1.0840  0.3352 -0.6571
   7723SM   O1110131   0.481   2.393   7.252 -0.3530 -0.0641 -0.0093
   7723SM   O1210132   0.623   2.461   7.448 -0.2351  0.1005 -0.4316
   7723SM   C1S10133   0.380   2.321   7.180 -0.0449  0.0950  0.4208
   7723SM   H1S10134   0.283   2.371   7.198 -0.1409  0.4166 -0.9106
   7723SM   H1T10135   0.388   2.212   7.201  0.1718  0.0552  0.1354
   7723SM    NF10136   0.281   2.285   6.963  0.4788 -0.4949  0.0014
   7723SM   HNF10137   0.276   2.186   6.948  1.4615 -0.3564 -1.4422
   7723SM   C2S10138   0.399   2.333   7.027 -0.3774  0.7028  0.1791
   7723SM   H2S10139   0.411   2.439   6.998  1.1867  0.4556 -0.1925
   7723SM   C3S10140   0.527   2.264   6.989 -0.6398 -0.4743  0.4697
   7723SM   H3S10141   0.519   2.155   7.009 -2.1497 -0.6792 -0.9896
   7723SM    O310142   0.639   2.318   7.052  0.2063  0.3187 -0.1302
   7723SM   HO310143   0.607   2.372   7.125  1.3929  0.7216  0.1170
   7723SM   C4S10144   0.544   2.276   6.842  0.4514 -0.0411 -0.4644
   7723SM   H4S10145   0.544   2.377   6.799 -0.0233  0.0038 -0.3655
   7723SM   C5S10146   0.559   2.177   6.761 -0.8400 -0.0989  0.9254
   7723SM   H5S10147   0.561   2.071   6.791 -1.2498 -0.4146 -0.1006
   7723SM   C6S10148   0.578   2.196   6.608 -0.5029  0.6099 -0.8186
   7723SM   H6S10149   0.508   2.118   6.571 -0.6689  0.5249 -0.3231
   7723SM   H6T10150   0.675   2.151   6.579  0.0368  0.6091  0.9270
   7723SM   C7S10151   0.544   2.326   6.528 -0.7289  0.2497  0.3953
   7723SM   H7S10152   0.618   2.405   6.553 -0.8218  0.4241  0.1208
   7723SM   H7T10153   0.442   2.364   6.553 -0.6617  0.4282  0.3985
   7723SM   C8S10154   0.543   2.312   6.377  0.2880  0.3060 -0.2572
   7723SM   H8S10155   0.503   2.403   6.327  0.2985  0.3333 -0.2166
   7723SM   H8T10156   0.483   2.221   6.359  1.8696 -1.1844  1.5589
   7723SM   C9S10157   0.681   2.302   6.312 -0.1838 -0.4413  0.0785
   7723SM   H9S10158   0.745   2.225   6.359  0.0463  0.2873  0.9747
   7723SM   H9T10159   0.728   2.396   6.348  0.2334 -0.6914  0.1925
   7723SM  C10S10160   0.673   2.287   6.165  0.3427 -0.5550  0.4313
   7723SM  H10S10161   0.670   2.390   6.125  1.2186 -1.3193 -1.7656
   7723SM  H10T10162   0.597   2.219   6.119  1.7259 -1.3128 -0.8468
   7723SM  C11S10163   0.810   2.240   6.106 -0.0346  0.3999  0.8800
   7723SM  H11S10164   0.850   2.158   6.169  0.7003 -0.4592 -0.6411
   7723SM  H11T10165   0.885   2.321   6.124 -0.0833  0.4967  0.6515
   7723SM  C12S10166   0.816   2.221   5.957  0.2131 -0.0618 -0.7733
   7723SM  H12S10167   0.772   2.304   5.897 -0.4132 -1.3975 -2.2312
   7723SM  H12T10168   0.754   2.134   5.928  0.5656  0.1494 -2.2339
   7723SM  C13S10169   0.963   2.197   5.909  0.0046  0.0300 -0.3884
   7723SM  H13S10170   1.004   2.103   5.953 -1.7119  0.4829  2.3704
   7723SM  H13T10171   1.025   2.280   5.950  2.6661 -1.9904 -0.0652
   7723SM  C14S10172   0.979   2.204   5.754  0.2473  0.1305  0.2204
   7723SM  H14S10173   0.941   2.306   5.730  1.1716  0.5266  0.4167
   7723SM  H14T10174   0.918   2.120   5.714  0.8332  0.3376 -1.1642
   7723SM  C15S10175   1.127   2.188   5.725  0.1382  0.2333  0.3822
   7723SM  H15S10176   1.169   2.105   5.786  3.3482  2.1637  1.0167
   7723SM  H15T10177   1.188   2.271   5.763  1.2356  0.1532 -1.1182
   7723SM  C16S10178   1.167   2.156   5.582 -0.2311  0.3741  0.2232
   7723SM  H16S10179   1.174   2.252   5.527  0.6684  1.1042  1.5704
   7723SM  H16T10180   1.084   2.098   5.535  0.5211 -0.3657 -0.2249
   7723SM  C17S10181   1.297   2.079   5.567  1.0772  0.4713  0.4915
   7723SM  H17S10182   1.286   2.023   5.471  0.4843 -2.0247  1.9201
   7723SM  H17T10183   1.302   2.005   5.650  0.9080  2.4101  2.3121
   7723SM  C18S10184   1.418   2.171   5.548 -0.0296 -0.5110  0.1452
   7723SM  H18S10185   1.408   2.228   5.454 -1.1961  1.4338  1.3721
   7723SM  H18T10186   1.505   2.102   5.545 -0.8621 -1.5685 -0.3560
   7723SM  H18U10187   1.440   2.238   5.634  1.4795  1.9025 -1.9859
   7723SM   C1F10188   0.164   2.346   6.960  0.0031 -0.7355 -0.2898
   7723SM    OF10189   0.151   2.460   7.013  0.6519 -0.1988 -0.0212
   7723SM   C2F10190   0.050   2.273   6.890 -1.1139  0.2645 -0.1218
   7723SM   H2F10191  -0.038   2.259   6.956 -0.7964  1.7689  0.6725
   7723SM   H2G10192   0.094   2.183   6.842 -1.4134 -0.1171  0.3109
   7723SM   C3F10193  -0.010   2.358   6.771 -0.4421 -0.2977  0.0262
   7723SM   H3F10194   0.068   2.368   6.693  0.5078 -2.4357  0.6145
   7723SM   H3G10195  -0.025   2.459   6.814  1.9816 -0.7988  2.2775
   7723SM   C4F10196  -0.137   2.301   6.711  0.2959 -0.0504 -0.1218
   7723SM   H4F10197  -0.214   2.335   6.784 -0.3523  1.7364 -1.5629
   7723SM   H4G10198  -0.135   2.191   6.696  0.8238 -0.1382  0.5101
   7723SM   C5F10199  -0.167   2.380   6.579 -0.2115  0.2892 -0.6094
   7723SM   H5F10200  -0.257   2.330   6.537 -0.0898  1.1951 -2.0270
   7723SM   H5G10201  -0.083   2.367   6.506 -0.6847  1.4949 -1.4005
   7723SM   C6F10202  -0.191   2.530   6.587  0.2027  0.2448 -0.3256
   7723SM   H6F10203  -0.103   2.577   6.636 -0.0288  0.7374 -0.3773
   7723SM   H6G10204  -0.283   2.546   6.646  0.3110  0.5393 -0.2375
   7723SM   C7F10205  -0.214   2.600   6.449 -0.3327 -0.0934 -0.4080
   7723SM   H7F10206  -0.297   2.548   6.398 -0.1935  0.6589 -1.4536
   7723SM   H7G10207  -0.117   2.590   6.396  0.6484  0.1478  1.2578
   7723SM   C8F10208  -0.255   2.745   6.462 -0.0128  0.6553 -0.1842
   7723SM   H8F10209  -0.177   2.793   6.525  1.3889 -1.4604 -0.2277
   7723SM   H8G10210  -0.352   2.746   6.516  0.3661  0.4809  0.5234
   7723SM   C9F10211  -0.278   2.815   6.324  0.2536 -0.7180  0.0067
   7723SM   H9F10212  -0.351   2.757   6.264  1.8417 -0.4187 -2.3791
   7723SM   H9G10213  -0.178   2.803   6.276  1.7640  0.1640  2.6901
   7723SM  C10F10214  -0.329   2.961   6.319  0.1797 -0.2998 -0.0215
   7723SM  H10F10215  -0.258   3.013   6.387  1.6961 -0.4726 -1.4033
   7723SM  H10G10216  -0.431   2.967   6.362  0.6325 -0.8328  1.1754
   7723SM  C11F10217  -0.334   3.020   6.170  0.1560 -0.1670 -0.0925
   7723SM  H11F10218  -0.399   2.941   6.125 -1.6057  0.4403  1.2817
   7723SM  H11G10219  -0.229   3.018   6.133  0.3134 -1.8815  0.3200
   7723SM  C12F10220  -0.405   3.155   6.152  0.0583  0.4714 -0.4906
   7723SM  H12F10221  -0.364   3.229   6.225 -0.0322  1.2433 -1.2104
   7723SM  H12G10222  -0.515   3.143   6.164  0.4651 -1.1120  3.0626
   7723SM  C13F10223  -0.398   3.216   6.009 -0.4710 -0.5726 -0.1381
   7723SM  H13F10224  -0.442   3.136   5.947 -1.2549 -1.4449  1.4783
   7723SM  H13G10225  -0.290   3.222   5.985 -0.3713 -2.1418 -0.1862
   7723SM  C14F10226  -0.467   3.350   5.981 -0.0323  0.1950 -0.2073
   7723SM  H14F10227  -0.417   3.429   6.042  0.4565 -0.1540 -0.1499
   7723SM  H14G10228  -0.572   3.345   6.015  0.0720  0.2052  0.1199
   7723SM  C15F10229  -0.459   3.396   5.836  0.1097 -0.0056  0.4063
   7723SM  H15F10230  -0.349   3.386   5.819  0.0328  0.8554 -0.6772
   7723SM  H15G10231  -0.475   3.505   5.828 -0.0638  0.1650  2.5611
   7723SM  C16F10232  -0.558   3.315   5.749  0.3222 -0.0467 -0.5793
   7723SM  H16F10233  -0.654   3.307   5.805  1.0931  0.1873  0.8048
   7723SM  H16G10234  -0.524   3.210   5.739 -0.8963 -0.4155 -1.1436
   7723SM  C17F10235  -0.591   3.378   5.616 -1.0405  0.4957  0.4046
   7723SM  H17F10236  -0.642   3.476   5.625 -0.0597  1.1669 -0.8638
   7723SM  H17G10237  -0.657   3.306   5.563 -1.0450  1.5817 -1.1575
   7723SM  C18F10238  -0.465   3.403   5.528  0.3068 -0.0429  0.0960
   7723SM  H18F10239  -0.408   3.308   5.538  1.3616  0.6067  0.4941
   7723SM  H18G10240  -0.406   3.477   5.586 -0.1659  1.7696 -1.6306
   7723SM  C19F10241  -0.506   3.451   5.388  0.0858  0.0712 -0.2695
   7723SM  H19F10242  -0.560   3.544   5.416 -0.3441 -0.4329  0.6463
   7723SM  H19G10243  -0.578   3.377   5.348 -1.0395  1.2652 -0.5239
   7723SM  C20F10244  -0.387   3.481   5.297  1.1710 -0.1189 -0.0846
   7723SM  H20F10245  -0.339   3.381   5.282 -1.1855 -1.0193 -2.2366
   7723SM  H20G10246  -0.312   3.537   5.358  0.1029  0.8926  0.3305
   7723SM  C21F10247  -0.432   3.552   5.166  0.0027 -0.2772  0.3509
   7723SM  H21F10248  -0.515   3.623   5.186  0.5664  0.4392  0.1832
   7723SM  H21G10249  -0.469   3.477   5.093  0.2684 -1.5098  1.4313
   7723SM  C22F10250  -0.314   3.616   5.096  0.1429  0.3458  1.2490
   7723SM  H22F10251  -0.236   3.538   5.082  2.3378  2.6555 -0.1269
   7723SM  H22G10252  -0.286   3.696   5.168  1.5016  1.6154 -0.6158
   7723SM  C23F10253  -0.345   3.676   4.955 -0.1591 -0.2195 -0.2781
   7723SM  H23F10254  -0.274   3.757   4.929 -1.0821  0.6778 -0.0958
   7723SM  H23G10255  -0.450   3.711   4.948 -0.8161 -2.0551 -0.1617
   7723SM  H23H10256  -0.342   3.603   4.872  3.6624  1.0123 -1.4362
   7823SM     N10257   1.503   7.079   7.669 -0.1375  0.9328  0.6680
   7823SM   C1510258   1.378   7.155   7.640  0.1291  0.3901 -0.1355
   7823SM  H15A10259   1.319   7.157   7.730 -1.0272 -3.1684 -0.6445
   7823SM  H15B10260   1.313   7.099   7.574  0.9885 -0.9494  0.1048
   7823SM  H15C10261   1.398   7.258   7.614  0.7113  0.1435 -0.6976
   7823SM   C1410262   1.586   7.160   7.766  0.3159 -0.3643  0.4827
   7823SM  H14A10263   1.609   7.256   7.723 -0.5844  0.3908  1.6270
   7823SM  H14B10264   1.679   7.108   7.788  0.8184  1.2204  2.4806
   7823SM  H14C10265   1.551   7.165   7.868  3.2556  0.9310  1.5525
   7823SM   C1310266   1.479   6.952   7.748  0.2404  0.2829 -0.9865
   7823SM  H13A10267   1.398   6.964   7.820  1.5750  1.3528  0.3980
   7823SM  H13B10268   1.564   6.907   7.796 -0.4998 -0.3182 -0.1838
   7823SM  H13C10269   1.439   6.872   7.688  0.9488 -0.3062 -0.6834
   7823SM   C1210270   1.577   7.032   7.547  0.5069 -0.1575 -0.0984
   7823SM  H12A10271   1.665   6.977   7.579 -0.2640  0.3065  3.1839
   7823SM  H12B10272   1.607   7.118   7.489 -0.0581  0.0564 -0.0749
   7823SM   C1110273   1.489   6.959   7.441 -0.2882 -0.0542  0.3383
   7823SM  H11A10274   1.551   6.967   7.349  3.4698 -0.1584  2.6693
   7823SM  H11B10275   1.398   7.020   7.426  1.1202  2.5600  1.7653
   7823SM     P10276   1.559   6.712   7.468  0.0550 -0.5612  0.1093
   7823SM   O1310277   1.659   6.719   7.581  0.6942 -0.5164  0.1843
   7823SM   O1410278   1.473   6.589   7.469 -0.2896 -0.2858 -0.1552
   7823SM   O1110279   1.628   6.742   7.332  0.0299  0.2592 -0.3026
   7823SM   O1210280   1.454   6.828   7.477  0.2301 -0.5809  0.5794
   7823SM   C1S10281   1.545   6.733   7.219  0.5634 -0.2332 -1.2346
   7823SM   H1S10282   1.477   6.821   7.218  1.3492  0.5192  1.7736
   7823SM   H1T10283   1.487   6.639   7.218  0.9964 -0.5411  0.2104
   7823SM    NF10284   1.521   6.779   6.985 -0.2896 -0.3105  0.3877
   7823SM   HNF10285   1.503   6.709   6.917 -0.2090 -0.3762  0.4341
   7823SM   C2S10286   1.616   6.743   7.091  0.5050  0.1996 -0.1194
   7823SM   H2S10287   1.696   6.821   7.082  0.9607 -0.2823 -0.2877
   7823SM   C3S10288   1.687   6.603   7.073  0.1920 -0.3233  0.1229
   7823SM   H3S10289   1.622   6.514   7.060 -0.8011  0.3605  0.3097
   7823SM    O310290   1.761   6.568   7.192  0.2798 -0.0757 -0.3615
   7823SM   HO310291   1.726   6.631   7.257  0.2938 -3.4973  3.3671
   7823SM   C4S10292   1.779   6.615   6.954  0.0095  0.1580  0.4916
   7823SM   H4S10293   1.844   6.703   6.961  0.7658 -0.3756  0.2004
   7823SM   C5S10294   1.794   6.541   6.842 -0.5145 -0.0055  0.4844
   7823SM   H5S10295   1.722   6.460   6.828  1.0668 -1.1141 -2.0140
   7823SM   C6S10296   1.891   6.563   6.730  0.2989 -0.6863 -0.1279
   7823SM   H6S10297   1.927   6.470   6.681  0.1051 -0.1514 -1.3241
   7823SM   H6T10298   1.975   6.623   6.771 -0.7952 -0.4866  1.9423
   7823SM   C7S10299   1.829   6.640   6.612 -0.5908 -0.1051  0.3821
   7823SM   H7S10300   1.902   6.663   6.532  1.0686 -0.2265  1.8003
   7823SM   H7T10301   1.783   6.737   6.641  1.3784  0.6737  1.0066
   7823SM   C8S10302   1.707   6.563   6.557  0.8552  0.2186 -0.0380
   7823SM   H8S10303   1.628   6.586   6.630 -0.8639 -0.7684 -1.5068
   7823SM   H8T10304   1.719   6.452   6.553 -0.1479  0.0845  0.4934
   7823SM   C9S10305   1.651   6.613   6.424 -0.2252 -0.0794 -0.2429
   7823SM   H9S10306   1.672   6.722   6.426  0.7843 -0.2324 -1.3328
   7823SM   H9T10307   1.542   6.594   6.411 -0.2376  0.7556 -1.5082
   7823SM  C10S10308   1.737   6.564   6.304  0.2295  0.3538 -0.3945
   7823SM  H10S10309   1.740   6.455   6.323 -1.5712  0.0727 -1.4486
   7823SM  H10T10310   1.840   6.602   6.319  0.3538 -0.0629 -0.1725
   7823SM  C11S10311   1.689   6.602   6.166 -0.0213 -0.0285 -0.5640
   7823SM  H11S10312   1.708   6.709   6.143  0.5217 -0.0059 -0.0243
   7823SM  H11T10313   1.578   6.596   6.159 -0.0438  0.7414 -0.9519
   7823SM  C12S10314   1.738   6.517   6.046 -0.7376  0.5909 -0.1119
   7823SM  H12S10315   1.696   6.414   6.047 -0.6359  0.4964  3.0260
   7823SM  H12T10316   1.849   6.514   6.045 -0.7597 -0.9148 -0.6788
   7823SM  C13S10317   1.684   6.571   5.911  0.1951  0.5351  0.3462
   7823SM  H13S10318   1.574   6.557   5.913  0.4423 -2.4615 -0.9859
   7823SM  H13T10319   1.735   6.511   5.832  0.4144  0.6621  0.3920
   7823SM  C14S10320   1.711   6.717   5.879 -1.4566 -0.1452 -0.0666
   7823SM  H14S10321   1.820   6.737   5.894 -1.6016  0.5259  0.1541
   7823SM  H14T10322   1.654   6.779   5.952 -1.7603  2.8747 -2.6629
   7823SM  C15S10323   1.665   6.757   5.735 -0.9753  0.0568 -0.0612
   7823SM  H15S10324   1.588   6.685   5.700  1.1934 -1.8080 -1.2302
   7823SM  H15T10325   1.755   6.747   5.672 -0.5906  0.3159  0.4388
   7823SM  C16S10326   1.612   6.906   5.718  0.0785  0.2645  0.3706
   7823SM  H16S10327   1.674   6.982   5.770 -0.1878  0.4356  0.4413
   7823SM  H16T10328   1.509   6.910   5.760 -0.7068  1.1507 -1.5351
   7823SM  C17S10329   1.588   6.944   5.570  0.7527 -0.1123  0.4642
   7823SM  H17S10330   1.544   7.046   5.570 -0.8232 -0.7259  2.1427
   7823SM  H17T10331   1.502   6.884   5.531  0.2006  0.2811  1.0546
   7823SM  C18S10332   1.718   6.943   5.488  0.3681  0.4609 -1.2212
   7823SM  H18S10333   1.788   7.014   5.538  1.1963 -0.4807 -1.0251
   7823SM  H18T10334   1.691   6.969   5.384  2.2395  0.9118 -1.6332
   7823SM  H18U10335   1.774   6.847   5.489 -1.6796 -0.8024 -0.2916
   7823SM   C1F10336   1.463   6.897   6.969 -0.1693 -0.2850  0.3234
   7823SM    OF10337   1.489   6.996   7.036  0.0635  0.0724 -0.6000
   7823SM   C2F10338   1.356   6.902   6.863  0.6794 -0.2838 -0.2868
   7823SM   H2F10339   1.283   6.982   6.891  1.9949  1.1027 -0.6628
   7823SM   H2G10340   1.301   6.806   6.869 -1.7291  1.0395 -0.0831
   7823SM   C3F10341   1.405   6.926   6.725 -0.2493 -0.0549  0.0483
   7823SM   H3F10342   1.472   6.840   6.703  0.9403  1.6879 -4.0576
   7823SM   H3G10343   1.468   7.017   6.714  0.5945 -0.6221  0.0895
   7823SM   C4F10344   1.294   6.931   6.622  0.1922  0.3364  0.3491
   7823SM   H4F10345   1.229   7.018   6.647  1.7464  1.1757  1.7102
   7823SM   H4G10346   1.235   6.838   6.629  0.3613  0.2217  0.2547
   7823SM   C5F10347   1.343   6.928   6.478  0.6296 -0.3453  0.5307
   7823SM   H5F10348   1.386   6.828   6.456 -0.4248 -0.7766  0.3974
   7823SM   H5G10349   1.429   6.996   6.459  0.0835  0.1982 -0.0342
   7823SM   C6F10350   1.229   6.971   6.380 -0.4987 -0.5539  0.0919
   7823SM   H6F10351   1.191   7.075   6.389  1.5908  0.2326  0.4535
   7823SM   H6G10352   1.150   6.894   6.387  0.2213 -1.4915 -1.4710
   7823SM   C7F10353   1.288   6.963   6.241 -0.5099 -0.0780  0.7178
   7823SM   H7F10354   1.301   6.855   6.217 -2.6415 -0.2409  0.1213
   7823SM   H7G10355   1.387   7.010   6.223  0.0807 -1.6087 -0.2911
   7823SM   C8F10356   1.183   7.024   6.142 -0.6726 -0.2949 -0.6247
   7823SM   H8F10357   1.168   7.131   6.170  3.2589  0.4767 -0.9203
   7823SM   H8G10358   1.085   6.974   6.159 -0.6926  0.0272  0.2279
   7823SM   C9F10359   1.227   7.013   5.997 -0.3582  0.4447  0.4560
   7823SM   H9F10360   1.211   6.915   5.947 -0.9166 -0.1686  1.7799
   7823SM   H9G10361   1.334   7.038   5.981  0.1935 -1.8270  0.1635
   7823SM  C10F10362   1.138   7.106   5.900 -0.3503 -0.1323  0.3680
   7823SM  H10F10363   1.150   7.211   5.933  3.0430 -0.5298  0.7114
   7823SM  H10G10364   1.032   7.072   5.911  0.1834 -1.5694  1.4049
   7823SM  C11F10365   1.177   7.094   5.748 -0.2806 -0.9734 -0.4989
   7823SM  H11F10366   1.114   7.015   5.702  0.0982  0.0081 -2.7917
   7823SM  H11G10367   1.282   7.056   5.745  1.4410  3.0116  1.6097
   7823SM  C12F10368   1.166   7.223   5.668 -0.1313  0.8078  1.0962
   7823SM  H12F10369   1.248   7.287   5.707 -0.3549  1.0145  1.2243
   7823SM  H12G10370   1.064   7.266   5.674 -0.2272  0.6951  0.4330
   7823SM  C13F10371   1.192   7.198   5.521  0.2859  0.4008  0.0996
   7823SM  H13F10372   1.295   7.155   5.514  0.0301  0.0348 -1.7984
   7823SM  H13G10373   1.184   7.296   5.471 -0.1818  0.3497  0.0752
   7823SM  C14F10374   1.091   7.093   5.463 -0.1558  0.5742 -0.7056
   7823SM  H14F10375   0.995   7.119   5.512 -0.8728  1.1385 -2.3147
   7823SM  H14G10376   1.123   6.991   5.493 -1.7842  0.6577  1.5599
   7823SM  C15F10377   1.064   7.097   5.308  0.2589  0.3148  0.0214
   7823SM  H15F10378   1.151   7.049   5.258  0.2896  1.9281 -1.5693
   7823SM  H15G10379   1.057   7.201   5.270 -0.0691  0.2728 -0.0341
   7823SM  C16F10380   0.951   7.010   5.247  0.3664 -0.0938  0.8566
   7823SM  H16F10381   0.987   6.906   5.265  0.1645 -0.1198  1.1253
   7823SM  H16G10382   0.944   7.025   5.137 -0.3210 -0.5419  0.8281
   7823SM  C17F10383   0.803   7.005   5.303  0.1599  0.2705 -0.0277
   7823SM  H17F10384   0.822   6.997   5.412  2.1527 -1.6767 -0.4405
   7823SM  H17G10385   0.744   6.921   5.260 -1.9781  1.1476  1.0239
   7823SM  C18F10386   0.734   7.141   5.278 -0.5761  0.3524  0.2292
   7823SM  H18F10387   0.745   7.168   5.170 -0.1929  1.9652  0.6432
   7823SM  H18G10388   0.784   7.229   5.324  0.7266  1.5937 -3.2248
   7823SM  C19F10389   0.586   7.135   5.316 -0.0093  0.4977 -1.0629
   7823SM  H19F10390   0.577   7.087   5.415  2.1025  0.2334 -0.9559
   7823SM  H19G10391   0.539   7.064   5.244 -0.2892 -0.8963  0.4461
   7823SM  C20F10392   0.505   7.265   5.312  0.0054  0.0277 -0.1586
   7823SM  H20F10393   0.533   7.333   5.395 -0.2600 -1.0777  0.8618
   7823SM  H20G10394   0.398   7.244   5.334 -0.0277  0.8011  0.4477
   7823SM  C21F10395   0.505   7.338   5.180  0.1230  0.0718 -0.8492
   7823SM  H21F10396   0.613   7.345   5.155  0.0444 -0.7185 -1.4424
   7823SM  H21G10397   0.467   7.440   5.203  0.5353 -0.2954  1.6973
   7823SM  C22F10398   0.409   7.281   5.079  0.2650  0.3460  0.1365
   7823SM  H22F10399   0.302   7.296   5.107 -0.4273 -0.9070 -1.5927
   7823SM  H22G10400   0.420   7.171   5.071 -0.0149  0.3618 -0.6264
   7823SM  C23F10401   0.430   7.352   4.944 -0.0743  0.1165  0.9277
   7823SM  H23F10402   0.366   7.312   4.863 -0.1114  3.9514 -1.1907
   7823SM  H23G10403   0.537   7.347   4.914 -0.1983  2.7651 -0.2650
   7823SM  H23H10404   0.417   7.463   4.949 -1.1274 -0.0170  1.7246
   7923SM     N10405   6.801   1.045   7.743 -0.6044 -0.2777 -0.2189
   7923SM   C1510406   6.690   1.099   7.833  0.3488  0.1777  0.7115
   7923SM  H15A10407   6.721   1.090   7.936  2.4088  3.1022  0.4480
   7923SM  H15B10408   6.597   1.049   7.812 -0.1500  1.3996 -0.1395
   7923SM  H15C10409   6.664   1.202   7.815 -1.9720 -0.2787  1.1925
   7923SM   C1410410   6.923   1.110   7.779  0.6750 -0.2978 -0.1665
   7923SM  H14A10411   6.960   1.079   7.876 -0.4569 -1.3826 -0.0627
   7923SM  H14B10412   6.914   1.217   7.789  0.9866 -0.3830  1.2576
   7923SM  H14C10413   6.998   1.087   7.705  1.1336 -0.7466  0.4216
   7923SM   C1310414   6.807   0.899   7.774  0.3636 -0.2384  0.4226
   7923SM  H13A10415   6.712   0.860   7.744  0.0491  1.9748 -1.7629
   7923SM  H13B10416   6.817   0.879   7.880 -0.5815 -1.9572  0.2148
   7923SM  H13C10417   6.890   0.848   7.727  0.2008 -0.1626  0.0541
   7923SM   C1210418   6.758   1.069   7.597 -0.0284  0.1297 -0.6429
   7923SM  H12A10419   6.735   1.174   7.588 -3.3916 -0.4901 -0.4285
   7923SM  H12B10420   6.667   1.015   7.578 -0.0884  0.0817 -0.2193
   7923SM   C1110421   6.862   1.036   7.486  0.0021 -0.1515 -0.5214
   7923SM  H11A10422   6.820   1.017   7.385  0.9921 -1.7981 -0.6544
   7923SM  H11B10423   6.909   0.937   7.506  0.0763 -0.1366 -0.6191
   7923SM     P10424   6.986   1.238   7.389 -0.1638 -0.1117  0.1284
   7923SM   O1310425   6.854   1.249   7.318 -0.2231 -0.0345  0.4456
   7923SM   O1410426   7.037   1.360   7.455 -0.5223 -0.4199  0.2797
   7923SM   O1110427   7.100   1.184   7.288  0.1494  0.7396  0.2524
   7923SM   O1210428   6.975   1.124   7.495 -0.0150 -0.1163  0.2403
   7923SM   C1S10429   7.106   1.053   7.226  0.6300 -0.0777 -0.1069
   7923SM   H1S10430   7.003   1.014   7.214  0.2571  1.0410 -0.6657
   7923SM   H1T10431   7.158   0.977   7.288  2.2236  1.0879  0.0598
   7923SM    NF10432   7.116   0.958   6.994 -0.6438  0.4594  0.6103
   7923SM   HNF10433   7.176   0.879   6.983 -0.4991  0.7032 -0.5778
   7923SM   C2S10434   7.162   1.071   7.080 -0.4697  0.9059 -0.1642
   7923SM   H2S10435   7.129   1.169   7.038 -1.7916  1.0738  1.1711
   7923SM   C3S10436   7.311   1.081   7.102 -0.3290  0.0983 -0.5623
   7923SM   H3S10437   7.356   0.985   7.136  0.5325  0.9231  0.7711
   7923SM    O310438   7.360   1.192   7.187  0.2849  0.1146 -0.3115
   7923SM   HO310439   7.275   1.208   7.227 -0.1088 -0.2562 -0.9759
   7923SM   C4S10440   7.386   1.094   6.969 -0.7205  0.4851 -0.0715
   7923SM   H4S10441   7.441   1.001   6.949 -1.2796 -0.0545  0.8380
   7923SM   C5S10442   7.396   1.194   6.883 -0.2536  0.0613  0.3234
   7923SM   H5S10443   7.335   1.285   6.897 -2.5852 -1.0287 -1.8540
   7923SM   C6S10444   7.479   1.184   6.756 -0.5047  0.0179  0.1801
   7923SM   H6S10445   7.550   1.098   6.759  1.7449  1.7756  0.0664
   7923SM   H6T10446   7.550   1.269   6.744 -0.0178 -0.1134  1.8362
   7923SM   C7S10447   7.399   1.173   6.626  0.0111  0.3822 -0.0508
   7923SM   H7S10448   7.319   1.250   6.622  1.4289  1.9989  1.4733
   7923SM   H7T10449   7.355   1.071   6.620 -1.2535  0.8137  1.3436
   7923SM   C8S10450   7.487   1.181   6.495  0.8259  0.3117  0.1952
   7923SM   H8S10451   7.569   1.106   6.498 -0.4146 -1.0772  0.7576
   7923SM   H8T10452   7.530   1.284   6.498  1.5887 -0.0177  1.5082
   7923SM   C9S10453   7.404   1.164   6.367  0.0731  0.4175  0.0461
   7923SM   H9S10454   7.314   1.228   6.368  0.3028  0.7420  0.3382
   7923SM   H9T10455   7.363   1.061   6.356  0.8058  0.0804  0.4137
   7923SM  C10S10456   7.481   1.192   6.238 -0.1171 -0.5416  0.0102
   7923SM  H10S10457   7.570   1.125   6.240 -0.3659 -0.8613  0.9552
   7923SM  H10T10458   7.528   1.292   6.243 -2.1811  0.4335  1.5735
   7923SM  C11S10459   7.391   1.178   6.111  0.3575 -0.3016 -0.5446
   7923SM  H11S10460   7.299   1.238   6.129  2.1322  1.5804  3.8381
   7923SM  H11T10461   7.358   1.074   6.097  0.2786 -0.2687 -0.5984
   7923SM  C12S10462   7.475   1.208   5.984  0.0091 -0.0366  0.1687
   7923SM  H12S10463   7.507   1.314   5.987  0.8537 -0.2993  1.8221
   7923SM  H12T10464   7.407   1.183   5.900 -0.7125 -0.4963  0.8802
   7923SM  C13S10465   7.608   1.129   5.975  0.0528 -0.1038 -0.0486
   7923SM  H13S10466   7.586   1.025   6.007 -1.8805  0.3289  0.1567
   7923SM  H13T10467   7.682   1.170   6.047  1.9490 -0.4551 -1.7156
   7923SM  C14S10468   7.668   1.129   5.835 -0.1444  0.0075 -0.6554
   7923SM  H14S10469   7.590   1.082   5.771 -1.5910  1.6021 -0.1522
   7923SM  H14T10470   7.762   1.069   5.834 -0.5996 -0.7164 -1.4182
   7923SM  C15S10471   7.697   1.262   5.768  0.4043 -0.1846 -0.1880
   7923SM  H15S10472   7.748   1.326   5.844  0.9476 -0.7925 -0.0304
   7923SM  H15T10473   7.609   1.325   5.743  0.6417  0.3382  0.2695
   7923SM  C16S10474   7.773   1.262   5.640 -0.1142 -0.1900 -0.5294
   7923SM  H16S10475   7.706   1.222   5.561 -0.4556  0.9066 -0.8240
   7923SM  H16T10476   7.863   1.197   5.643  0.2422  0.3024  2.4014
   7923SM  C17S10477   7.821   1.400   5.594 -0.3830  0.1288  0.6576
   7923SM  H17S10478   7.892   1.454   5.660 -0.9158  1.1892  0.3900
   7923SM  H17T10479   7.732   1.462   5.570 -1.0606 -1.3917 -0.9391
   7923SM  C18S10480   7.902   1.396   5.458  0.5214  0.1797 -0.3590
   7923SM  H18S10481   7.954   1.298   5.461 -1.5503 -0.9618  1.6186
   7923SM  H18T10482   7.979   1.475   5.445  2.0471 -0.9809  1.1062
   7923SM  H18U10483   7.827   1.407   5.377 -0.7530  0.7604  0.8533
   7923SM   C1F10484   6.988   0.955   6.958 -0.8076  0.3995 -0.5901
   7923SM    OF10485   6.907   1.045   6.991  0.1808  0.0141  0.0142
   7923SM   C2F10486   6.942   0.824   6.894 -0.3232  0.1194 -0.0862
   7923SM   H2F10487   6.949   0.747   6.974  1.3926  1.2792  0.9510
   7923SM   H2G10488   7.011   0.786   6.816 -1.9566 -2.6807 -0.3053
   7923SM   C3F10489   6.802   0.841   6.834 -0.3761  0.4505  0.3339
   7923SM   H3F10490   6.733   0.884   6.911 -0.3438 -0.2271  0.7459
   7923SM   H3G10491   6.755   0.743   6.812  2.2397 -0.8986  0.4683
   7923SM   C4F10492   6.788   0.946   6.725  0.6076 -0.0858  0.4741
   7923SM   H4F10493   6.778   0.900   6.624 -2.1577 -0.6230  0.9254
   7923SM   H4G10494   6.858   1.032   6.723 -1.3729  1.6047 -1.3789
   7923SM   C5F10495   6.664   1.029   6.754 -0.2675  0.4351 -0.3500
   7923SM   H5F10496   6.685   1.091   6.844 -0.9824 -0.8392  0.7211
   7923SM   H5G10497   6.577   0.962   6.773  0.3172  0.0952  1.2006
   7923SM   C6F10498   6.621   1.119   6.633 -0.5100  0.1285 -0.0275
   7923SM   H6F10499   6.639   1.061   6.539 -0.5801  0.2305 -0.1047
   7923SM   H6G10500   6.693   1.202   6.615 -1.9795  1.0540 -2.0420
   7923SM   C7F10501   6.485   1.186   6.652 -0.0160 -0.3204 -0.0715
   7923SM   H7F10502   6.488   1.233   6.753  0.9402 -0.3573 -0.0692
   7923SM   H7G10503   6.407   1.109   6.639 -0.0569 -0.1747 -0.7103
   7923SM   C8F10504   6.461   1.302   6.553 -0.8779  0.2340 -0.1403
   7923SM   H8F10505   6.525   1.392   6.559 -0.0091 -0.4212  0.9247
   7923SM   H8G10506   6.360   1.342   6.576 -1.5339 -1.5859  0.3635
   7923SM   C9F10507   6.461   1.274   6.409  0.0437  0.5189  0.4064
   7923SM   H9F10508   6.404   1.180   6.389 -0.5120  0.9786 -0.2327
   7923SM   H9G10509   6.567   1.262   6.379  0.2613 -0.5855  1.5433
   7923SM  C10F10510   6.406   1.390   6.325 -0.0844 -0.5786  0.6388
   7923SM  H10F10511   6.446   1.487   6.362  1.7637 -1.7881  2.0058
   7923SM  H10G10512   6.295   1.389   6.326 -0.0931 -0.6829  0.1313
   7923SM  C11F10513   6.437   1.376   6.172 -0.5953 -0.4835 -0.5428
   7923SM  H11F10514   6.375   1.292   6.134  0.5767 -1.1104 -1.1120
   7923SM  H11G10515   6.547   1.365   6.163  0.3879  4.0721  2.3329
   7923SM  C12F10516   6.398   1.500   6.089 -0.9991 -0.4978 -0.3040
   7923SM  H12F10517   6.288   1.514   6.102 -0.9424 -0.3473  0.0314
   7923SM  H12G10518   6.420   1.480   5.982 -2.4278 -1.0399 -0.5104
   7923SM  C13F10519   6.474   1.629   6.134  0.0256 -0.1474 -0.3306
   7923SM  H13F10520   6.580   1.598   6.145  0.3234  0.6052 -0.9291
   7923SM  H13G10521   6.423   1.671   6.224 -2.1892  0.4343 -1.7662
   7923SM  C14F10522   6.478   1.729   6.018  0.2682 -1.3607 -0.0734
   7923SM  H14F10523   6.515   1.678   5.927  0.6317 -0.4093 -0.4697
   7923SM  H14G10524   6.555   1.808   6.035 -0.2105 -1.2041  1.6121
   7923SM  C15F10525   6.348   1.798   5.981 -0.7610 -0.8360  0.6057
   7923SM  H15F10526   6.314   1.863   6.065  1.2184  2.5812 -0.9841
   7923SM  H15G10527   6.280   1.713   5.961  0.0490 -1.7137  1.4965
   7923SM  C16F10528   6.355   1.901   5.864 -0.7506  0.1349 -0.1091
   7923SM  H16F10529   6.380   1.849   5.769  3.1832  1.4969  0.0126
   7923SM  H16G10530   6.434   1.975   5.886  0.8773 -1.3769 -0.6565
   7923SM  C17F10531   6.222   1.979   5.832  0.0897  0.3164  0.1701
   7923SM  H17F10532   6.189   2.008   5.934 -0.6457 -0.7198  0.2414
   7923SM  H17G10533   6.134   1.915   5.810  0.5796 -1.2896  2.4272
   7923SM  C18F10534   6.242   2.104   5.737 -0.0799 -0.0288 -0.3139
   7923SM  H18F10535   6.294   2.190   5.784 -0.6792  1.1879 -1.7698
   7923SM  H18G10536   6.137   2.138   5.722 -0.0222 -0.7273 -2.6029
   7923SM  C19F10537   6.282   2.059   5.603 -0.2780  0.4004  0.3372
   7923SM  H19F10538   6.216   1.971   5.585 -0.4501  0.6080 -0.0373
   7923SM  H19G10539   6.389   2.030   5.609 -0.1283  0.3002 -2.0462
   7923SM  C20F10540   6.263   2.172   5.498  0.9652  0.3421  0.0765
   7923SM  H20F10541   6.356   2.233   5.505  0.6523  0.5812  3.8455
   7923SM  H20G10542   6.177   2.236   5.527  1.1210  0.3189  0.5867
   7923SM  C21F10543   6.253   2.118   5.355  1.2045  0.2695  0.1839
   7923SM  H21F10544   6.210   2.194   5.285 -0.6543  0.0313  0.9989
   7923SM  H21G10545   6.181   2.033   5.359  0.2062  1.1169  3.4683
   7923SM  C22F10546   6.375   2.058   5.297 -0.8820  0.4514 -0.0580
   7923SM  H22F10547   6.417   1.990   5.373  1.6095  2.0244  0.1026
   7923SM  H22G10548   6.449   2.138   5.271  0.1414 -1.4861 -3.9020
   7923SM  C23F10549   6.349   1.973   5.175 -0.2835 -0.2560  0.4086
   7923SM  H23F10550   6.304   1.875   5.198 -0.6839  0.3822  2.5600
   7923SM  H23G10551   6.439   1.949   5.114 -0.1823  2.0300 -0.4405
   7923SM  H23H10552   6.270   2.026   5.118 -0.0781 -0.6001 -0.2043
   8023SM     N10553   1.707   0.123   7.187  0.2976  0.0482  1.0066
   8023SM   C1510554   1.740   0.148   7.041 -0.0501 -0.1039  0.2618
   8023SM  H15A10555   1.807   0.232   7.026  2.7422 -1.4497  3.8771
   8023SM  H15B10556   1.651   0.169   6.984  0.4109  0.4453 -0.2786
   8023SM  H15C10557   1.790   0.064   6.995 -0.1792 -1.1237  1.9187
   8023SM   C1410558   1.819   0.047   7.249 -0.1537  0.6639  0.4931
   8023SM  H14A10559   1.905   0.112   7.256 -1.3275  2.4261 -0.5996
   8023SM  H14B10560   1.851  -0.035   7.185 -0.5503 -1.4025  2.8089
   8023SM  H14C10561   1.788   0.017   7.348 -1.5837  0.2435 -0.0617
   8023SM   C1310562   1.684   0.252   7.247  0.1689  0.3811  0.6694
   8023SM  H13A10563   1.595   0.303   7.216  1.0829  1.4820 -0.2409
   8023SM  H13B10564   1.768   0.318   7.227  2.5606 -2.3714  0.9909
   8023SM  H13C10565   1.696   0.245   7.354 -2.1950 -1.0572  0.9040
   8023SM   C1210566   1.578   0.031   7.195 -0.0629 -0.4622 -0.7952
   8023SM  H12A10567   1.597  -0.057   7.135 -0.0967 -0.7977 -0.3154
   8023SM  H12B10568   1.498   0.081   7.142 -2.3022 -2.5049  0.4484
   8023SM   C1110569   1.520  -0.002   7.331  0.0546  0.2536 -0.4257
   8023SM  H11A10570   1.421  -0.052   7.323 -0.0018 -0.0964  1.7231
   8023SM  H11B10571   1.487   0.089   7.385  0.1891 -0.3821  0.7790
   8023SM     P10572   1.596  -0.218   7.468 -0.1080  0.2395 -0.2845
   8023SM   O1310573   1.673  -0.243   7.587  0.5440  0.4096 -0.0582
   8023SM   O1410574   1.449  -0.244   7.473  0.2627  0.5659  0.6559
   8023SM   O1110575   1.658  -0.318   7.359  0.5723 -0.3124  0.3761
   8023SM   O1210576   1.622  -0.078   7.417  0.7383  0.1051  0.0004
   8023SM   C1S10577   1.569  -0.354   7.247 -0.3028  0.0618 -0.9281
   8023SM   H1S10578   1.505  -0.268   7.216 -0.4434 -0.0532 -0.9586
   8023SM   H1T10579   1.492  -0.430   7.270 -0.9219  1.2462  1.1865
   8023SM    NF10580   1.563  -0.429   7.002  0.5450  0.3411  0.0003
   8023SM   HNF10581   1.540  -0.525   6.987 -1.7257  0.6451  1.0504
   8023SM   C2S10582   1.650  -0.390   7.116 -0.4319 -0.2737  0.0856
   8023SM   H2S10583   1.710  -0.299   7.091  0.2336 -0.6197  0.3984
   8023SM   C3S10584   1.752  -0.504   7.155  0.2439  0.5090 -0.5598
   8023SM   H3S10585   1.684  -0.588   7.178  2.2468 -0.9257  0.4015
   8023SM    O310586   1.837  -0.474   7.267 -0.2804  0.6260  0.2203
   8023SM   HO310587   1.784  -0.401   7.299 -0.0942  0.4205  1.0127
   8023SM   C4S10588   1.830  -0.527   7.029  0.1244 -0.4561  0.5419
   8023SM   H4S10589   1.911  -0.455   7.011  0.6430 -1.3567 -1.0108
   8023SM   C5S10590   1.810  -0.616   6.936  0.2703  1.2448  0.8891
   8023SM   H5S10591   1.724  -0.685   6.942  0.5283  0.8563  0.2208
   8023SM   C6S10592   1.892  -0.633   6.811 -0.4716  0.0056  0.3557
   8023SM   H6S10593   1.962  -0.716   6.835  0.7928  1.4805  2.0367
   8023SM   H6T10594   1.949  -0.546   6.771 -0.6434 -0.3669 -0.7231
   8023SM   C7S10595   1.788  -0.646   6.699  0.0060  0.0096  0.5052
   8023SM   H7S10596   1.710  -0.567   6.703 -0.6929 -0.6355 -0.0270
   8023SM   H7T10597   1.737  -0.743   6.721 -1.0626  0.6583  0.9934
   8023SM   C8S10598   1.846  -0.645   6.552  1.0534  0.2654  0.6997
   8023SM   H8S10599   1.859  -0.537   6.531 -3.0195  1.0702  1.4708
   8023SM   H8T10600   1.769  -0.679   6.479  2.2858 -0.1063 -0.4737
   8023SM   C9S10601   1.971  -0.723   6.527  0.4661 -0.7131 -0.2261
   8023SM   H9S10602   1.954  -0.828   6.560  1.0726  0.3062  3.7582
   8023SM   H9T10603   2.054  -0.672   6.580 -1.6744  3.4268 -0.4828
   8023SM  C10S10604   2.008  -0.724   6.371  0.3172  0.8707 -0.6427
   8023SM  H10S10605   2.116  -0.752   6.373  0.1256 -0.0356  2.3043
   8023SM  H10T10606   2.008  -0.616   6.347 -0.2779  1.1041  0.3437
   8023SM  C11S10607   1.917  -0.806   6.277  0.2123  0.0260 -0.8636
   8023SM  H11S10608   1.809  -0.782   6.287  0.3941  0.8199 -0.6975
   8023SM  H11T10609   1.948  -0.908   6.309  1.3585 -0.1450 -2.4040
   8023SM  C12S10610   1.957  -0.791   6.125 -0.0041  0.8137 -0.4551
   8023SM  H12S10611   1.888  -0.852   6.063 -0.5207  0.3688  0.5350
   8023SM  H12T10612   2.059  -0.829   6.105 -0.5125 -0.6791 -0.4075
   8023SM  C13S10613   1.958  -0.654   6.078  0.0431 -1.2284  0.1273
   8023SM  H13S10614   2.042  -0.596   6.121 -0.3908  0.6494 -1.4098
   8023SM  H13T10615   1.862  -0.610   6.113  0.9533 -0.9590  2.4178
   8023SM  C14S10616   1.960  -0.634   5.929  0.6038 -0.1836  0.5034
   8023SM  H14S10617   1.960  -0.524   5.917  0.3322 -0.3280 -1.2014
   8023SM  H14T10618   1.862  -0.665   5.885 -0.0383  0.5805  1.3506
   8023SM  C15S10619   2.068  -0.705   5.854  0.4219 -0.2090  0.9901
   8023SM  H15S10620   2.079  -0.814   5.876  0.2252 -0.4815 -0.2115
   8023SM  H15T10621   2.161  -0.655   5.889  1.4943 -2.2017  1.1287
   8023SM  C16S10622   2.074  -0.692   5.697 -0.0728 -0.1110  0.3759
   8023SM  H16S10623   2.096  -0.585   5.681 -0.7065  0.0663  0.6640
   8023SM  H16T10624   1.967  -0.706   5.669 -0.1690  1.5578 -0.1645
   8023SM  C17S10625   2.180  -0.777   5.622  0.6393  0.5482  0.1317
   8023SM  H17S10626   2.182  -0.882   5.658  0.2847 -0.0322 -1.4879
   8023SM  H17T10627   2.280  -0.730   5.637 -0.1752  2.7943 -1.0031
   8023SM  C18S10628   2.152  -0.781   5.474 -0.2953  0.2715  0.1371
   8023SM  H18S10629   2.179  -0.686   5.423  1.8163 -1.3005 -1.9332
   8023SM  H18T10630   2.046  -0.808   5.457  0.5729 -2.9604 -0.9927
   8023SM  H18U10631   2.218  -0.857   5.426  0.5161  1.2322 -0.3093
   8023SM   C1F10632   1.479  -0.339   6.949  0.0960  0.4539 -0.8437
   8023SM    OF10633   1.479  -0.222   6.991 -0.9122 -0.6165 -0.1003
   8023SM   C2F10634   1.385  -0.391   6.848  0.3534  0.7292 -0.1391
   8023SM   H2F10635   1.301  -0.425   6.912  0.9284  0.1857  0.3433
   8023SM   H2G10636   1.425  -0.482   6.799 -1.4721 -0.6435  0.8325
   8023SM   C3F10637   1.345  -0.281   6.757  0.1070  0.3131 -0.0572
   8023SM   H3F10638   1.434  -0.237   6.708  0.9135 -0.4665  0.6520
   8023SM   H3G10639   1.298  -0.206   6.824  1.6103 -0.4781  1.9998
   8023SM   C4F10640   1.244  -0.338   6.648 -0.5528 -0.5415  0.0443
   8023SM   H4F10641   1.169  -0.398   6.705 -2.9305  1.5937 -0.6804
   8023SM   H4G10642   1.312  -0.405   6.591  1.5845  0.9933  0.6507
   8023SM   C5F10643   1.173  -0.233   6.573 -0.0534  0.0947  0.5946
   8023SM   H5F10644   1.255  -0.181   6.519  0.0828 -2.4178 -1.8029
   8023SM   H5G10645   1.121  -0.161   6.640 -0.7320 -1.7383  2.1503
   8023SM   C6F10646   1.090  -0.301   6.466  0.4624  0.0601  0.2832
   8023SM   H6F10647   1.013  -0.365   6.513  1.7193 -2.6163 -1.1046
   8023SM   H6G10648   1.144  -0.376   6.405  1.1346  0.7626 -0.0110
   8023SM   C7F10649   1.024  -0.191   6.375 -0.5408 -0.2234  0.1499
   8023SM   H7F10650   1.104  -0.120   6.345 -1.5572 -0.2149 -3.0111
   8023SM   H7G10651   0.948  -0.143   6.440 -2.9057 -0.2506 -2.3966
   8023SM   C8F10652   0.947  -0.237   6.253 -0.1318 -0.4317  0.1930
   8023SM   H8F10653   0.897  -0.147   6.211  1.7176 -0.4475 -2.2496
   8023SM   H8G10654   0.873  -0.318   6.271  3.2189 -4.1462 -1.2660
   8023SM   C9F10655   1.033  -0.297   6.144 -0.1026  0.4546 -0.6320
   8023SM   H9F10656   0.974  -0.357   6.071 -0.7137 -0.1040  0.2966
   8023SM   H9G10657   1.111  -0.360   6.194  2.3698  2.9022 -1.1846
   8023SM  C10F10658   1.109  -0.181   6.073  0.0847  0.3406  0.1324
   8023SM  H10F10659   1.204  -0.205   6.022  0.4933  1.6590  0.2194
   8023SM  H10G10660   1.122  -0.090   6.136 -2.0637  0.6760  0.1904
   8023SM  C11F10661   1.024  -0.138   5.954 -0.0425  0.2822  0.0691
   8023SM  H11F10662   0.934  -0.088   5.995  0.4937  2.0915 -0.8541
   8023SM  H11G10663   0.992  -0.225   5.892  1.2359 -0.5966  0.6176
   8023SM  C12F10664   1.079  -0.036   5.856 -0.1004  0.2998 -0.2408
   8023SM  H12F10665   1.185  -0.063   5.836 -0.5069 -0.5914 -1.2549
   8023SM  H12G10666   1.089   0.058   5.914  2.5915  0.4841 -0.8689
   8023SM  C13F10667   0.992  -0.005   5.734  0.3083  0.9910 -0.6322
   8023SM  H13F10668   0.999   0.102   5.707  0.6667  0.6379 -2.0301
   8023SM  H13G10669   0.884  -0.017   5.760  0.4534 -0.3785 -0.5575
   8023SM  C14F10670   1.011  -0.102   5.619  0.5836  0.0856 -0.0618
   8023SM  H14F10671   0.987  -0.204   5.657 -2.9465  0.6070 -0.5478
   8023SM  H14G10672   1.115  -0.105   5.582 -0.6168 -1.2061 -3.7356
   8023SM  C15F10673   0.913  -0.069   5.509 -0.1160  0.3684 -0.1494
   8023SM  H15F10674   0.934   0.038   5.492  4.1521 -0.2949 -0.1569
   8023SM  H15G10675   0.808  -0.083   5.544 -0.7511  1.3051 -1.6079
   8023SM  C16F10676   0.941  -0.148   5.374 -0.1053  0.4841 -0.7178
   8023SM  H16F10677   0.924  -0.258   5.380  0.6519  0.4339  2.1386
   8023SM  H16G10678   1.046  -0.138   5.341  0.2327 -1.2338 -0.2929
   8023SM  C17F10679   0.848  -0.097   5.257  0.1285  0.3758  0.3935
   8023SM  H17F10680   0.739  -0.110   5.274  0.3548 -1.4103  0.6615
   8023SM  H17G10681   0.867  -0.159   5.166 -1.1533 -0.5264  0.7172
   8023SM  C18F10682   0.872   0.050   5.221 -0.0524  0.2573  0.9302
   8023SM  H18F10683   0.980   0.068   5.204 -0.0921 -1.2963 -1.2273
   8023SM  H18G10684   0.844   0.118   5.305 -1.5256  3.4352 -1.9218
   8023SM  C19F10685   0.802   0.083   5.085 -0.6059 -0.3170  0.1389
   8023SM  H19F10686   0.694   0.063   5.095 -0.5170 -1.7812 -1.3460
   8023SM  H19G10687   0.841   0.022   5.000 -0.4150 -0.6751  0.4801
   8023SM  C20F10688   0.814   0.230   5.051 -1.0971  0.2621  0.6059
   8023SM  H20F10689   0.919   0.266   5.048 -1.6269  1.7904 -0.0736
   8023SM  H20G10690   0.764   0.290   5.129  0.4762  2.3167  0.1039
   8023SM  C21F10691   0.732   0.264   4.928 -0.0755 -0.4640 -0.3700
   8023SM  H21F10692   0.636   0.214   4.954  1.3511 -3.1957  0.0438
   8023SM  H21G10693   0.771   0.221   4.834 -1.5462 -1.3231 -0.6183
   8023SM  C22F10694   0.719   0.414   4.904 -0.1958 -0.6214  0.6225
   8023SM  H22F10695   0.675   0.465   4.992 -1.8227 -0.5318 -0.2127
   8023SM  H22G10696   0.641   0.416   4.825 -0.1374  0.4246  0.5784
   8023SM  C23F10697   0.854   0.482   4.852  0.5159 -0.2989  0.3970
   8023SM  H23F10698   0.896   0.435   4.761  1.2663 -0.7415  0.9566
   8023SM  H23G10699   0.932   0.470   4.931  1.7798  1.0571 -0.5812
   8023SM  H23H10700   0.839   0.587   4.819  0.6680  0.3485  2.2563
   8123SM     N10701   2.091   2.603   2.237  0.0468 -0.6946 -0.4868
   8123SM   C1510702   2.107   2.609   2.086 -0.5012 -0.4928 -0.0361
   8123SM  H15A10703   2.016   2.635   2.035  0.9060 -1.3239 -3.2077
   8123SM  H15B10704   2.150   2.516   2.050 -0.9308 -0.7841  0.1945
   8123SM  H15C10705   2.187   2.680   2.068 -0.5128 -0.1884  1.0553
   8123SM   C1410706   1.974   2.511   2.280 -0.0558 -0.0481  0.5986
   8123SM  H14A10707   1.990   2.420   2.225 -1.8401  1.0561 -1.9685
   8123SM  H14B10708   1.880   2.556   2.253 -0.1436  0.5106  1.7734
   8123SM  H14C10709   1.989   2.482   2.383  1.6283 -1.4289  0.0160
   8123SM   C1310710   2.210   2.533   2.296  0.5243  0.4286 -0.2771
   8123SM  H13A10711   2.305   2.576   2.265 -0.1156  1.1968 -1.2595
   8123SM  H13B10712   2.209   2.432   2.259 -2.3519  0.2204  0.1721
   8123SM  H13C10713   2.206   2.536   2.404  1.3911  2.4420 -0.2590
   8123SM   C1210714   2.077   2.745   2.288 -0.1352 -0.0859  1.1086
   8123SM  H12A10715   1.990   2.778   2.234  1.0305  2.3182  0.5678
   8123SM  H12B10716   2.164   2.796   2.249 -2.4124  2.4091 -1.1674
   8123SM   C1110717   2.066   2.767   2.437  0.3188 -0.1465 -0.1131
   8123SM  H11A10718   1.989   2.699   2.479  1.0452 -0.5560  0.5988
   8123SM  H11B10719   2.027   2.868   2.462 -1.4099 -0.6671 -0.6190
   8123SM     P10720   2.314   2.834   2.503 -0.1008  0.1192 -0.3592
   8123SM   O1310721   2.401   2.788   2.612  0.5010  0.5510  0.6692
   8123SM   O1410722   2.373   2.839   2.366 -0.0993  0.2978  0.2203
   8123SM   O1110723   2.249   2.978   2.541 -0.6072  0.6635  0.0005
   8123SM   O1210724   2.191   2.734   2.497 -0.7543 -0.1712 -0.2736
   8123SM   C1S10725   2.323   3.077   2.609 -0.3246 -0.3365 -0.1393
   8123SM   H1S10726   2.365   3.030   2.701  1.3002 -0.4765 -0.9275
   8123SM   H1T10727   2.254   3.156   2.646 -0.4149 -0.5356  0.1206
   8123SM    NF10728   2.507   3.247   2.615  0.8509  0.2626 -0.6023
   8123SM   HNF10729   2.461   3.335   2.619 -0.0369 -0.1083 -1.9439
   8123SM   C2S10730   2.436   3.151   2.527  0.0219  0.3295  1.1333
   8123SM   H2S10731   2.499   3.070   2.483 -1.9491 -1.0577  0.7350
   8123SM   C3S10732   2.378   3.223   2.397 -0.2463 -0.7586  0.0823
   8123SM   H3S10733   2.283   3.275   2.423 -1.6556 -3.6406  1.1421
   8123SM    O310734   2.331   3.135   2.289 -0.5223  0.7240 -0.4178
   8123SM   HO310735   2.356   3.049   2.324  0.8627  0.8190 -1.1393
   8123SM   C4S10736   2.478   3.323   2.350  0.4427 -0.8602  0.8741
   8123SM   H4S10737   2.447   3.424   2.380 -1.3782 -0.9513 -0.5431
   8123SM   C5S10738   2.582   3.314   2.263 -0.2575 -0.8671 -0.1431
   8123SM   H5S10739   2.610   3.217   2.219 -1.1857 -0.5060 -1.6213
   8123SM   C6S10740   2.678   3.426   2.216  0.3458  0.1115 -0.1372
   8123SM   H6S10741   2.654   3.455   2.111  1.9889  0.7038 -0.3750
   8123SM   H6T10742   2.781   3.386   2.227  0.3733  0.2458  0.1147
   8123SM   C7S10743   2.662   3.562   2.302 -0.2669  0.3821  0.3730
   8123SM   H7S10744   2.561   3.606   2.287  0.6997  1.9802 -2.0357
   8123SM   H7T10745   2.729   3.633   2.250  0.5424 -2.3944 -2.6710
   8123SM   C8S10746   2.698   3.550   2.440 -0.3229  0.3449 -0.3621
   8123SM   H8S10747   2.809   3.550   2.449 -0.4517  2.0341  2.6519
   8123SM   H8T10748   2.662   3.458   2.490 -0.4773  1.5182  1.8541
   8123SM   C9S10749   2.666   3.677   2.523  0.5647 -0.0987 -0.3902
   8123SM   H9S10750   2.556   3.690   2.529  0.3200 -1.1742 -1.9068
   8123SM   H9T10751   2.714   3.767   2.478  0.3217  0.7582  1.0008
   8123SM  C10S10752   2.710   3.658   2.666 -0.1518 -1.0671  0.4382
   8123SM  H10S10753   2.643   3.589   2.721 -0.8473 -1.2662 -0.6167
   8123SM  H10T10754   2.691   3.755   2.716  0.0875  0.1823 -1.7328
   8123SM  C11S10755   2.860   3.632   2.688  0.0468  0.0277 -0.2472
   8123SM  H11S10756   2.930   3.692   2.626 -0.4190  3.0171  1.9158
   8123SM  H11T10757   2.879   3.527   2.659  1.1710  0.1580 -0.0216
   8123SM  C12S10758   2.902   3.647   2.841 -0.4283 -0.4210 -0.5018
   8123SM  H12S10759   2.829   3.595   2.906  1.1927 -1.6720  0.4051
   8123SM  H12T10760   2.898   3.754   2.870 -1.3061 -0.9389  1.4187
   8123SM  C13S10761   3.046   3.606   2.874  0.5081  1.1164 -0.0867
   8123SM  H13S10762   3.056   3.640   2.979 -1.2428  1.1471  0.1133
   8123SM  H13T10763   3.111   3.681   2.825  1.5717  1.8242  2.2537
   8123SM  C14S10764   3.070   3.458   2.864 -0.6676 -0.0370 -0.1697
   8123SM  H14S10765   3.030   3.423   2.767  0.8072 -0.5388 -0.6254
   8123SM  H14T10766   3.014   3.409   2.946  1.1448 -1.7697  0.0987
   8123SM  C15S10767   3.223   3.426   2.867  1.0149  0.3226 -0.7278
   8123SM  H15S10768   3.269   3.485   2.949  2.1867  0.1587 -1.2462
   8123SM  H15T10769   3.263   3.468   2.772  0.9881 -0.7510 -1.2331
   8123SM  C16S10770   3.277   3.284   2.883  0.1768  0.4537 -0.3169
   8123SM  H16S10771   3.202   3.214   2.842  2.0893 -0.5084 -2.3675
   8123SM  H16T10772   3.296   3.250   2.987 -1.1826  0.0427 -0.1875
   8123SM  C17S10773   3.402   3.267   2.804  0.9208 -0.1155  0.2953
   8123SM  H17S10774   3.469   3.352   2.829  0.4530  0.2257  0.3997
   8123SM  H17T10775   3.390   3.284   2.695  0.7833 -1.6677  0.0517
   8123SM  C18S10776   3.472   3.131   2.820 -0.2439  0.3530 -0.8515
   8123SM  H18S10777   3.576   3.136   2.783  0.3380 -0.3327  0.6185
   8123SM  H18T10778   3.408   3.055   2.770  1.4450  0.8823 -4.1265
   8123SM  H18U10779   3.484   3.100   2.926  0.3838  1.2305 -0.6560
   8123SM   C1F10780   2.599   3.202   2.705  0.5395  0.2409 -0.0508
   8123SM    OF10781   2.620   3.080   2.717  0.5254 -0.2307  0.8282
   8123SM   C2F10782   2.678   3.298   2.789  0.4938  0.6212 -0.2955
   8123SM   H2F10783   2.596   3.364   2.824 -0.8987 -0.7573 -0.8657
   8123SM   H2G10784   2.741   3.361   2.723  0.9549  0.2983 -0.1704
   8123SM   C3F10785   2.772   3.225   2.888  0.0171 -0.8374 -0.1260
   8123SM   H3F10786   2.835   3.307   2.928  0.3093 -0.5888 -1.0527
   8123SM   H3G10787   2.850   3.173   2.828 -1.1675 -0.6949 -1.8964
   8123SM   C4F10788   2.709   3.157   3.008  0.0745 -0.2332 -0.2086
   8123SM   H4F10789   2.652   3.067   2.978 -3.7155  1.9220 -0.0215
   8123SM   H4G10790   2.639   3.229   3.055  0.6711  0.4720 -0.3802
   8123SM   C5F10791   2.812   3.124   3.116 -0.1409 -0.2612  0.2954
   8123SM   H5F10792   2.875   3.212   3.139  1.4705 -0.9157 -1.4017
   8123SM   H5G10793   2.888   3.050   3.084 -0.7283 -0.2419 -1.2240
   8123SM   C6F10794   2.737   3.082   3.240 -0.1230  0.4276 -0.2763
   8123SM   H6F10795   2.659   3.010   3.210 -2.1453  1.5439  1.9089
   8123SM   H6G10796   2.695   3.177   3.282  0.8826  1.5423 -1.6943
   8123SM   C7F10797   2.834   3.027   3.351  0.7177 -0.3509  0.2478
   8123SM   H7F10798   2.930   3.080   3.336  0.3964  0.1525 -0.0771
   8123SM   H7G10799   2.838   2.919   3.328 -0.3913 -0.2215 -0.6431
   8123SM   C8F10800   2.776   3.054   3.488  0.1936 -0.4233 -0.2300
   8123SM   H8F10801   2.674   3.011   3.496  0.8845 -1.7601  2.9651
   8123SM   H8G10802   2.759   3.161   3.513 -1.7287 -1.4694  3.9201
   8123SM   C9F10803   2.852   2.998   3.605 -0.9091 -0.0999 -0.1728
   8123SM   H9F10804   2.918   2.913   3.579  0.8133  1.2100 -0.2792
   8123SM   H9G10805   2.782   2.962   3.683 -0.5952  0.7632  0.5231
   8123SM  C10F10806   2.958   3.105   3.665 -0.2555 -0.5578  0.2812
   8123SM  H10F10807   2.907   3.204   3.666 -0.1851 -0.4409  3.6602
   8123SM  H10G10808   3.035   3.112   3.585 -0.3617 -2.1944  0.0060
   8123SM  C11F10809   3.020   3.044   3.788 -0.3847 -0.3246 -0.0537
   8123SM  H11F10810   3.126   3.076   3.790  0.0438 -1.1764 -3.4983
   8123SM  H11G10811   3.029   2.934   3.773 -0.3614 -0.6568  2.1085
   8123SM  C12F10812   2.949   3.073   3.917  0.1140  0.0529 -0.4057
   8123SM  H12F10813   3.006   3.036   4.006  1.0846  0.5307 -0.8205
   8123SM  H12G10814   2.856   3.013   3.930  0.0992  0.3435  1.0146
   8123SM  C13F10815   2.913   3.225   3.947  0.7050  0.2199 -0.6192
   8123SM  H13F10816   2.820   3.245   3.888  1.2436  1.7461 -1.0128
   8123SM  H13G10817   2.989   3.295   3.906 -0.1895  3.8077  3.2139
   8123SM  C14F10818   2.909   3.272   4.098 -0.6431 -0.1026  0.2190
   8123SM  H14F10819   3.013   3.256   4.134 -0.5793  0.7194  0.4049
   8123SM  H14G10820   2.842   3.212   4.163 -0.3876  1.0559  1.6055
   8123SM  C15F10821   2.846   3.406   4.115  0.3974  0.2958 -0.0507
   8123SM  H15F10822   2.739   3.413   4.085  0.4247  2.1283  0.1245
   8123SM  H15G10823   2.897   3.482   4.052 -3.2391  1.5113 -1.8585
   8123SM  C16F10824   2.866   3.463   4.256  0.2744  0.0794  0.5226
   8123SM  H16F10825   2.870   3.574   4.254 -0.5322  0.1134  0.2121
   8123SM  H16G10826   2.959   3.425   4.302  0.4131  0.1642  0.3112
   8123SM  C17F10827   2.749   3.432   4.353 -0.0333  0.1708  0.2039
   8123SM  H17F10828   2.744   3.321   4.349 -1.0378  0.1563  1.4557
   8123SM  H17G10829   2.666   3.485   4.301  0.7671 -0.4269 -1.7994
   8123SM  C18F10830   2.780   3.491   4.494  0.9251  0.8183  0.1946
   8123SM  H18F10831   2.749   3.597   4.501 -1.4146  0.3128 -1.6111
   8123SM  H18G10832   2.886   3.476   4.527  1.1789 -0.4957 -1.1350
   8123SM  C19F10833   2.695   3.413   4.597  0.6337 -0.5679 -0.1201
   8123SM  H19F10834   2.709   3.458   4.698 -0.5990  1.8192 -0.9284
   8123SM  H19G10835   2.736   3.310   4.609 -0.7167 -0.8179  3.6591
   8123SM  C20F10836   2.547   3.418   4.569  0.0077  0.1759  0.1848
   8123SM  H20F10837   2.529   3.373   4.469  0.8931  0.8985 -0.3133
   8123SM  H20G10838   2.506   3.521   4.556 -0.0368  0.3278  1.4514
   8123SM  C21F10839   2.455   3.338   4.659  0.1338 -0.8293  0.0669
   8123SM  H21F10840   2.391   3.391   4.732  0.0920 -1.7637  0.7348
   8123SM  H21G10841   2.530   3.288   4.724  1.3978  1.1714  0.2336
   8123SM  C22F10842   2.356   3.237   4.600 -0.1231 -0.0739  0.3071
   8123SM  H22F10843   2.418   3.148   4.575 -1.3233 -1.3452  1.6407
   8123SM  H22G10844   2.313   3.273   4.503  1.1379  1.0059  0.1176
   8123SM  C23F10845   2.245   3.211   4.703 -0.1319  0.4592  1.0386
   8123SM  H23F10846   2.167   3.146   4.658 -0.3302 -0.5712  2.7846
   8123SM  H23G10847   2.189   3.305   4.724  1.0495  1.3605  0.2580
   8123SM  H23H10848   2.277   3.164   4.798  0.9681  1.1206  1.0026
   8223SM     N10849   1.650   4.333   2.343  0.0800 -0.3945  0.0039
   8223SM   C1510850   1.651   4.267   2.211 -0.0457  0.2555  0.6574
   8223SM  H15A10851   1.689   4.167   2.228  1.4613  0.5569 -0.6593
   8223SM  H15B10852   1.701   4.329   2.138 -1.3428  2.9340  1.8880
   8223SM  H15C10853   1.554   4.274   2.164  1.1174  0.0909 -1.9322
   8223SM   C1410854   1.786   4.351   2.394  0.0713 -0.3845 -0.4347
   8223SM  H14A10855   1.837   4.265   2.433  1.8527  2.3295  4.0308
   8223SM  H14B10856   1.796   4.426   2.472 -1.6508 -0.7225  0.1478
   8223SM  H14C10857   1.846   4.374   2.307 -2.5669 -0.2570 -2.3418
   8223SM   C1310858   1.593   4.475   2.327  0.0525 -0.6071 -0.3473
   8223SM  H13A10859   1.641   4.523   2.244 -1.8853  0.5839 -0.8362
   8223SM  H13B10860   1.600   4.529   2.420 -1.2805  0.6723 -0.9472
   8223SM  H13C10861   1.490   4.466   2.295 -0.4026 -1.0130  1.1235
   8223SM   C1210862   1.574   4.264   2.455  0.1695  0.5700  0.9454
   8223SM  H12A10863   1.469   4.291   2.453 -0.2405 -0.9587 -0.4835
   8223SM  H12B10864   1.603   4.310   2.549 -0.0133  1.4001  0.6026
   8223SM   C1110865   1.592   4.109   2.460  0.0874  0.8495 -0.1388
   8223SM  H11A10866   1.526   4.069   2.380 -1.7116  2.5559  0.4170
   8223SM  H11B10867   1.552   4.060   2.552  1.3454 -2.5520 -1.2434
   8223SM     P10868   1.766   3.939   2.363 -0.7234  0.2394 -0.3387
   8223SM   O1310869   1.702   3.820   2.427  0.5076  0.1986  0.3444
   8223SM   O1410870   1.741   3.970   2.222  0.3045  0.6839 -0.5249
   8223SM   O1110871   1.919   3.916   2.381 -0.3592 -0.3480 -0.5720
   8223SM   O1210872   1.724   4.067   2.447 -0.3333  0.2985  0.2399
   8223SM   C1S10873   1.979   3.923   2.508  0.7277  0.0859 -0.8948
   8223SM   H1S10874   1.976   3.822   2.556 -2.3371  1.3627  2.0045
   8223SM   H1T10875   1.925   3.984   2.583  2.0518  0.3435 -0.0999
   8223SM    NF10876   2.196   3.978   2.626 -0.4130 -0.1677  0.1880
   8223SM   HNF10877   2.173   4.044   2.697 -0.5032 -1.9891  1.9369
   8223SM   C2S10878   2.117   3.986   2.506  0.4738  0.3503  1.0484
   8223SM   H2S10879   2.183   3.941   2.428 -1.2301  0.6618 -0.6246
   8223SM   C3S10880   2.092   4.138   2.468 -0.3476  0.4254  0.3735
   8223SM   H3S10881   2.019   4.177   2.542 -2.5586  0.8861 -1.9375
   8223SM    O310882   2.023   4.161   2.344 -0.4141 -0.3519  0.3824
   8223SM   HO310883   1.982   4.078   2.321 -0.9837 -0.1146  0.5186
   8223SM   C4S10884   2.227   4.210   2.472  0.0568  0.0379  0.0009
   8223SM   H4S10885   2.240   4.267   2.565 -2.4354 -1.9975  1.7291
   8223SM   C5S10886   2.318   4.210   2.373  0.1946  0.0901 -0.0919
   8223SM   H5S10887   2.302   4.148   2.284  0.0968 -1.0673  0.7020
   8223SM   C6S10888   2.443   4.286   2.376 -0.1421  0.0272 -0.0238
   8223SM   H6S10889   2.415   4.380   2.324 -0.5434 -0.2962 -0.3930
   8223SM   H6T10890   2.526   4.258   2.308 -0.2489  0.5701 -0.3780
   8223SM   C7S10891   2.506   4.329   2.511  0.2813 -0.2035 -0.3151
   8223SM   H7S10892   2.432   4.388   2.569  1.2035  0.7458 -0.0671
   8223SM   H7T10893   2.599   4.385   2.486  0.4219 -0.5418 -0.5709
   8223SM   C8S10894   2.540   4.206   2.598 -0.6800 -0.2031 -0.5886
   8223SM   H8S10895   2.574   4.115   2.543  0.6802  0.4660 -0.8970
   8223SM   H8T10896   2.446   4.176   2.649 -0.6319  0.0763 -0.3402
   8223SM   C9S10897   2.658   4.224   2.700 -0.0624 -0.2111 -0.0755
   8223SM   H9S10898   2.613   4.274   2.789  1.1239 -1.9527  1.5738
   8223SM   H9T10899   2.744   4.287   2.670  0.7872 -0.1199  2.2764
   8223SM  C10S10900   2.720   4.093   2.751  0.7223  0.1323  0.0715
   8223SM  H10S10901   2.784   4.038   2.679  1.9742  2.4218 -0.6555
   8223SM  H10T10902   2.637   4.021   2.768 -0.7176  1.6609 -0.1245
   8223SM  C11S10903   2.802   4.128   2.878 -0.3120  0.5227 -0.5439
   8223SM  H11S10904   2.721   4.153   2.950 -0.4427 -0.5053 -0.3192
   8223SM  H11T10905   2.867   4.214   2.848  1.2849 -0.5325 -0.2260
   8223SM  C12S10906   2.874   4.004   2.930  0.1976  0.2593  0.4533
   8223SM  H12S10907   2.940   3.966   2.850  2.9642  2.3745  1.5784
   8223SM  H12T10908   2.804   3.925   2.965  0.2884  0.3508  0.8452
   8223SM  C13S10909   2.954   4.052   3.048 -0.1807  0.3404 -0.4564
   8223SM  H13S10910   2.877   4.089   3.120 -0.5401 -0.2574 -0.5253
   8223SM  H13T10911   3.023   4.136   3.027  0.4852 -0.4589 -1.5431
   8223SM  C14S10912   3.019   3.935   3.126 -0.1300  0.1374  0.4549
   8223SM  H14S10913   3.105   3.901   3.064 -0.1870  1.4317 -0.3920
   8223SM  H14T10914   2.943   3.855   3.132  0.2403 -0.1292  2.1246
   8223SM  C15S10915   3.070   3.963   3.263 -0.6549 -0.2625 -0.2959
   8223SM  H15S10916   2.991   3.950   3.340 -1.1489  1.9126 -0.3697
   8223SM  H15T10917   3.107   4.067   3.262  0.1324 -0.5338  0.0410
   8223SM  C16S10918   3.185   3.856   3.301  0.5470 -0.5890  0.3812
   8223SM  H16S10919   3.269   3.848   3.230 -0.0095 -1.8411 -0.1656
   8223SM  H16T10920   3.134   3.758   3.306 -0.4574 -0.0558  1.0534
   8223SM  C17S10921   3.240   3.900   3.437  0.5296 -0.0232 -0.4428
   8223SM  H17S10922   3.151   3.894   3.504  0.0594  0.1594 -1.0446
   8223SM  H17T10923   3.283   4.002   3.435  0.5139  0.0489  1.1506
   8223SM  C18S10924   3.338   3.799   3.497 -0.4235  0.0552 -0.0690
   8223SM  H18S10925   3.293   3.697   3.502  0.4171 -0.2911  1.2076
   8223SM  H18T10926   3.369   3.848   3.592  1.1675 -0.2366 -0.4047
   8223SM  H18U10927   3.431   3.801   3.436  0.0906 -0.0605  0.6940
   8223SM   C1F10928   2.266   3.869   2.659 -0.1159  0.5579 -0.4543
   8223SM    OF10929   2.270   3.771   2.588  0.0936  0.6689 -0.6832
   8223SM   C2F10930   2.340   3.862   2.786 -0.3461 -0.0128 -0.0027
   8223SM   H2F10931   2.272   3.911   2.860 -1.2064  1.0266 -1.4279
   8223SM   H2G10932   2.425   3.934   2.791 -1.2010  1.1634 -1.4313
   8223SM   C3F10933   2.397   3.727   2.833  0.7170 -0.7032  0.8947
   8223SM   H3F10934   2.470   3.687   2.759  0.3390  0.8206 -0.3417
   8223SM   H3G10935   2.321   3.646   2.831  0.5021 -0.5158  1.3898
   8223SM   C4F10936   2.447   3.723   2.971 -0.1227 -0.0598  0.9711
   8223SM   H4F10937   2.358   3.745   3.034 -0.7769 -3.0483  1.2439
   8223SM   H4G10938   2.525   3.801   2.988  1.7832 -1.7190  0.1718
   8223SM   C5F10939   2.511   3.597   3.008 -0.8323 -0.2038  0.0348
   8223SM   H5F10940   2.592   3.585   2.934 -0.1809 -0.1487  0.7241
   8223SM   H5G10941   2.450   3.504   3.001 -0.0016 -0.6222 -2.7826
   8223SM   C6F10942   2.567   3.599   3.146  0.2968  0.4836  1.1868
   8223SM   H6F10943   2.487   3.597   3.224  0.0712  0.4674  0.9553
   8223SM   H6G10944   2.638   3.684   3.157  0.2622  0.6857 -0.0650
   8223SM   C7F10945   2.665   3.480   3.189  0.2208 -0.4218  0.6145
   8223SM   H7F10946   2.747   3.485   3.114 -2.2464 -4.0153 -2.6726
   8223SM   H7G10947   2.609   3.385   3.179 -0.5242 -0.0563  1.1621
   8223SM   C8F10948   2.728   3.495   3.331 -0.3628 -0.3372  0.0172
   8223SM   H8F10949   2.668   3.445   3.410 -0.7246  2.6510  1.7792
   8223SM   H8G10950   2.718   3.597   3.373 -1.8627 -1.3046  2.1835
   8223SM   C9F10951   2.870   3.433   3.339 -0.0403 -0.6752  0.0580
   8223SM   H9F10952   2.942   3.472   3.264 -0.5240  1.2502  0.5318
   8223SM   H9G10953   2.867   3.323   3.325  0.4255 -0.7435  0.5165
   8223SM  C10F10954   2.936   3.458   3.477  0.8555 -0.3310  0.2294
   8223SM  H10F10955   2.875   3.422   3.563  0.6400 -3.8646 -1.2261
   8223SM  H10G10956   2.946   3.568   3.484  4.8082 -0.4952 -0.6337
   8223SM  C11F10957   3.074   3.411   3.462  0.1581  0.2026 -0.1653
   8223SM  H11F10958   3.125   3.482   3.393 -1.7629  1.9980  0.1797
   8223SM  H11G10959   3.089   3.305   3.434 -0.3352  0.0207  0.2507
   8223SM  C12F10960   3.163   3.419   3.587 -0.4371 -0.1665 -0.1407
   8223SM  H12F10961   3.123   3.350   3.664  2.1730 -2.2304 -0.5227
   8223SM  H12G10962   3.160   3.523   3.628  3.3245 -0.1742  0.4905
   8223SM  C13F10963   3.310   3.395   3.564  0.0179  0.8199  0.0386
   8223SM  H13F10964   3.345   3.462   3.482  2.7805 -1.2468 -0.6556
   8223SM  H13G10965   3.330   3.294   3.521 -1.0340  1.2842 -1.6518
   8223SM  C14F10966   3.394   3.422   3.691  0.8188  0.2484 -0.0893
   8223SM  H14F10967   3.402   3.527   3.726  0.7992 -0.1039  0.9972
   8223SM  H14G10968   3.495   3.383   3.664 -0.4920 -0.7448 -4.2929
   8223SM  C15F10969   3.338   3.342   3.820 -0.0911 -0.0566 -0.3388
   8223SM  H15F10970   3.340   3.233   3.799 -1.5969 -0.1226 -0.2664
   8223SM  H15G10971   3.230   3.369   3.829  0.2565  0.7772  1.9562
   8223SM  C16F10972   3.403   3.369   3.954 -0.1591 -0.3341  0.3180
   8223SM  H16F10973   3.402   3.475   3.987 -0.8786 -0.1149 -0.3703
   8223SM  H16G10974   3.511   3.343   3.955 -0.0625 -0.4006 -2.7211
   8223SM  C17F10975   3.338   3.296   4.070 -0.6137  0.1613  0.4274
   8223SM  H17F10976   3.348   3.188   4.044 -0.9025 -0.1032  1.4049
   8223SM  H17G10977   3.234   3.332   4.086 -1.1630 -0.6643 -1.0563
   8223SM  C18F10978   3.402   3.311   4.203 -0.0508  0.5876 -0.2395
   8223SM  H18F10979   3.387   3.419   4.222 -1.6345  0.3518  0.0050
   8223SM  H18G10980   3.509   3.281   4.194 -0.5249 -0.6189 -2.8745
   8223SM  C19F10981   3.322   3.235   4.309 -0.2223  0.0970 -0.1421
   8223SM  H19F10982   3.311   3.128   4.281  0.1978 -0.1267  0.5220
   8223SM  H19G10983   3.219   3.276   4.306  0.0351  0.7395 -2.3878
   8223SM  C20F10984   3.369   3.243   4.454  0.1477 -0.6392 -0.0659
   8223SM  H20F10985   3.286   3.248   4.527 -0.3277  0.7971 -0.6687
   8223SM  H20G10986   3.434   3.333   4.463 -1.2814  0.3186  1.0285
   8223SM  C21F10987   3.466   3.121   4.496  0.5375 -0.5357  0.0988
   8223SM  H21F10988   3.414   3.024   4.482 -0.8364  0.3325 -1.0336
   8223SM  H21G10989   3.499   3.141   4.601  1.2862 -0.8079 -0.0782
   8223SM  C22F10990   3.602   3.117   4.428  0.2768  0.2626 -0.0992
   8223SM  H22F10991   3.658   3.210   4.450  1.7411 -0.7322  0.4991
   8223SM  H22G10992   3.587   3.101   4.319 -1.8114  0.8021  0.0579
   8223SM  C23F10993   3.693   3.007   4.477  0.0701  0.1736 -0.1091
   8223SM  H23F10994   3.782   3.013   4.410  0.1559  0.9769  0.0669
   8223SM  H23G10995   3.643   2.909   4.459  0.1432  0.1979 -0.4625
   8223SM  H23H10996   3.723   3.014   4.583  1.0049  2.5143 -0.4790
   8323SM     N10997   3.632   2.314   2.355  0.0639  0.0882 -0.4383
   8323SM   C1510998   3.677   2.452   2.299 -0.4360  0.4597  0.7511
   8323SM  H15A10999   3.599   2.519   2.332  0.1599  0.9458  1.1680
   8323SM  H15B11000   3.675   2.455   2.191  0.1414 -2.9462  0.5298
   8323SM  H15C11001   3.773   2.480   2.339 -0.4785  1.8403 -0.0737
   8323SM   C1411002   3.504   2.275   2.288 -0.1308  0.2237  0.2011
   8323SM  H14A11003   3.510   2.287   2.180  0.1211 -1.4496  0.0011
   8323SM  H14B11004   3.430   2.343   2.329 -0.4914 -0.4472  0.6678
   8323SM  H14C11005   3.479   2.172   2.308  0.7505  0.2843  1.7662
   8323SM   C1311006   3.731   2.207   2.326 -0.4427  0.3852 -0.4320
   8323SM  H13A11007   3.818   2.224   2.388 -0.5728  3.0468 -0.8697
   8323SM  H13B11008   3.768   2.203   2.225  3.0937  1.6713  0.6549
   8323SM  H13C11009   3.693   2.107   2.338 -0.7166  0.5905  0.5360
   8323SM   C1211010   3.613   2.321   2.505 -0.3406 -0.0544  0.3302
   8323SM  H12A11011   3.709   2.348   2.544 -1.3001  2.5864  1.0765
   8323SM  H12B11012   3.587   2.224   2.545  2.1241 -0.9864 -0.1569
   8323SM   C1111013   3.498   2.418   2.562  0.1269  0.2499 -0.3036
   8323SM  H11A11014   3.526   2.516   2.517  1.9061 -1.7342 -3.9773
   8323SM  H11B11015   3.500   2.438   2.672 -1.4353  3.0504 -0.6831
   8323SM     P11016   3.250   2.487   2.508 -0.2447 -0.2182 -0.4722
   8323SM   O1311017   3.272   2.567   2.386  0.0613  0.1573  0.3211
   8323SM   O1411018   3.124   2.413   2.528 -0.4099  0.0664 -0.1984
   8323SM   O1111019   3.273   2.578   2.636 -0.1511  0.0944 -0.0837
   8323SM   O1211020   3.369   2.382   2.528  0.3695  0.0926  0.0842
   8323SM   C1S11021   3.268   2.530   2.776 -0.0642 -0.2144 -0.2080
   8323SM   H1S11022   3.324   2.434   2.779  0.0931 -0.0975  1.8709
   8323SM   H1T11023   3.161   2.511   2.799  0.2444 -2.0971 -0.1711
   8323SM    NF11024   3.349   2.561   3.001 -0.1872 -0.2788 -0.5415
   8323SM   HNF11025   3.292   2.588   3.078 -0.6202  0.1795 -1.0144
   8323SM   C2S11026   3.328   2.629   2.874  0.5715 -0.2996 -0.1475
   8323SM   H2S11027   3.430   2.654   2.839 -0.0225  2.3617 -0.2199
   8323SM   C3S11028   3.229   2.758   2.875  0.2492  0.2733 -0.7505
   8323SM   H3S11029   3.125   2.732   2.904  0.2283  2.7248  1.7433
   8323SM    O311030   3.219   2.818   2.747 -0.1314  0.0004  0.0095
   8323SM   HO311031   3.251   2.751   2.686 -1.1277 -0.3438 -0.1599
   8323SM   C4S11032   3.272   2.855   2.973 -0.6007 -0.5977  0.6727
   8323SM   H4S11033   3.369   2.906   2.957 -0.6762 -0.2574  1.2574
   8323SM   C5S11034   3.202   2.882   3.092  1.0625 -0.1192  0.7686
   8323SM   H5S11035   3.108   2.829   3.113  1.2202 -0.4965  0.5404
   8323SM   C6S11036   3.247   2.984   3.198 -0.7107 -0.6853 -0.3139
   8323SM   H6S11037   3.179   3.071   3.208  2.4813  1.9645 -0.1232
   8323SM   H6T11038   3.349   3.019   3.173 -0.8617  0.9604  1.2187
   8323SM   C7S11039   3.261   2.917   3.336 -0.3053 -0.3882 -0.3063
   8323SM   H7S11040   3.330   2.831   3.326  1.0681  0.6260  0.1521
   8323SM   H7T11041   3.162   2.889   3.379 -0.7358  3.5424  1.7484
   8323SM   C8S11042   3.314   3.018   3.452  0.4270 -0.5215  0.2684
   8323SM   H8S11043   3.226   3.084   3.470  0.5529  0.1797 -1.4527
   8323SM   H8T11044   3.406   3.072   3.422  0.1433  0.4232  1.0684
   8323SM   C9S11045   3.334   2.966   3.595 -0.0668  0.0719  0.1644
   8323SM   H9S11046   3.251   2.894   3.613 -1.3481  0.8139 -2.3433
   8323SM   H9T11047   3.333   3.048   3.670  3.1443  1.3734 -1.0438
   8323SM  C10S11048   3.472   2.898   3.601 -0.0621  0.3902  0.6908
   8323SM  H10S11049   3.536   2.986   3.579  0.5481 -0.0244  0.7870
   8323SM  H10T11050   3.482   2.826   3.517  1.9346 -1.3395  2.3233
   8323SM  C11S11051   3.515   2.854   3.738 -0.1611 -0.0913 -0.0823
   8323SM  H11S11052   3.607   2.792   3.743 -1.5771 -2.1885  2.5714
   8323SM  H11T11053   3.435   2.796   3.789  1.1473 -1.8296  0.0792
   8323SM  C12S11054   3.550   2.972   3.835 -0.7959  0.1471 -0.5277
   8323SM  H12S11055   3.460   3.028   3.866 -0.5337  0.9713 -1.2089
   8323SM  H12T11056   3.612   3.048   3.782 -1.0336  0.8299  0.1542
   8323SM  C13S11057   3.621   2.932   3.963 -0.3748  0.7483 -0.0534
   8323SM  H13S11058   3.573   2.850   4.020  0.9065 -0.1089 -0.1703
   8323SM  H13T11059   3.612   3.018   4.033 -3.1416  1.3373 -1.0199
   8323SM  C14S11060   3.755   2.885   3.926 -0.1681 -0.0024 -0.4742
   8323SM  H14S11061   3.799   2.956   3.853  1.0778  0.8013  1.0141
   8323SM  H14T11062   3.757   2.791   3.867  0.6169  0.4525 -1.1978
   8323SM  C15S11063   3.853   2.876   4.045  0.1623 -0.3573 -0.4557
   8323SM  H15S11064   3.951   2.864   3.994  0.1537  1.1823 -0.8815
   8323SM  H15T11065   3.831   2.790   4.112  0.9591 -0.8023 -0.7559
   8323SM  C16S11066   3.852   3.003   4.139 -0.3925 -0.4604 -0.0401
   8323SM  H16S11067   3.934   2.994   4.215  1.3243 -0.7214 -1.8469
   8323SM  H16T11068   3.759   3.005   4.200  1.5070 -0.0095  3.1049
   8323SM  C17S11069   3.885   3.129   4.059 -0.1051 -0.0985  0.2388
   8323SM  H17S11070   3.822   3.136   3.968  0.5684  0.5305 -0.1911
   8323SM  H17T11071   3.983   3.127   4.008 -0.2666  1.7021 -0.1943
   8323SM  C18S11072   3.875   3.253   4.150  0.6623  0.3600 -0.0388
   8323SM  H18S11073   3.773   3.253   4.196  0.8521 -0.4137  0.3954
   8323SM  H18T11074   3.901   3.347   4.098  0.1716 -0.0842 -1.1293
   8323SM  H18U11075   3.941   3.249   4.239  0.5991  0.9222  0.0344
   8323SM   C1F11076   3.436   2.462   3.019  0.0116  0.7748  0.4808
   8323SM    OF11077   3.507   2.413   2.932 -0.1837  0.0047 -0.0718
   8323SM   C2F11078   3.444   2.405   3.153  0.1391 -0.1065 -0.7034
   8323SM   H2F11079   3.396   2.305   3.151 -1.5381  0.6159  0.8837
   8323SM   H2G11080   3.382   2.473   3.215  0.1689 -0.5677 -0.1555
   8323SM   C3F11081   3.594   2.393   3.204 -0.3893 -0.2920 -0.3805
   8323SM   H3F11082   3.645   2.491   3.190 -2.0441  0.8019  0.8216
   8323SM   H3G11083   3.644   2.328   3.129  3.0538 -1.7254  2.7921
   8323SM   C4F11084   3.622   2.339   3.341 -0.3930 -0.6217 -0.0199
   8323SM   H4F11085   3.727   2.304   3.346 -0.0939  0.3722  4.1362
   8323SM   H4G11086   3.553   2.255   3.364 -0.8410 -0.6260 -1.2912
   8323SM   C5F11087   3.616   2.446   3.444 -0.2512  0.8884 -0.1950
   8323SM   H5F11088   3.516   2.493   3.431 -1.0515 -0.6788 -0.0022
   8323SM   H5G11089   3.693   2.518   3.410  0.7148 -0.5847 -1.2595
   8323SM   C6F11090   3.637   2.391   3.581 -0.6291  0.3583 -0.1916
   8323SM   H6F11091   3.740   2.352   3.580 -1.2815 -1.4552 -0.7108
   8323SM   H6G11092   3.562   2.311   3.597  0.3474 -0.2315  1.5560
   8323SM   C7F11093   3.631   2.494   3.695  0.2356  0.4645  0.0802
   8323SM   H7F11094   3.547   2.564   3.673 -0.4549 -0.5055 -0.4440
   8323SM   H7G11095   3.723   2.557   3.701  0.5104  0.2590 -1.5408
   8323SM   C8F11096   3.599   2.422   3.827 -0.4308 -0.8011  0.0322
   8323SM   H8F11097   3.687   2.359   3.852 -0.7237 -0.4939  1.9895
   8323SM   H8G11098   3.507   2.363   3.805  0.8452 -1.8051 -3.3167
   8323SM   C9F11099   3.573   2.520   3.940 -0.3219 -0.8085  0.1847
   8323SM   H9F11100   3.497   2.594   3.909 -1.0123 -0.9013  1.5813
   8323SM   H9G11101   3.671   2.573   3.950  0.6511 -2.4419 -0.2086
   8323SM  C10F11102   3.551   2.459   4.072 -0.8025  0.7957  0.0094
   8323SM  H10F11103   3.620   2.376   4.099 -1.4614  1.2584  3.5123
   8323SM  H10G11104   3.456   2.403   4.054 -1.3722  1.2023  1.5887
   8323SM  C11F11105   3.552   2.565   4.189  0.1679  0.3507 -0.0467
   8323SM  H11F11106   3.460   2.628   4.181  0.6201  0.9701 -0.4478
   8323SM  H11G11107   3.646   2.621   4.174  0.2803 -0.1999 -1.5151
   8323SM  C12F11108   3.564   2.500   4.328  0.0110 -0.2533 -0.1636
   8323SM  H12F11109   3.669   2.472   4.353  0.8699  0.3520 -2.8435
   8323SM  H12G11110   3.513   2.402   4.323  0.9396 -0.7164 -0.9191
   8323SM  C13F11111   3.498   2.591   4.440 -0.0704  0.3626 -0.4093
   8323SM  H13F11112   3.388   2.576   4.430 -0.4333 -0.1018  2.9556
   8323SM  H13G11113   3.522   2.699   4.432 -1.7417  0.8640  0.8367
   8323SM  C14F11114   3.533   2.528   4.572  0.0436  0.4213 -0.8129
   8323SM  H14F11115   3.535   2.418   4.555  0.2280  0.1857  0.6278
   8323SM  H14G11116   3.462   2.550   4.655  1.4023 -2.3914  1.2469
   8323SM  C15F11117   3.673   2.566   4.639 -0.4178 -0.6024  0.8024
   8323SM  H15F11118   3.738   2.590   4.552 -0.3680  2.4400  1.5585
   8323SM  H15G11119   3.721   2.488   4.701  1.6903  0.9667  1.2792
   8323SM  C16F11120   3.665   2.692   4.719  0.0020 -1.1970 -0.2923
   8323SM  H16F11121   3.627   2.766   4.645  1.2246  0.2747  0.4804
   8323SM  H16G11122   3.765   2.734   4.745 -1.1112  0.1172  2.3703
   8323SM  C17F11123   3.574   2.705   4.848 -0.7854 -0.2260  0.3217
   8323SM  H17F11124   3.615   2.612   4.892  3.4959 -0.4497 -3.3763
   8323SM  H17G11125   3.469   2.692   4.815 -0.5842  2.3565 -1.7285
   8323SM  C18F11126   3.611   2.826   4.933 -0.3056 -0.6029 -0.3025
   8323SM  H18F11127   3.719   2.809   4.947 -0.1765 -0.8191 -1.4741
   8323SM  H18G11128   3.555   2.839   5.029  1.2459  1.2820  0.4173
   8323SM  C19F11129   3.590   2.965   4.857  0.0268  0.1993 -0.6619
   8323SM  H19F11130   3.492   2.972   4.806  0.3791 -0.8349 -1.5149
   8323SM  H19G11131   3.671   2.987   4.784 -0.9288  3.6053 -0.8571
   8323SM  C20F11132   3.603   3.083   4.956  0.0501 -0.0266 -0.5998
   8323SM  H20F11133   3.707   3.079   4.996  0.0429  3.8264  0.1126
   8323SM  H20G11134   3.530   3.086   5.040  2.2850 -1.7925  1.5974
   8323SM  C21F11135   3.599   3.214   4.877  0.2416  0.0842  0.8262
   8323SM  H21F11136   3.665   3.200   4.789 -1.1462 -0.3141 -0.1935
   8323SM  H21G11137   3.652   3.287   4.942  0.1335 -1.0237  2.2054
   8323SM  C22F11138   3.463   3.278   4.850  0.9587 -0.7338 -0.1317
   8323SM  H22F11139   3.396   3.206   4.798 -0.3140 -0.5895  1.2496
   8323SM  H22G11140   3.483   3.364   4.782  0.2258 -0.8999 -0.5633
   8323SM  C23F11141   3.391   3.339   4.971 -0.4721 -0.1320  0.1929
   8323SM  H23F11142   3.455   3.416   5.020  0.2027  0.4573 -1.5171
   8323SM  H23G11143   3.376   3.259   5.046  1.2454  0.5575  1.3502
   8323SM  H23H11144   3.295   3.393   4.956  0.6307  2.5100  1.8249
   8423SM     N11145   3.269   2.069   2.692  0.0168 -0.1153 -0.0813
   8423SM   C1511146   3.137   2.139   2.714  0.3766 -0.2771  0.0910
   8423SM  H15A11147   3.098   2.147   2.814 -0.0170 -0.3251 -0.0586
   8423SM  H15B11148   3.057   2.090   2.661  0.2667 -1.9682  1.7026
   8423SM  H15C11149   3.151   2.239   2.676  0.7282  0.5869  2.3270
   8423SM   C1411150   3.248   1.923   2.715 -0.1710  0.0492  0.0347
   8423SM  H14A11151   3.192   1.887   2.629 -0.1062  1.8373 -0.7981
   8423SM  H14B11152   3.201   1.899   2.809  1.0734  0.7989  0.8796
   8423SM  H14C11153   3.341   1.868   2.707 -0.2532 -0.7683  3.2990
   8423SM   C1311154   3.316   2.091   2.554  0.4217  0.2253  0.5610
   8423SM  H13A11155   3.246   2.049   2.484  1.1195 -4.0085  2.1005
   8423SM  H13B11156   3.413   2.046   2.534 -0.1891 -0.6537 -0.5360
   8423SM  H13C11157   3.320   2.196   2.531 -1.1067  0.3958  0.9457
   8423SM   C1211158   3.378   2.117   2.785  0.4642 -0.4155  0.5811
   8423SM  H12A11159   3.329   2.123   2.882 -1.7050  0.8669 -0.4953
   8423SM  H12B11160   3.405   2.218   2.758  1.8294 -1.1810 -1.0968
   8423SM   C1111161   3.511   2.045   2.789  0.0228 -0.2853 -0.7256
   8423SM  H11A11162   3.489   1.945   2.832  0.4328  0.1409  0.5094
   8423SM  H11B11163   3.578   2.100   2.859 -0.7467 -0.0821 -0.1394
   8423SM     P11164   3.637   1.917   2.598 -0.0710  0.5149  0.3271
   8423SM   O1311165   3.525   1.819   2.613  0.4836  0.2888  0.0946
   8423SM   O1411166   3.698   1.947   2.463 -0.0303  0.0762  0.5955
   8423SM   O1111167   3.748   1.876   2.697 -0.0539  0.0443 -0.0807
   8423SM   O1211168   3.587   2.045   2.666 -0.1883  0.1077 -0.4120
   8423SM   C1S11169   3.836   1.961   2.768  0.0308  0.0124  0.4363
   8423SM   H1S11170   3.786   2.057   2.790 -1.7510 -0.6186 -0.6102
   8423SM   H1T11171   3.933   1.970   2.715  0.4944 -1.9679  0.8855
   8423SM    NF11172   3.949   1.984   2.979  0.3612  0.2204 -0.1186
   8423SM   HNF11173   4.048   1.977   2.979  0.3080 -0.5681 -0.2141
   8423SM   C2S11174   3.861   1.895   2.907  0.3249  0.2919 -0.3146
   8423SM   H2S11175   3.762   1.883   2.954  0.1388  1.5720 -0.3497
   8423SM   C3S11176   3.918   1.749   2.899 -0.0042  0.0961  0.0507
   8423SM   H3S11177   4.025   1.759   2.872 -0.2058 -0.8621 -1.1466
   8423SM    O311178   3.860   1.662   2.804 -0.3177 -0.2330  0.4461
   8423SM   HO311179   3.799   1.720   2.759 -1.0810  0.3835  2.2093
   8423SM   C4S11180   3.906   1.691   3.041 -0.5229  0.4983  0.1265
   8423SM   H4S11181   3.997   1.695   3.102 -0.8741 -2.9622  1.1185
   8423SM   C5S11182   3.792   1.632   3.091  0.4905 -0.2509 -0.2383
   8423SM   H5S11183   3.700   1.635   3.031 -0.2287  3.5156  0.7536
   8423SM   C6S11184   3.768   1.574   3.233  0.7292  0.2949 -0.2755
   8423SM   H6S11185   3.788   1.465   3.224 -2.3250 -0.3474 -0.2938
   8423SM   H6T11186   3.666   1.596   3.270  1.3232  0.5224  1.2750
   8423SM   C7S11187   3.847   1.628   3.348  1.2079  0.1050 -0.0031
   8423SM   H7S11188   3.830   1.737   3.363  1.3309  0.4516 -2.0464
   8423SM   H7T11189   3.955   1.614   3.324  0.6330  1.0905 -3.9704
   8423SM   C8S11190   3.800   1.561   3.484 -0.7408  0.3311  0.7560
   8423SM   H8S11191   3.789   1.451   3.470  0.5338  0.4539 -1.7650
   8423SM   H8T11192   3.696   1.592   3.510 -1.2849  0.2117 -1.1104
   8423SM   C9S11193   3.886   1.593   3.607  0.6043 -0.3854  0.2695
   8423SM   H9S11194   3.896   1.703   3.622 -1.8605 -0.1470  0.6031
   8423SM   H9T11195   3.987   1.545   3.608  1.4366  1.2346  2.2371
   8423SM  C10S11196   3.812   1.528   3.726 -0.2506 -0.2632  0.3545
   8423SM  H10S11197   3.819   1.417   3.723 -0.1238 -0.2385 -0.5690
   8423SM  H10T11198   3.705   1.557   3.724 -0.5534 -1.3170 -1.6049
   8423SM  C11S11199   3.866   1.596   3.846 -0.3011 -0.1929 -0.2950
   8423SM  H11S11200   3.853   1.706   3.836 -0.3490  0.0075  1.6514
   8423SM  H11T11201   3.976   1.582   3.844 -0.3571 -0.7707 -2.6813
   8423SM  C12S11202   3.799   1.531   3.968  0.1750  0.0340 -1.0010
   8423SM  H12S11203   3.771   1.426   3.945  1.0819  0.1694 -2.8919
   8423SM  H12T11204   3.707   1.591   3.989 -0.4152 -0.9528 -0.7113
   8423SM  C13S11205   3.886   1.536   4.088  0.3318  0.2943  0.1143
   8423SM  H13S11206   3.910   1.642   4.109  2.0752  0.4011 -2.0416
   8423SM  H13T11207   3.981   1.490   4.054 -1.4786 -2.3155 -1.7460
   8423SM  C14S11208   3.830   1.466   4.216  0.1434  0.4905 -0.0398
   8423SM  H14S11209   3.856   1.360   4.197  0.8451  0.2596  1.9696
   8423SM  H14T11210   3.720   1.478   4.222  0.3421  1.7770  3.6622
   8423SM  C15S11211   3.895   1.517   4.342 -0.0725 -0.2826 -0.2526
   8423SM  H15S11212   3.880   1.626   4.352  0.4342 -0.2890  0.6869
   8423SM  H15T11213   4.004   1.499   4.331  0.0638  0.6353 -0.4131
   8423SM  C16S11214   3.851   1.434   4.465 -0.0052  0.4740  0.1640
   8423SM  H16S11215   3.849   1.326   4.438  0.1092 -0.2240  2.7065
   8423SM  H16T11216   3.744   1.464   4.474  0.3028  1.5510  0.3709
   8423SM  C17S11217   3.941   1.445   4.582 -0.0722 -0.0213 -0.0895
   8423SM  H17S11218   4.045   1.417   4.554  0.2984  0.5265  0.6998
   8423SM  H17T11219   3.919   1.374   4.665 -0.4870 -0.4818 -0.5808
   8423SM  C18S11220   3.957   1.584   4.647 -0.3451  0.1231 -0.7112
   8423SM  H18S11221   3.861   1.616   4.694 -0.0569  2.8791 -1.7887
   8423SM  H18T11222   4.000   1.656   4.575  0.9895 -1.1942 -1.2846
   8423SM  H18U11223   4.029   1.578   4.732 -0.0362  2.9502 -0.6705
   8423SM   C1F11224   3.904   2.088   3.040  0.1519  0.1604  0.1138
   8423SM    OF11225   3.785   2.110   3.054 -0.3038  0.0210 -0.2547
   8423SM   C2F11226   4.002   2.193   3.090 -0.3446  0.9129  0.0154
   8423SM   H2F11227   3.969   2.292   3.053  0.5396  0.9860 -0.5971
   8423SM   H2G11228   4.098   2.179   3.036 -1.1882 -0.8690 -1.1374
   8423SM   C3F11229   4.009   2.194   3.244  0.1514  0.4399  0.4106
   8423SM   H3F11230   3.911   2.208   3.294 -0.9833  0.8035 -1.8288
   8423SM   H3G11231   4.077   2.277   3.274  1.4352  0.3949 -2.1427
   8423SM   C4F11232   4.076   2.068   3.309  0.1605 -0.8262 -0.7005
   8423SM   H4F11233   4.161   2.031   3.248 -0.5644  0.1450 -2.3899
   8423SM   H4G11234   4.007   1.982   3.320  0.4780 -1.1733 -1.3600
   8423SM   C5F11235   4.132   2.091   3.450  0.1397 -0.2917  0.6278
   8423SM   H5F11236   4.049   2.128   3.514 -1.2476 -3.6125  0.9283
   8423SM   H5G11237   4.219   2.160   3.443 -0.2208  0.1342  0.3160
   8423SM   C6F11238   4.172   1.963   3.515 -0.2155  0.0525 -0.2097
   8423SM   H6F11239   4.247   1.931   3.439  2.2183 -0.7313  2.3266
   8423SM   H6G11240   4.084   1.897   3.501 -0.3278 -0.0151  0.7436
   8423SM   C7F11241   4.216   1.986   3.654  0.5298 -0.3137 -0.6998
   8423SM   H7F11242   4.124   2.024   3.703  1.4785 -0.7982  1.5512
   8423SM   H7G11243   4.298   2.060   3.643 -0.4167  1.1959  1.5861
   8423SM   C8F11244   4.286   1.864   3.728  0.2713  0.1512 -0.3814
   8423SM   H8F11245   4.377   1.845   3.667 -0.9917  0.7982 -2.5633
   8423SM   H8G11246   4.212   1.782   3.740 -1.0024  1.4940  1.9183
   8423SM   C9F11247   4.326   1.895   3.880  0.0649  0.6012 -0.3824
   8423SM   H9F11248   4.401   1.977   3.887 -1.7158  2.2073  0.8300
   8423SM   H9G11249   4.371   1.807   3.931 -1.2805  0.9868  1.5738
   8423SM  C10F11250   4.198   1.929   3.961  0.2565  0.0862  0.1929
   8423SM  H10F11251   4.119   1.857   3.934 -0.4389  1.1315 -0.6359
   8423SM  H10G11252   4.163   2.035   3.963 -0.4461 -0.1306  2.3482
   8423SM  C11F11253   4.219   1.908   4.113  1.1921 -0.3766 -1.1021
   8423SM  H11F11254   4.300   1.974   4.153  0.2833  1.0305 -1.5063
   8423SM  H11G11255   4.236   1.803   4.143  0.7232 -0.6753 -1.8770
   8423SM  C12F11256   4.087   1.941   4.190 -0.1047  0.1959 -0.1821
   8423SM  H12F11257   4.003   1.878   4.153  0.7218 -0.4781 -0.9409
   8423SM  H12G11258   4.057   2.047   4.177  1.6955  1.4341  4.1059
   8423SM  C13F11259   4.104   1.925   4.343  0.6235 -0.4181 -0.7353
   8423SM  H13F11260   4.118   1.819   4.372  0.0167 -0.2025  0.3784
   8423SM  H13G11261   4.003   1.953   4.380  1.6762  0.1749  1.8550
   8423SM  C14F11262   4.192   2.029   4.405 -0.3573 -0.2380 -0.1361
   8423SM  H14F11263   4.192   2.121   4.343  2.3453 -0.0544  0.0334
   8423SM  H14G11264   4.294   1.991   4.386 -0.3203  0.1108 -0.6568
   8423SM  C15F11265   4.170   2.065   4.550  0.1477 -0.2697  0.0225
   8423SM  H15F11266   4.153   1.980   4.621  0.4618  0.7744  1.3916
   8423SM  H15G11267   4.066   2.105   4.545  0.6204  1.5776  2.8331
   8423SM  C16F11268   4.261   2.171   4.603 -0.8556 -0.0593 -1.0448
   8423SM  H16F11269   4.288   2.252   4.532 -0.7100  1.0416  0.2327
   8423SM  H16G11270   4.357   2.129   4.639 -0.2199  0.8233 -1.6711
   8423SM  C17F11271   4.193   2.233   4.723  0.4417  0.1946 -0.5434
   8423SM  H17F11272   4.173   2.162   4.806  1.5902 -0.3894 -0.7448
   8423SM  H17G11273   4.095   2.275   4.689  1.8707  1.2809 -3.6390
   8423SM  C18F11274   4.274   2.346   4.786  0.2366  0.0679  0.3786
   8423SM  H18F11275   4.301   2.424   4.712 -1.4311 -0.8756 -1.2959
   8423SM  H18G11276   4.365   2.306   4.836  0.9224  2.2597  0.9668
   8423SM  C19F11277   4.191   2.411   4.905 -0.1270 -0.1561  0.0359
   8423SM  H19F11278   4.160   2.341   4.985 -0.0810 -0.5222 -0.2649
   8423SM  H19G11279   4.098   2.461   4.871  0.4671  2.5017  1.9895
   8423SM  C20F11280   4.285   2.525   4.970 -0.8130  0.6796  0.1850
   8423SM  H20F11281   4.291   2.605   4.893 -0.1789 -0.2135 -0.7301
   8423SM  H20G11282   4.387   2.486   4.989 -0.9391 -0.0946 -0.6767
   8423SM  C21F11283   4.227   2.597   5.091  0.1954 -0.0464 -0.0963
   8423SM  H21F11284   4.296   2.680   5.119 -0.0752  0.2816 -0.3932
   8423SM  H21G11285   4.228   2.519   5.169 -0.5155 -1.6647 -1.6324
   8423SM  C22F11286   4.079   2.640   5.081 -0.3613 -0.3401 -0.0943
   8423SM  H22F11287   4.022   2.547   5.058  0.9338 -1.0263 -0.6786
   8423SM  H22G11288   4.074   2.704   4.990  0.4496  2.4110  1.6698
   8423SM  C23F11289   4.032   2.718   5.202 -0.4548  0.3824 -0.0638
   8423SM  H23F11290   4.074   2.676   5.296 -1.1729  2.7687  1.4026
   8423SM  H23G11291   3.921   2.710   5.205 -0.7424  2.5596 -2.0185
   8423SM  H23H11292   4.053   2.827   5.198 -1.0640  0.4711 -1.6637
   8523SM     N11293   6.550   3.003   2.387  0.2281  0.2158  0.2470
   8523SM   C1511294   6.424   3.050   2.323  0.0743 -0.3182 -0.4308
   8523SM  H15A11295   6.401   2.978   2.246  0.2372 -0.8753  0.0379
   8523SM  H15B11296   6.425   3.150   2.280 -1.0265  0.8761  2.1067
   8523SM  H15C11297   6.347   3.062   2.398  1.1411 -1.1545  0.8481
   8523SM   C1411298   6.572   3.079   2.513  0.0459 -0.0754 -0.0318
   8523SM  H14A11299   6.579   3.185   2.490  1.3822  0.1720  1.3496
   8523SM  H14B11300   6.668   3.051   2.554 -0.2055  0.4567  0.9383
   8523SM  H14C11301   6.492   3.062   2.583 -1.3196 -1.9591 -1.9186
   8523SM   C1311302   6.527   2.862   2.418 -0.1178  0.2497 -0.4791
   8523SM  H13A11303   6.438   2.843   2.475  1.2195 -1.1429  1.2456
   8523SM  H13B11304   6.609   2.822   2.476 -0.5850  0.7386  0.5403
   8523SM  H13C11305   6.528   2.803   2.328 -0.7276 -0.1255 -0.2422
   8523SM   C1211306   6.667   3.011   2.292  0.1199 -0.1503 -0.0678
   8523SM  H12A11307   6.636   2.965   2.200  0.0656 -2.1427  0.8783
   8523SM  H12B11308   6.748   2.951   2.333 -0.1164 -0.8039 -0.5452
   8523SM   C1111309   6.726   3.153   2.248  0.0437 -0.1045 -0.5401
   8523SM  H11A11310   6.641   3.220   2.222  0.2326  0.4417  0.2073
   8523SM  H11B11311   6.791   3.135   2.160  0.4226  0.7568 -0.4472
   8523SM     P11312   6.819   3.373   2.362  0.0401 -0.1290 -0.0285
   8523SM   O1311313   6.907   3.414   2.474 -0.4878 -0.3883 -0.0589
   8523SM   O1411314   6.851   3.428   2.231 -1.0753 -0.6776 -0.4296
   8523SM   O1111315   6.673   3.428   2.391  0.5476  0.2731 -0.1472
   8523SM   O1211316   6.804   3.212   2.353  0.2073  0.0289 -0.1974
   8523SM   C1S11317   6.641   3.467   2.527  0.9024  0.4464  0.5098
   8523SM   H1S11318   6.704   3.556   2.551 -2.3744  2.7859  1.1636
   8523SM   H1T11319   6.661   3.382   2.596 -2.1710 -0.0156  1.0029
   8523SM    NF11320   6.465   3.486   2.690  0.2696  0.4725  0.5225
   8523SM   HNF11321   6.421   3.406   2.729  1.6286 -0.7591 -0.3815
   8523SM   C2S11322   6.492   3.500   2.546 -0.0675 -0.1665 -0.6908
   8523SM   H2S11323   6.471   3.604   2.512 -2.4712 -1.3298 -3.0912
   8523SM   C3S11324   6.400   3.409   2.460 -0.3620 -0.4297  0.3505
   8523SM   H3S11325   6.431   3.306   2.489 -1.1896 -0.6158  0.6255
   8523SM    O311326   6.408   3.426   2.316 -0.4823 -0.3676  0.5251
   8523SM   HO311327   6.497   3.461   2.310  1.0530 -3.1583  3.8290
   8523SM   C4S11328   6.258   3.426   2.504  0.0446 -0.2301 -0.0134
   8523SM   H4S11329   6.229   3.407   2.609  0.0197 -1.3450 -0.2037
   8523SM   C5S11330   6.159   3.463   2.421  0.4915 -0.1683 -0.1152
   8523SM   H5S11331   6.173   3.463   2.312 -1.1042  1.2055 -0.3592
   8523SM   C6S11332   6.019   3.472   2.473 -1.2777 -0.1307 -0.8261
   8523SM   H6S11333   6.011   3.382   2.538  0.6223  1.2156  1.4099
   8523SM   H6T11334   5.950   3.463   2.386 -0.7811 -0.8020 -1.1638
   8523SM   C7S11335   5.983   3.597   2.553  0.2637 -0.8690  0.5433
   8523SM   H7S11336   5.872   3.603   2.563  0.4209 -0.7022  2.7708
   8523SM   H7T11337   6.009   3.687   2.495 -1.7118  1.5361  3.0961
   8523SM   C8S11338   6.057   3.605   2.696  0.0800 -0.3595 -0.5115
   8523SM   H8S11339   6.005   3.694   2.738 -2.7487 -2.7207  1.3615
   8523SM   H8T11340   6.166   3.623   2.684 -0.1674  1.8916  0.1838
   8523SM   C9S11341   6.027   3.489   2.789  0.1783 -0.2278 -0.7874
   8523SM   H9S11342   6.079   3.523   2.881  0.5657 -0.2036 -1.0119
   8523SM   H9T11343   6.069   3.391   2.756 -1.9247 -1.7427  0.7501
   8523SM  C10S11344   5.877   3.473   2.815  0.5292 -0.3380 -1.2011
   8523SM  H10S11345   5.817   3.465   2.721 -3.1439 -0.7652  0.9691
   8523SM  H10T11346   5.832   3.563   2.861  1.3356  0.0789 -1.2064
   8523SM  C11S11347   5.845   3.358   2.915 -0.0296  0.1002 -0.5225
   8523SM  H11S11348   5.889   3.382   3.014  0.1446  0.5313 -0.7011
   8523SM  H11T11349   5.881   3.261   2.876 -2.9259 -0.8724 -0.9960
   8523SM  C12S11350   5.697   3.350   2.949 -1.1819  0.8795 -0.5937
   8523SM  H12S11351   5.633   3.310   2.867 -2.0484 -2.2424  1.4170
   8523SM  H12T11352   5.662   3.453   2.971  0.9610  1.1875  1.9003
   8523SM  C13S11353   5.671   3.249   3.070 -0.1127 -0.0991  0.1794
   8523SM  H13S11354   5.766   3.202   3.105 -0.2204 -0.0678  0.5208
   8523SM  H13T11355   5.617   3.162   3.027  0.4882 -0.7065  0.6258
   8523SM  C14S11356   5.598   3.316   3.188 -0.1133 -0.4347  0.8590
   8523SM  H14S11357   5.514   3.381   3.154 -0.9254 -0.9152  1.8815
   8523SM  H14T11358   5.676   3.379   3.235 -0.4386 -0.9770  2.1921
   8523SM  C15S11359   5.540   3.216   3.288  0.6652 -0.5400 -0.3170
   8523SM  H15S11360   5.512   3.265   3.383 -0.1463  2.2297 -1.8892
   8523SM  H15T11361   5.626   3.150   3.311  0.2650 -1.3725 -1.1260
   8523SM  C16S11362   5.423   3.129   3.238 -0.9042  0.2295  0.5809
   8523SM  H16S11363   5.410   3.057   3.321  1.0096  0.9710  1.5655
   8523SM  H16T11364   5.461   3.086   3.143 -1.0189 -1.0159  1.0816
   8523SM  C17S11365   5.291   3.201   3.205  0.5814 -0.7329  0.2215
   8523SM  H17S11366   5.220   3.131   3.156 -0.9879  1.0587 -0.1948
   8523SM  H17T11367   5.313   3.280   3.130  0.2784  1.1632  2.0409
   8523SM  C18S11368   5.223   3.271   3.326  0.1642 -0.1845  0.6114
   8523SM  H18S11369   5.113   3.281   3.315  0.3910  0.0759 -1.9871
   8523SM  H18T11370   5.264   3.373   3.335 -0.4066  0.1976 -0.8003
   8523SM  H18U11371   5.237   3.212   3.420  0.1567 -0.2255  0.5867
   8523SM   C1F11372   6.513   3.571   2.783 -0.0439 -0.2967  0.1901
   8523SM    OF11373   6.607   3.647   2.752  0.3460 -0.6918  0.0293
   8523SM   C2F11374   6.464   3.543   2.919 -0.3127  0.0295 -0.3262
   8523SM   H2F11375   6.539   3.489   2.980  0.0854  0.9189  0.0016
   8523SM   H2G11376   6.372   3.482   2.911  0.0141 -0.4540 -0.4243
   8523SM   C3F11377   6.456   3.681   2.992 -0.5194  0.5219  0.1784
   8523SM   H3F11378   6.554   3.735   2.989  0.0212 -0.2444  2.1698
   8523SM   H3G11379   6.438   3.657   3.099 -0.5007  0.6849  0.2181
   8523SM   C4F11380   6.347   3.777   2.945 -0.4800 -0.0225  0.0972
   8523SM   H4F11381   6.255   3.719   2.922 -0.6690  0.0050  0.7757
   8523SM   H4G11382   6.384   3.825   2.851 -0.6612 -1.4306 -0.7231
   8523SM   C5F11383   6.305   3.875   3.059  0.4659 -0.0870 -0.1090
   8523SM   H5F11384   6.399   3.929   3.082  0.9617 -0.9151 -0.1568
   8523SM   H5G11385   6.272   3.825   3.153  1.5688  1.7906  1.3453
   8523SM   C6F11386   6.195   3.974   3.018  1.0407 -0.6473 -0.6064
   8523SM   H6F11387   6.107   3.910   2.994  0.8756 -1.1590  1.2088
   8523SM   H6G11388   6.210   4.041   2.931  0.2523 -1.6286 -1.5233
   8523SM   C7F11389   6.161   4.062   3.139 -0.5110 -1.2466 -0.1912
   8523SM   H7F11390   6.066   4.116   3.120  0.2354  0.4746  0.7169
   8523SM   H7G11391   6.252   4.125   3.133 -0.8194 -0.9094 -2.6443
   8523SM   C8F11392   6.127   3.991   3.271 -0.1259  0.0370 -0.0237
   8523SM   H8F11393   6.201   3.915   3.304 -0.1677 -0.3689 -0.8300
   8523SM   H8G11394   6.045   3.916   3.262  0.4179 -0.5341 -0.2888
   8523SM   C9F11395   6.093   4.090   3.378  0.2171  0.2694 -0.3984
   8523SM   H9F11396   6.018   4.166   3.349  1.9727  1.5830 -1.6963
   8523SM   H9G11397   6.191   4.132   3.410 -0.2148 -0.9487  2.9915
   8523SM  C10F11398   6.015   4.027   3.496  0.3258  0.4822 -0.6231
   8523SM  H10F11399   6.092   3.975   3.556 -0.6942  0.1862  0.4912
   8523SM  H10G11400   5.942   3.953   3.457  0.2860  0.6348 -0.8405
   8523SM  C11F11401   5.946   4.130   3.587 -0.8979  0.1266  0.3336
   8523SM  H11F11402   5.859   4.160   3.525 -0.7836 -1.2501 -0.5386
   8523SM  H11G11403   6.005   4.224   3.594  0.3607 -0.4625 -1.6828
   8523SM  C12F11404   5.894   4.092   3.727  0.3913  0.1791  0.1989
   8523SM  H12F11405   5.875   4.186   3.783 -0.0035 -0.5826  1.3695
   8523SM  H12G11406   5.971   4.039   3.788 -1.6560 -0.8547  2.0341
   8523SM  C13F11407   5.769   4.009   3.718 -0.9395 -0.5721 -0.0114
   8523SM  H13F11408   5.777   3.914   3.661  0.5096  1.2333 -3.1113
   8523SM  H13G11409   5.696   4.075   3.666 -1.7611 -1.2509  0.2510
   8523SM  C14F11410   5.720   3.973   3.865 -0.0413 -1.0389 -0.1429
   8523SM  H14F11411   5.798   3.900   3.897  2.4748  1.0164 -1.1490
   8523SM  H14G11412   5.621   3.929   3.843 -0.1027 -0.1918 -1.6986
   8523SM  C15F11413   5.690   4.080   3.971  0.0756  0.0829 -0.3253
   8523SM  H15F11414   5.652   4.168   3.915  0.7404  0.1589 -0.6775
   8523SM  H15G11415   5.775   4.114   4.034  1.4594 -0.1807 -1.9740
   8523SM  C16F11416   5.571   4.036   4.067 -0.2810  0.5433  0.2809
   8523SM  H16F11417   5.496   3.983   4.005  1.8808  0.9151 -2.9066
   8523SM  H16G11418   5.533   4.128   4.115  0.6544  0.3825  1.3988
   8523SM  C17F11419   5.621   3.940   4.179 -0.0929 -0.1259 -0.0384
   8523SM  H17F11420   5.690   3.998   4.243 -1.0910  0.7200  0.3056
   8523SM  H17G11421   5.683   3.867   4.123 -0.4994  1.0375 -2.0770
   8523SM  C18F11422   5.502   3.877   4.248  0.2507 -0.1711  0.4050
   8523SM  H18F11423   5.443   3.815   4.176  0.4526  2.6628 -2.3737
   8523SM  H18G11424   5.442   3.956   4.299 -1.1450 -0.7164 -0.3160
   8523SM  C19F11425   5.539   3.767   4.354 -0.3023  0.4485 -0.9114
   8523SM  H19F11426   5.585   3.685   4.295  0.4337  1.8127 -2.3053
   8523SM  H19G11427   5.449   3.729   4.405 -0.9059  2.2270 -0.5930
   8523SM  C20F11428   5.652   3.812   4.451  0.0076 -0.0852  1.1960
   8523SM  H20F11429   5.623   3.897   4.516 -1.8223 -0.6856  1.2341
   8523SM  H20G11430   5.745   3.849   4.402 -0.7652 -0.4826 -0.6426
   8523SM  C21F11431   5.687   3.698   4.541 -0.1551  0.3791  0.0984
   8523SM  H21F11432   5.730   3.618   4.478  1.0116  0.3524  0.9081
   8523SM  H21G11433   5.598   3.653   4.590  1.0259 -1.3549  0.7286
   8523SM  C22F11434   5.792   3.722   4.650  0.3193 -0.3169  0.9901
   8523SM  H22F11435   5.784   3.632   4.715  1.6472 -0.8884  0.3988
   8523SM  H22G11436   5.767   3.811   4.711 -0.8116 -0.3038  0.5340
   8523SM  C23F11437   5.936   3.728   4.599  0.9249  0.7301  0.3157
   8523SM  H23F11438   5.942   3.800   4.514  0.4116  0.0364 -0.3188
   8523SM  H23G11439   5.964   3.625   4.569 -3.9260  0.0704 -3.3231
   8523SM  H23H11440   6.003   3.759   4.682  1.9374 -0.5914  0.0146
   8623SM     N11441   3.221   0.489   2.559  0.6378 -0.2754  0.4989
   8623SM   C1511442   3.273   0.530   2.691 -0.4295 -0.5345  0.1065
   8623SM  H15A11443   3.246   0.630   2.720  0.6657  0.8193 -3.0458
   8623SM  H15B11444   3.380   0.534   2.702 -0.5518  0.0255  1.2989
   8623SM  H15C11445   3.229   0.467   2.767  0.4532  0.2432  1.2980
   8623SM   C1411446   3.275   0.348   2.543  0.8039  0.1028 -0.3225
   8623SM  H14A11447   3.256   0.286   2.629 -0.8741 -0.2700 -0.9311
   8623SM  H14B11448   3.383   0.345   2.540  0.8069 -0.8143  0.1908
   8623SM  H14C11449   3.245   0.301   2.450  0.1496  1.1331 -0.6370
   8623SM   C1311450   3.069   0.487   2.561  0.8750 -0.2408  0.1156
   8623SM  H13A11451   3.040   0.402   2.621 -1.9572  1.0919  0.8063
   8623SM  H13B11452   3.026   0.467   2.464 -0.0479 -0.9716  0.6508
   8623SM  H13C11453   3.024   0.575   2.604 -1.4391 -2.2663  2.1053
   8623SM   C1211454   3.276   0.585   2.454  1.4873 -1.0687 -0.0595
   8623SM  H12A11455   3.260   0.544   2.355 -3.8004  0.0689  0.0418
   8623SM  H12B11456   3.381   0.607   2.466  0.8336  0.9801  2.6598
   8623SM   C1111457   3.196   0.716   2.437 -0.1911 -0.1137 -0.0220
   8623SM  H11A11458   3.098   0.683   2.398 -0.3276 -0.1468  0.3473
   8623SM  H11B11459   3.243   0.759   2.346 -1.5782  1.7249  0.0958
   8623SM     P11460   3.092   0.909   2.560 -0.2783  0.1252 -0.2311
   8623SM   O1311461   3.124   1.021   2.465 -0.0923  0.2029  0.2113
   8623SM   O1411462   2.959   0.853   2.539  0.0432 -0.2428 -0.2028
   8623SM   O1111463   3.097   0.955   2.708 -0.7039 -0.4259  0.8080
   8623SM   O1211464   3.209   0.803   2.550  0.1183 -0.2102 -0.5342
   8623SM   C1S11465   3.162   0.875   2.814  0.0266  0.1786  0.0702
   8623SM   H1S11466   3.168   0.767   2.791 -3.4847  0.0057 -0.6720
   8623SM   H1T11467   3.087   0.867   2.895  1.2224  0.8669  1.2842
   8623SM    NF11468   3.339   0.849   2.985  0.5920  0.1291  0.2377
   8623SM   HNF11469   3.306   0.861   3.078  0.9058  1.0494  0.2416
   8623SM   C2S11470   3.284   0.943   2.883  0.5416  0.6108  0.1629
   8623SM   H2S11471   3.363   0.952   2.806  1.8899  2.0077  1.6223
   8623SM   C3S11472   3.233   1.081   2.930 -0.3240 -0.4248 -0.7403
   8623SM   H3S11473   3.148   1.061   2.999 -0.5618 -2.0876 -1.4832
   8623SM    O311474   3.171   1.168   2.839 -0.1187  0.1787  0.0268
   8623SM   HO311475   3.158   1.117   2.759 -0.7036  1.9469 -1.0797
   8623SM   C4S11476   3.341   1.155   3.009 -0.1313  0.1564 -0.0959
   8623SM   H4S11477   3.445   1.157   2.976  1.0345 -0.0068  3.2225
   8623SM   C5S11478   3.316   1.206   3.127 -0.2255 -0.3242  0.5219
   8623SM   H5S11479   3.216   1.190   3.168  0.5778 -1.8371  2.0301
   8623SM   C6S11480   3.413   1.279   3.216  0.5216  0.4488 -0.4435
   8623SM   H6S11481   3.371   1.378   3.242  2.0927  0.6040  1.7867
   8623SM   H6T11482   3.506   1.305   3.160  0.1520 -2.8857 -2.8956
   8623SM   C7S11483   3.452   1.207   3.348 -0.2098  1.0213 -0.6194
   8623SM   H7S11484   3.495   1.106   3.333 -1.3081  0.5798 -0.8692
   8623SM   H7T11485   3.360   1.193   3.409 -0.5177  1.0089 -1.0814
   8623SM   C8S11486   3.544   1.293   3.431  0.2314 -0.7491 -0.1919
   8623SM   H8S11487   3.520   1.402   3.432 -0.6947 -0.9153 -1.7687
   8623SM   H8T11488   3.638   1.276   3.373 -0.1153 -2.2142 -0.3614
   8623SM   C9S11489   3.564   1.246   3.576 -0.9498 -0.2501  0.6214
   8623SM   H9S11490   3.645   1.305   3.625 -1.1750  0.2802  0.3591
   8623SM   H9T11491   3.597   1.140   3.572  0.8559  0.3118 -0.8272
   8623SM  C10S11492   3.440   1.256   3.660  0.0649 -0.0884 -0.5280
   8623SM  H10S11493   3.401   1.155   3.684  1.4210 -0.3304  0.8089
   8623SM  H10T11494   3.363   1.305   3.597 -0.7280  0.6033  0.9452
   8623SM  C11S11495   3.451   1.332   3.794 -0.3625  0.4090 -0.0326
   8623SM  H11S11496   3.492   1.431   3.767 -2.6719  1.8816  1.4294
   8623SM  H11T11497   3.528   1.285   3.859  3.0153  1.7017 -2.8274
   8623SM  C12S11498   3.319   1.362   3.861 -0.1237  0.3059  0.1313
   8623SM  H12S11499   3.282   1.279   3.925 -0.1511  0.7108  0.6390
   8623SM  H12T11500   3.256   1.384   3.772  0.8383  0.5956 -0.4926
   8623SM  C13S11501   3.322   1.483   3.944  0.0430 -0.8962  0.0690
   8623SM  H13S11502   3.219   1.525   3.946  0.4795  0.5330 -2.4688
   8623SM  H13T11503   3.391   1.562   3.908  2.0566 -2.2542  0.7388
   8623SM  C14S11504   3.379   1.467   4.088 -0.3277 -0.4320 -0.2247
   8623SM  H14S11505   3.483   1.429   4.076  0.4135  1.2014  0.7108
   8623SM  H14T11506   3.312   1.395   4.139  1.9002 -1.9661  0.6949
   8623SM  C15S11507   3.376   1.592   4.175 -0.5911 -0.5081  0.2958
   8623SM  H15S11508   3.295   1.661   4.143  0.4129  0.0039 -1.2670
   8623SM  H15T11509   3.468   1.650   4.154 -1.3728  1.2969  1.6184
   8623SM  C16S11510   3.363   1.563   4.326  0.1913 -1.0876 -0.3160
   8623SM  H16S11511   3.463   1.539   4.369 -0.2258 -1.8159  0.2829
   8623SM  H16T11512   3.306   1.469   4.344  0.4390 -1.5424 -1.8082
   8623SM  C17S11513   3.311   1.686   4.407 -0.2152  0.0930  0.2216
   8623SM  H17S11514   3.329   1.660   4.513 -0.5438  1.2923  0.5933
   8623SM  H17T11515   3.202   1.687   4.386 -0.0401 -0.7144 -0.8065
   8623SM  C18S11516   3.380   1.816   4.372 -0.0603 -0.1833 -0.2924
   8623SM  H18S11517   3.354   1.839   4.266  0.0612 -4.7651 -1.5249
   8623SM  H18T11518   3.489   1.805   4.389 -0.0093 -1.1440 -1.1586
   8623SM  H18U11519   3.341   1.900   4.434 -3.1151 -1.2549 -0.6013
   8623SM   C1F11520   3.414   0.747   2.953  0.1321 -0.1082  0.3351
   8623SM    OF11521   3.424   0.716   2.836 -0.2969  0.6693 -0.1201
   8623SM   C2F11522   3.489   0.670   3.050  0.5664  0.1306  0.4178
   8623SM   H2F11523   3.596   0.670   3.024  0.1058 -0.9647 -1.6744
   8623SM   H2G11524   3.461   0.563   3.042 -1.5767  0.6462  0.2454
   8623SM   C3F11525   3.486   0.707   3.202 -0.2297  0.0593 -0.8967
   8623SM   H3F11526   3.391   0.663   3.238  0.8500 -0.9030  0.8857
   8623SM   H3G11527   3.493   0.816   3.222  1.2703  0.2762 -2.3384
   8623SM   C4F11528   3.596   0.645   3.296  0.1836  0.3792 -0.9323
   8623SM   H4F11529   3.697   0.661   3.253 -0.3393  3.1010 -1.3762
   8623SM   H4G11530   3.567   0.541   3.320  0.3905 -0.1336 -2.7648
   8623SM   C5F11531   3.591   0.711   3.440  0.3100 -0.1217  0.1313
   8623SM   H5F11532   3.486   0.701   3.476  0.3284  1.7990  0.8710
   8623SM   H5G11533   3.612   0.820   3.433  0.4273 -0.1560 -0.0612
   8623SM   C6F11534   3.683   0.646   3.547 -0.8636 -0.3748  0.5763
   8623SM   H6F11535   3.786   0.687   3.542  0.4363 -3.3433  0.8645
   8623SM   H6G11536   3.689   0.538   3.520 -0.6948  0.0775 -1.3423
   8623SM   C7F11537   3.642   0.668   3.687 -0.1295  0.0510  0.7185
   8623SM   H7F11538   3.533   0.651   3.701 -0.1522  0.6236  1.2689
   8623SM   H7G11539   3.674   0.768   3.721  1.6711  0.4350 -1.8200
   8623SM   C8F11540   3.707   0.558   3.778 -0.1275  0.2580 -0.2531
   8623SM   H8F11541   3.816   0.566   3.753 -0.2734 -1.0520 -1.4687
   8623SM   H8G11542   3.675   0.458   3.741 -1.0636 -0.1903  1.6649
   8623SM   C9F11543   3.680   0.570   3.923  0.1594 -0.0726 -0.2426
   8623SM   H9F11544   3.727   0.489   3.982  0.5332  0.8324  0.7240
   8623SM   H9G11545   3.573   0.567   3.952  0.4830 -2.3381  0.9353
   8623SM  C10F11546   3.732   0.701   3.990 -0.0657 -0.4456 -0.1723
   8623SM  H10F11547   3.653   0.778   3.994  1.2989  0.9869  0.0570
   8623SM  H10G11548   3.817   0.749   3.936 -0.8445  0.9554 -0.2028
   8623SM  C11F11549   3.758   0.674   4.140 -0.3475  0.1020  1.2597
   8623SM  H11F11550   3.691   0.588   4.164 -1.2933  0.5909  0.4171
   8623SM  H11G11551   3.726   0.761   4.201  0.2672  1.7438 -0.6627
   8623SM  C12F11552   3.900   0.643   4.184 -0.3239  0.1443 -0.5325
   8623SM  H12F11553   3.958   0.736   4.171  0.3337  0.2358  2.3222
   8623SM  H12G11554   3.936   0.562   4.116 -3.5434 -0.6898 -1.3898
   8623SM  C13F11555   3.922   0.579   4.326 -0.1761 -0.2083 -0.3790
   8623SM  H13F11556   4.020   0.526   4.330 -0.5849 -0.9905 -0.4483
   8623SM  H13G11557   3.851   0.494   4.344  0.1038 -0.4334 -0.3295
   8623SM  C14F11558   3.912   0.672   4.452 -0.0956  0.4042  1.3837
   8623SM  H14F11559   3.935   0.608   4.540 -0.9767 -1.7269  0.1336
   8623SM  H14G11560   3.806   0.704   4.460 -0.1725  0.3820  0.5389
   8623SM  C15F11561   4.008   0.795   4.461  0.7534 -0.2209  0.0035
   8623SM  H15F11562   3.971   0.875   4.394 -1.1886 -1.2679 -0.2579
   8623SM  H15G11563   4.109   0.762   4.430  0.1152  0.4956 -3.3038
   8623SM  C16F11564   4.012   0.849   4.603  0.1683 -0.2985 -0.6700
   8623SM  H16F11565   4.082   0.934   4.592  0.2701 -0.4484 -1.2044
   8623SM  H16G11566   4.060   0.777   4.672  0.8476 -0.6546 -1.5006
   8623SM  C17F11567   3.878   0.893   4.664 -0.2798  0.3867 -0.1767
   8623SM  H17F11568   3.792   0.896   4.594 -0.9380  2.6518  0.6707
   8623SM  H17G11569   3.882   1.001   4.690 -0.2548  0.2127  0.5719
   8623SM  C18F11570   3.846   0.817   4.794 -0.3220 -0.2725  0.2477
   8623SM  H18F11571   3.926   0.853   4.862 -0.0213  1.4306 -0.9401
   8623SM  H18G11572   3.863   0.709   4.776 -0.6966 -0.0843 -1.3623
   8623SM  C19F11573   3.716   0.869   4.846 -0.1974 -0.6985 -0.3493
   8623SM  H19F11574   3.635   0.826   4.783  0.7148 -2.1084 -0.6109
   8623SM  H19G11575   3.713   0.980   4.853  0.4509 -0.7255  0.5518
   8623SM  C20F11576   3.678   0.821   4.986 -0.2587 -0.5296  0.7539
   8623SM  H20F11577   3.765   0.851   5.049 -0.1770 -0.9101  0.8277
   8623SM  H20G11578   3.679   0.710   4.982  2.8750 -0.5540 -1.2334
   8623SM  C21F11579   3.554   0.891   5.036  0.2508 -0.4437 -0.9383
   8623SM  H21F11580   3.470   0.821   5.013  0.3800  0.0034 -2.9330
   8623SM  H21G11581   3.542   0.991   4.990 -0.3235 -0.1127 -0.1018
   8623SM  C22F11582   3.545   0.919   5.188 -0.1555 -0.4859  0.0155
   8623SM  H22F11583   3.477   1.005   5.203 -0.4416 -0.6003 -0.5894
   8623SM  H22G11584   3.648   0.934   5.228 -0.2800  1.2687 -0.2439
   8623SM  C23F11585   3.493   0.799   5.265  0.1615  0.6823 -0.3590
   8623SM  H23F11586   3.487   0.824   5.373  0.0898  0.6093 -0.3458
   8623SM  H23G11587   3.557   0.711   5.244  0.9145  0.9818  0.5610
   8623SM  H23H11588   3.390   0.766   5.242 -0.2926  0.3540  1.8841
   8723SM     N11589   4.374   0.971   2.145  0.3931 -0.0285  0.0258
   8723SM   C1511590   4.257   0.972   2.055 -0.9497 -0.4535 -0.0492
   8723SM  H15A11591   4.189   0.888   2.061 -0.4653 -1.0261 -1.7593
   8723SM  H15B11592   4.294   0.975   1.953  2.9076 -2.3447  1.0806
   8723SM  H15C11593   4.191   1.056   2.064 -1.0536 -0.6073  0.6795
   8723SM   C1411594   4.478   0.890   2.070 -0.5032 -0.6003  0.2819
   8723SM  H14A11595   4.520   0.945   1.987  1.6517  0.6330  2.1186
   8723SM  H14B11596   4.443   0.796   2.028 -0.1842 -0.9626  0.8203
   8723SM  H14C11597   4.557   0.863   2.138  0.5359  2.0022  0.2009
   8723SM   C1311598   4.417   1.116   2.164  0.4232 -0.4058 -0.4028
   8723SM  H13A11599   4.345   1.162   2.229  1.1385  0.7172 -0.3639
   8723SM  H13B11600   4.439   1.171   2.073 -0.7282  0.1587 -0.3457
   8723SM  H13C11601   4.509   1.114   2.220  0.4160  1.4315 -0.2660
   8723SM   C1211602   4.335   0.897   2.272  0.2888 -0.3160 -1.2283
   8723SM  H12A11603   4.428   0.879   2.324 -0.5859  0.2551  0.6254
   8723SM  H12B11604   4.293   0.804   2.236  1.2697 -0.8808 -0.9504
   8723SM   C1111605   4.230   0.973   2.362 -0.4186  0.5145 -0.0523
   8723SM  H11A11606   4.194   0.903   2.440  1.6016  0.5199  0.9420
   8723SM  H11B11607   4.144   1.004   2.299  0.1726  0.6218 -0.8222
   8723SM     P11608   4.399   1.060   2.538 -0.2966  0.2161  0.2904
   8723SM   O1311609   4.498   0.952   2.518  0.1407  0.5559  0.1888
   8723SM   O1411610   4.460   1.193   2.555 -0.6038 -0.1447 -0.0937
   8723SM   O1111611   4.322   1.037   2.668 -0.2070  0.2613 -0.1295
   8723SM   O1211612   4.286   1.078   2.431  0.0657 -0.2066  0.1169
   8723SM   C1S11613   4.190   1.072   2.704 -0.2904  0.2038  0.2886
   8723SM   H1S11614   4.118   1.013   2.643 -0.1944  1.1500 -0.7666
   8723SM   H1T11615   4.163   1.176   2.677 -2.8978 -0.8132 -1.3912
   8723SM    NF11616   4.018   1.091   2.870 -1.0109  0.5311  0.2399
   8723SM   HNF11617   3.997   1.187   2.887 -1.4554  0.4209  0.3272
   8723SM   C2S11618   4.165   1.054   2.853  0.8933 -0.0326 -0.2461
   8723SM   H2S11619   4.174   0.949   2.887  1.4013 -0.2626 -1.0805
   8723SM   C3S11620   4.254   1.148   2.935  0.5582 -0.3132 -0.6523
   8723SM   H3S11621   4.242   1.252   2.897  0.7538  0.1898  0.6012
   8723SM    O311622   4.387   1.103   2.937 -0.1362 -0.8748 -0.2594
   8723SM   HO311623   4.380   1.053   2.856 -0.6842 -1.7380  0.3109
   8723SM   C4S11624   4.213   1.156   3.084  0.2287  0.0012 -0.1789
   8723SM   H4S11625   4.220   1.071   3.153 -2.4415 -0.9916 -0.9843
   8723SM   C5S11626   4.167   1.273   3.133 -0.2462  0.0012  0.0744
   8723SM   H5S11627   4.174   1.362   3.070  2.8835 -0.8022 -0.8678
   8723SM   C6S11628   4.129   1.282   3.277  0.2524 -0.3927  0.4621
   8723SM   H6S11629   4.120   1.185   3.329 -0.5036 -1.8201 -2.1919
   8723SM   H6T11630   4.030   1.332   3.284  0.1778 -0.7750  3.3967
   8723SM   C7S11631   4.231   1.366   3.368 -0.7264 -0.1076 -0.2928
   8723SM   H7S11632   4.236   1.475   3.344  1.5066  0.3176  1.7686
   8723SM   H7T11633   4.332   1.324   3.349 -1.0993 -0.9148 -0.5355
   8723SM   C8S11634   4.204   1.348   3.518 -0.3957 -0.0117 -0.1004
   8723SM   H8S11635   4.194   1.242   3.551 -1.2749  0.9308  3.0146
   8723SM   H8T11636   4.102   1.387   3.537  0.1057  1.1001  0.4411
   8723SM   C9S11637   4.318   1.410   3.609  0.7685  0.4122 -0.1017
   8723SM   H9S11638   4.331   1.511   3.564  1.7627  0.2904 -0.1251
   8723SM   H9T11639   4.415   1.358   3.590  1.3907  1.0746  1.1481
   8723SM  C10S11640   4.278   1.427   3.757  0.4782  0.1334  0.5442
   8723SM  H10S11641   4.262   1.324   3.797 -1.3139  0.7900  1.6199
   8723SM  H10T11642   4.179   1.477   3.762 -0.6162 -1.8316 -0.1061
   8723SM  C11S11643   4.379   1.489   3.850  0.0907 -0.4782 -0.1726
   8723SM  H11S11644   4.410   1.589   3.813  1.6076 -0.4889  0.9654
   8723SM  H11T11645   4.468   1.422   3.854  1.0737  0.7714 -0.5340
   8723SM  C12S11646   4.327   1.493   3.995  0.8773 -0.0992 -0.6767
   8723SM  H12S11647   4.296   1.391   4.026  1.5371  0.2556  1.3027
   8723SM  H12T11648   4.236   1.557   3.995  1.7186  1.1791  0.7047
   8723SM  C13S11649   4.413   1.543   4.109  0.8813 -0.8621 -1.0136
   8723SM  H13S11650   4.440   1.645   4.074 -2.0154 -0.1227 -1.3009
   8723SM  H13T11651   4.507   1.484   4.119  1.9409  0.9354  0.3062
   8723SM  C14S11652   4.337   1.561   4.241  0.8388 -0.6491 -0.1198
   8723SM  H14S11653   4.315   1.461   4.285 -0.9650  0.5348  1.8464
   8723SM  H14T11654   4.236   1.605   4.224 -0.6329 -2.1887  3.5711
   8723SM  C15S11655   4.420   1.639   4.341 -0.8102  0.1036 -0.0778
   8723SM  H15S11656   4.435   1.741   4.300  2.3209 -0.2569 -0.1125
   8723SM  H15T11657   4.524   1.601   4.350  0.4608  3.1839 -0.2754
   8723SM  C16S11658   4.360   1.627   4.480  0.0517 -0.5322 -0.5360
   8723SM  H16S11659   4.380   1.526   4.522 -1.5957  0.1341  2.1073
   8723SM  H16T11660   4.249   1.638   4.478  0.0096 -0.8356 -0.1684
   8723SM  C17S11661   4.422   1.721   4.587  0.5848 -0.3312 -0.1860
   8723SM  H17S11662   4.414   1.829   4.560  2.0720 -0.3514 -0.7947
   8723SM  H17T11663   4.529   1.706   4.611 -0.2691 -2.1048  3.0565
   8723SM  C18S11664   4.349   1.699   4.715 -0.1581 -0.5390 -0.2368
   8723SM  H18S11665   4.243   1.733   4.713  0.4067  1.2946 -1.0844
   8723SM  H18T11666   4.393   1.760   4.797  0.5962 -2.0871  0.5498
   8723SM  H18U11667   4.359   1.595   4.752  0.4741 -0.1474  0.7482
   8723SM   C1F11668   3.919   1.004   2.847 -1.0523 -0.0637 -0.7366
   8723SM    OF11669   3.940   0.889   2.817 -0.4693  0.7848  0.3004
   8723SM   C2F11670   3.778   1.053   2.864  0.1725 -0.3620  0.2804
   8723SM   H2F11671   3.720   1.014   2.778  1.0089  0.8712 -0.8713
   8723SM   H2G11672   3.760   1.161   2.847  0.4078 -0.6392 -2.1129
   8723SM   C3F11673   3.730   0.993   3.002  0.3056 -0.7445  0.1153
   8723SM   H3F11674   3.733   0.882   3.000 -0.8297 -0.7849  0.0372
   8723SM   H3G11675   3.622   1.020   3.004  0.4695  0.2059 -1.8544
   8723SM   C4F11676   3.808   1.057   3.115  0.2573 -0.0742  0.0483
   8723SM   H4F11677   3.786   1.166   3.108  3.7347  0.6823 -1.2495
   8723SM   H4G11678   3.918   1.044   3.106  0.4014  0.5045  0.8643
   8723SM   C5F11679   3.772   0.998   3.257  0.2859  0.2764  0.2602
   8723SM   H5F11680   3.774   0.887   3.251 -3.0231  0.1295  0.0051
   8723SM   H5G11681   3.668   1.031   3.277  0.5450  1.0575  0.3876
   8723SM   C6F11682   3.883   1.040   3.354 -0.3918 -0.0814 -0.1269
   8723SM   H6F11683   3.882   1.151   3.359  0.0057 -0.0102 -1.3421
   8723SM   H6G11684   3.983   1.011   3.313 -0.4851  0.0481 -0.4464
   8723SM   C7F11685   3.870   0.977   3.494 -0.0415 -0.1283 -0.9199
   8723SM   H7F11686   3.872   0.867   3.483  0.1533 -0.2536  0.2204
   8723SM   H7G11687   3.773   1.010   3.536  0.3969 -0.2005  0.1917
   8723SM   C8F11688   3.986   1.019   3.583 -0.0475 -0.8270  0.1756
   8723SM   H8F11689   3.982   1.130   3.587 -1.1717 -0.7368 -2.0633
   8723SM   H8G11690   4.081   0.984   3.538 -0.6043 -0.7549 -1.0897
   8723SM   C9F11691   3.960   0.980   3.730  0.6102 -0.3621  0.7217
   8723SM   H9F11692   3.965   0.871   3.746  0.8752 -0.3516  0.7239
   8723SM   H9G11693   3.857   1.010   3.757  0.3833  2.3448 -2.3900
   8723SM  C10F11694   4.062   1.047   3.819 -0.8480  0.5600  0.9491
   8723SM  H10F11695   4.063   1.156   3.797 -2.3450  0.1559 -1.3995
   8723SM  H10G11696   4.162   1.002   3.799 -0.5206  0.1454  3.2073
   8723SM  C11F11697   4.034   1.021   3.968  0.8086 -0.6878 -0.1629
   8723SM  H11F11698   4.040   0.911   3.978 -1.9021 -1.1685 -2.3183
   8723SM  H11G11699   3.930   1.045   4.000  0.4859 -1.5976 -0.5131
   8723SM  C12F11700   4.137   1.098   4.054  0.4440  0.2573  0.6381
   8723SM  H12F11701   4.127   1.208   4.040  0.8584  0.1515 -0.6475
   8723SM  H12G11702   4.235   1.072   4.009  0.7661  1.6016  0.4916
   8723SM  C13F11703   4.139   1.053   4.203  0.3191  0.2708  0.3503
   8723SM  H13F11704   4.150   0.942   4.202  0.4167  0.2712  1.0233
   8723SM  H13G11705   4.044   1.081   4.253  1.4526 -0.0308  2.7828
   8723SM  C14F11706   4.250   1.117   4.279 -0.4421 -0.3000  0.0306
   8723SM  H14F11707   4.238   1.226   4.266 -0.5706 -0.2872  0.2423
   8723SM  H14G11708   4.344   1.075   4.236 -0.3512 -1.0387  0.9081
   8723SM  C15F11709   4.249   1.079   4.433 -1.0867  0.0185  0.2441
   8723SM  H15F11710   4.275   0.972   4.450  0.8390  0.5522  0.9563
   8723SM  H15G11711   4.145   1.099   4.466 -0.0683  2.3468  2.3166
   8723SM  C16F11712   4.342   1.160   4.528 -0.2559  0.2804 -0.5550
   8723SM  H16F11713   4.329   1.267   4.501  1.1788  0.5577 -0.2558
   8723SM  H16G11714   4.449   1.132   4.511 -0.4053 -1.4772  1.1085
   8723SM  C17F11715   4.324   1.136   4.673 -0.2007  0.2923 -0.8712
   8723SM  H17F11716   4.417   1.158   4.729 -1.2232  0.9200  0.6357
   8723SM  H17G11717   4.302   1.030   4.700  0.1421  0.8712  1.9900
   8723SM  C18F11718   4.212   1.222   4.733 -0.5137 -1.0435  0.0208
   8723SM  H18F11719   4.115   1.183   4.695 -1.1735 -0.5522  1.1449
   8723SM  H18G11720   4.231   1.323   4.690 -0.1018 -1.0675  0.1402
   8723SM  C19F11721   4.216   1.227   4.891  0.6184 -0.1513  0.2258
   8723SM  H19F11722   4.200   1.127   4.935  2.2220  0.0298  1.3115
   8723SM  H19G11723   4.133   1.296   4.919 -0.3294 -0.3615 -1.9034
   8723SM  C20F11724   4.342   1.291   4.951 -0.2625  0.7071 -0.1411
   8723SM  H20F11725   4.358   1.386   4.896  0.2178  1.3731  1.1034
   8723SM  H20G11726   4.419   1.214   4.931 -1.9323 -1.7884  2.3194
   8723SM  C21F11727   4.344   1.304   5.103  0.5668 -0.2878  0.3402
   8723SM  H21F11728   4.323   1.210   5.158 -1.1969  1.1007  2.1950
   8723SM  H21G11729   4.266   1.375   5.137 -0.6185 -2.3618  2.1892
   8723SM  C22F11730   4.472   1.367   5.143  0.3682  0.2753 -0.2760
   8723SM  H22F11731   4.501   1.447   5.072 -2.1848  0.5839 -1.0586
   8723SM  H22G11732   4.551   1.290   5.128  2.0429  2.3984 -3.4832
   8723SM  C23F11733   4.469   1.429   5.285 -0.8782  0.4485  0.0513
   8723SM  H23F11734   4.572   1.461   5.312  0.6537 -2.3467 -1.8517
   8723SM  H23G11735   4.438   1.364   5.370 -2.1997 -0.6878 -1.2395
   8723SM  H23H11736   4.394   1.510   5.284 -3.3360 -1.7057  0.2759
   8823SM     N11737   0.744   2.337   2.474 -0.3935  0.1117  0.2956
   8823SM   C1511738   0.612   2.350   2.545 -0.6129  0.9930 -0.0036
   8823SM  H15A11739   0.627   2.420   2.625 -0.4488  0.5433  0.3649
   8823SM  H15B11740   0.574   2.258   2.588  1.7945 -0.6557 -1.1669
   8823SM  H15C11741   0.545   2.397   2.475 -0.6579  1.7679  0.5456
   8823SM   C1411742   0.754   2.199   2.428  0.3022  0.1143  0.2122
   8823SM  H14A11743   0.678   2.179   2.354  0.5649  1.7648 -0.5430
   8823SM  H14B11744   0.750   2.123   2.504  0.0845 -0.8232 -0.7199
   8823SM  H14C11745   0.843   2.188   2.367  1.2920  1.6993  1.2995
   8823SM   C1311746   0.734   2.425   2.350  0.4099  0.5873  0.4576
   8823SM  H13A11747   0.634   2.422   2.308 -0.1481  1.8066  1.6095
   8823SM  H13B11748   0.807   2.401   2.275 -0.9122  3.0439 -1.7879
   8823SM  H13C11749   0.746   2.529   2.375  0.0267  0.7493 -0.0131
   8823SM   C1211750   0.868   2.380   2.552 -0.1381 -0.0938 -0.0066
   8823SM  H12A11751   0.847   2.481   2.583 -0.3449  0.9166 -3.1190
   8823SM  H12B11752   0.956   2.374   2.489 -0.8135 -2.1411 -0.8529
   8823SM   C1111753   0.920   2.294   2.669  0.0966 -0.3266 -0.6617
   8823SM  H11A11754   0.834   2.290   2.738  1.2720  0.8151  0.9463
   8823SM  H11B11755   1.001   2.353   2.718  0.4663  0.8619 -2.5468
   8823SM     P11756   1.103   2.146   2.548  0.0604  0.2603  0.2229
   8823SM   O1311757   1.105   2.019   2.476 -0.3664  0.4673  0.7787
   8823SM   O1411758   1.131   2.262   2.466 -0.1808 -0.7010 -0.4294
   8823SM   O1111759   1.216   2.133   2.665  0.1037 -0.4189 -0.2474
   8823SM   O1211760   0.968   2.162   2.627 -0.2596  0.1377 -0.4007
   8823SM   C1S11761   1.207   2.026   2.758  0.1593  0.0539  0.1541
   8823SM   H1S11762   1.246   1.934   2.710 -1.5476 -1.3364  1.3026
   8823SM   H1T11763   1.108   2.008   2.804  0.1673  0.3917  0.3132
   8823SM    NF11764   1.312   1.925   2.946  0.0985  0.0389  0.2329
   8823SM   HNF11765   1.247   1.899   3.018  0.2160 -0.0285  0.3150
   8823SM   C2S11766   1.301   2.052   2.874  0.0218 -0.0302  0.0640
   8823SM   H2S11767   1.401   2.079   2.833 -0.1988  1.2981  0.3604
   8823SM   C3S11768   1.252   2.173   2.963 -0.4602  0.4667 -0.2937
   8823SM   H3S11769   1.145   2.155   2.987 -1.3607  1.9063 -2.8588
   8823SM    O311770   1.255   2.303   2.903 -0.0946 -0.0754  0.5461
   8823SM   HO311771   1.255   2.278   2.811  2.6535 -1.9097  0.9456
   8823SM   C4S11772   1.336   2.179   3.091 -0.3710 -0.2203  0.3060
   8823SM   H4S11773   1.438   2.137   3.085 -0.3897 -0.4891  1.5323
   8823SM   C5S11774   1.293   2.216   3.215 -0.5284 -0.6854  0.3971
   8823SM   H5S11775   1.191   2.250   3.236 -0.3163 -0.4165  1.0223
   8823SM   C6S11776   1.392   2.217   3.332 -0.1615 -0.0010 -0.1820
   8823SM   H6S11777   1.418   2.320   3.365  0.0556  0.2315 -1.0476
   8823SM   H6T11778   1.489   2.168   3.306 -0.1472  0.0861 -0.2930
   8823SM   C7S11779   1.329   2.132   3.450 -0.2638  0.7514 -0.0609
   8823SM   H7S11780   1.317   2.029   3.410 -1.6580  0.6149  0.6286
   8823SM   H7T11781   1.227   2.175   3.464 -1.5864 -1.9698 -0.6609
   8823SM   C8S11782   1.406   2.150   3.574 -0.2896 -0.1662  0.2293
   8823SM   H8S11783   1.419   2.260   3.589  2.5511 -0.0328 -2.2122
   8823SM   H8T11784   1.513   2.122   3.560 -0.4851 -1.9110  1.8669
   8823SM   C9S11785   1.365   2.073   3.699 -0.6320  0.5794  0.5080
   8823SM   H9S11786   1.396   1.966   3.696 -0.4198  0.5781  2.0656
   8823SM   H9T11787   1.257   2.082   3.719 -0.8263  2.9745 -1.1646
   8823SM  C10S11788   1.435   2.130   3.820 -1.1492 -0.1887 -0.7357
   8823SM  H10S11789   1.408   2.237   3.829  0.5398  0.4349 -2.5180
   8823SM  H10T11790   1.545   2.128   3.809 -1.1795 -1.5320 -1.0049
   8823SM  C11S11791   1.390   2.047   3.940  0.0886 -0.0846  0.1113
   8823SM  H11S11792   1.407   1.941   3.911 -0.3855 -0.8742  2.5043
   8823SM  H11T11793   1.284   2.072   3.962  0.3121 -0.6658  2.0538
   8823SM  C12S11794   1.449   2.081   4.078  0.1146  0.2959 -0.4552
   8823SM  H12S11795   1.419   2.002   4.150 -0.0966  1.4307  0.7236
   8823SM  H12T11796   1.409   2.181   4.105 -1.6442  0.1571 -2.2789
   8823SM  C13S11797   1.609   2.082   4.082  0.6847 -0.0718  0.8107
   8823SM  H13S11798   1.645   2.173   4.031  1.6771 -0.7770  0.2063
   8823SM  H13T11799   1.639   1.989   4.029 -1.1814 -0.6267  0.6439
   8823SM  C14S11800   1.659   2.071   4.225 -0.8479  0.0320  0.1965
   8823SM  H14S11801   1.768   2.049   4.219 -0.0893  3.1768  0.6730
   8823SM  H14T11802   1.593   2.009   4.289 -1.5410  1.4439  0.8937
   8823SM  C15S11803   1.663   2.213   4.295 -0.0814 -0.3981 -0.4607
   8823SM  H15S11804   1.569   2.272   4.295  1.0426  1.4847  1.0700
   8823SM  H15T11805   1.742   2.275   4.248 -0.1441  0.8713  1.0325
   8823SM  C16S11806   1.700   2.192   4.440 -0.0769 -0.2531 -0.4434
   8823SM  H16S11807   1.800   2.143   4.445 -1.7343 -3.8245  1.0361
   8823SM  H16T11808   1.614   2.127   4.466 -0.1303 -0.3063 -0.7550
   8823SM  C17S11809   1.701   2.329   4.511 -0.0171  0.4154 -0.1144
   8823SM  H17S11810   1.599   2.372   4.517 -0.0548  0.4585 -1.0208
   8823SM  H17T11811   1.777   2.393   4.463  0.9378 -0.9094 -0.4360
   8823SM  C18S11812   1.737   2.318   4.663 -0.3370  0.0023 -0.1797
   8823SM  H18S11813   1.843   2.285   4.664 -0.6927 -1.2231 -0.4704
   8823SM  H18T11814   1.683   2.230   4.706  0.7463 -1.1423 -1.0658
   8823SM  H18U11815   1.718   2.415   4.713  1.2241  0.2261  0.0410
   8823SM   C1F11816   1.397   1.834   2.901 -0.3247 -0.0482 -0.3818
   8823SM    OF11817   1.476   1.859   2.809 -0.0409 -0.3372  0.1324
   8823SM   C2F11818   1.380   1.700   2.966  0.6167  0.3558  0.3452
   8823SM   H2F11819   1.373   1.629   2.881 -2.4479  0.1970  0.5939
   8823SM   H2G11820   1.281   1.701   3.018  0.0311  2.2689 -0.6649
   8823SM   C3F11821   1.482   1.659   3.069  0.2691 -0.7833 -0.1578
   8823SM   H3F11822   1.575   1.677   3.010 -0.6688  0.8727 -1.2130
   8823SM   H3G11823   1.489   1.553   3.101 -2.1191 -0.7315  0.7377
   8823SM   C4F11824   1.476   1.734   3.207  0.2628  0.1121  0.5124
   8823SM   H4F11825   1.371   1.732   3.244 -0.1180 -0.9459 -0.5633
   8823SM   H4G11826   1.520   1.835   3.196 -0.2879  0.3406  0.3717
   8823SM   C5F11827   1.566   1.681   3.319 -0.0598  1.3958 -0.5491
   8823SM   H5F11828   1.672   1.676   3.285  0.3655  0.2672  0.8487
   8823SM   H5G11829   1.532   1.576   3.335  0.4189  1.0361 -1.7997
   8823SM   C6F11830   1.539   1.753   3.451 -0.6450  0.0396 -0.5732
   8823SM   H6F11831   1.432   1.761   3.479 -0.1940 -0.9722  1.6421
   8823SM   H6G11832   1.582   1.853   3.427 -0.3594 -0.2679 -1.3740
   8823SM   C7F11833   1.627   1.703   3.566  0.1076  1.1588 -0.7260
   8823SM   H7F11834   1.645   1.777   3.647  0.0357 -0.8679  1.2337
   8823SM   H7G11835   1.725   1.660   3.534  0.9867  1.6912  1.0993
   8823SM   C8F11836   1.556   1.593   3.648 -0.2526 -0.5133  0.1691
   8823SM   H8F11837   1.553   1.499   3.588  2.1383 -1.2601  1.0868
   8823SM   H8G11838   1.452   1.628   3.658 -0.0357 -0.2846  1.9366
   8823SM   C9F11839   1.602   1.568   3.787 -0.1373 -0.9205  0.2921
   8823SM   H9F11840   1.713   1.566   3.794 -0.0504  1.4500  0.3324
   8823SM   H9G11841   1.560   1.469   3.813  0.2540 -1.8382 -2.2784
   8823SM  C10F11842   1.560   1.675   3.890 -0.3733 -0.0944  0.0152
   8823SM  H10F11843   1.453   1.704   3.888 -0.2059  0.7947  1.8234
   8823SM  H10G11844   1.599   1.772   3.853 -1.1205  0.1031 -0.2773
   8823SM  C11F11845   1.620   1.640   4.026 -0.3285  0.1484  0.1615
   8823SM  H11F11846   1.730   1.651   4.032 -0.3429 -0.1312  1.3876
   8823SM  H11G11847   1.615   1.529   4.026  0.1533  0.1228 -0.3279
   8823SM  C12F11848   1.559   1.699   4.152 -0.4870  0.0707  0.1217
   8823SM  H12F11849   1.452   1.670   4.152 -1.4177  3.0832 -1.7119
   8823SM  H12G11850   1.568   1.809   4.146  1.3614 -0.1109 -3.3026
   8823SM  C13F11851   1.627   1.639   4.275  0.1389 -0.7425  0.4009
   8823SM  H13F11852   1.733   1.668   4.256 -0.2834  0.0868 -0.7876
   8823SM  H13G11853   1.634   1.528   4.278  1.3349 -0.6726  1.0363
   8823SM  C14F11854   1.588   1.702   4.412 -0.1102 -0.6071 -0.3749
   8823SM  H14F11855   1.485   1.675   4.447 -0.3976 -0.9272 -1.4315
   8823SM  H14G11856   1.588   1.813   4.408  0.0271 -0.4737  1.8749
   8823SM  C15F11857   1.671   1.665   4.530 -0.0379 -0.1601 -0.6430
   8823SM  H15F11858   1.779   1.687   4.513  0.6021 -1.9835  0.7272
   8823SM  H15G11859   1.658   1.557   4.556 -0.1274  0.0576  0.2669
   8823SM  C16F11860   1.622   1.744   4.659 -0.3780 -0.0915  0.2876
   8823SM  H16F11861   1.523   1.712   4.696  0.5320 -0.2605  2.7520
   8823SM  H16G11862   1.609   1.854   4.647  0.1164 -0.2272 -2.0161
   8823SM  C17F11863   1.723   1.724   4.776 -0.1010  0.3393  0.0398
   8823SM  H17F11864   1.801   1.802   4.770  0.9124 -0.7355 -2.3406
   8823SM  H17G11865   1.759   1.619   4.764 -0.7972  0.0297  0.5633
   8823SM  C18F11866   1.660   1.731   4.916  0.0790  0.0396 -0.8920
   8823SM  H18F11867   1.724   1.683   4.992  0.8920 -0.0897 -1.6414
   8823SM  H18G11868   1.568   1.669   4.910  0.0354 -0.1724  1.3366
   8823SM  C19F11869   1.634   1.878   4.942 -0.2902  0.0882  0.0256
   8823SM  H19F11870   1.569   1.920   4.862  0.8610  2.8260  0.4151
   8823SM  H19G11871   1.733   1.928   4.939  0.4330 -1.2580  0.8844
   8823SM  C20F11872   1.567   1.910   5.074 -0.6203 -0.4745 -0.0623
   8823SM  H20F11873   1.569   2.017   5.101 -2.1741 -0.7662  1.3748
   8823SM  H20G11874   1.632   1.867   5.153 -0.0653  1.4249  0.5668
   8823SM  C21F11875   1.423   1.869   5.087 -0.3894  0.9130 -0.5420
   8823SM  H21F11876   1.416   1.764   5.051 -2.2540 -0.6785  3.8173
   8823SM  H21G11877   1.348   1.932   5.036 -2.5647 -0.3220  0.9682
   8823SM  C22F11878   1.371   1.870   5.233  0.3169 -0.1290  0.2855
   8823SM  H22F11879   1.361   1.975   5.267  0.5167  0.0300 -0.1462
   8823SM  H22G11880   1.450   1.809   5.282  1.7372  0.5271 -1.1247
   8823SM  C23F11881   1.234   1.795   5.246  0.5871  0.5626  0.3903
   8823SM  H23F11882   1.161   1.837   5.174 -1.2830 -1.0963  1.2281
   8823SM  H23G11883   1.195   1.791   5.350 -0.6583  1.4137 -0.0220
   8823SM  H23H11884   1.246   1.690   5.211 -0.3946  0.3294  0.7298
   8923SM     N11885   6.764   2.097   2.486 -0.1198 -1.0055 -0.3673
   8923SM   C1511886   6.890   2.017   2.464 -0.0587  0.4779 -0.0308
   8923SM  H15A11887   6.955   2.069   2.394  1.3034 -0.4363  0.5212
   8923SM  H15B11888   6.856   1.922   2.427 -1.7667  0.1612  2.1731
   8923SM  H15C11889   6.946   2.000   2.554  2.6578  0.2252 -1.6316
   8923SM   C1411890   6.803   2.233   2.533 -0.2360  0.2029  0.2977
   8923SM  H14A11891   6.729   2.309   2.515 -0.0013  0.3559 -0.0319
   8923SM  H14B11892   6.900   2.255   2.492  1.0935 -2.6051  1.6166
   8923SM  H14C11893   6.817   2.223   2.640  1.6593 -0.2934  0.0457
   8923SM   C1311894   6.686   2.123   2.353  0.5449  0.5353  0.4746
   8923SM  H13A11895   6.752   2.186   2.295 -1.3679  1.7149 -0.5377
   8923SM  H13B11896   6.594   2.174   2.379  0.3870  0.2384  0.5015
   8923SM  H13C11897   6.662   2.033   2.299  2.8094 -0.3585  0.8664
   8923SM   C1211898   6.676   2.031   2.585  0.9287  0.5601  0.5124
   8923SM  H12A11899   6.726   1.989   2.671 -1.2291 -1.3429  0.9244
   8923SM  H12B11900   6.636   1.941   2.542  0.0856  0.9886  0.3807
   8923SM   C1111901   6.558   2.117   2.647 -0.6029  0.2589 -0.1016
   8923SM  H11A11902   6.603   2.197   2.710  1.5961 -0.4718 -0.6533
   8923SM  H11B11903   6.498   2.048   2.710  0.5621 -0.0611  0.6816
   8923SM     P11904   6.395   2.290   2.536 -0.4421  0.1899 -0.0106
   8923SM   O1311905   6.432   2.381   2.645 -0.0729  1.1492 -0.6276
   8923SM   O1411906   6.413   2.339   2.401  0.5230 -0.5397  0.5568
   8923SM   O1111907   6.243   2.245   2.555 -0.1888  0.0036 -0.2123
   8923SM   O1211908   6.473   2.155   2.542 -0.3148 -0.5141  0.0854
   8923SM   C1S11909   6.208   2.180   2.674 -0.2181  0.2323 -0.1964
   8923SM   H1S11910   6.286   2.106   2.703  0.0371  0.1440 -1.0906
   8923SM   H1T11911   6.120   2.113   2.659 -0.7984  0.4543  1.9420
   8923SM    NF11912   6.158   2.200   2.912 -0.5976  0.1281  0.0772
   8923SM   HNF11913   6.070   2.180   2.955  0.3035 -0.6457  1.6606
   8923SM   C2S11914   6.169   2.274   2.786  0.8200 -0.8870  0.0298
   8923SM   H2S11915   6.241   2.358   2.791  0.9047 -1.0188  3.2715
   8923SM   C3S11916   6.035   2.344   2.744 -1.2929  0.4620  0.0518
   8923SM   H3S11917   5.955   2.270   2.725  1.1777 -2.1464 -0.9515
   8923SM    O311918   6.038   2.418   2.623 -0.2204  0.6609  0.6565
   8923SM   HO311919   6.119   2.391   2.579 -0.6601  1.1543 -0.4816
   8923SM   C4S11920   5.991   2.442   2.857 -0.6136  0.0596 -0.7749
   8923SM   H4S11921   6.062   2.521   2.884 -1.6869  1.3312 -1.5327
   8923SM   C5S11922   5.880   2.432   2.931  0.4805  1.1115  0.7477
   8923SM   H5S11923   5.816   2.346   2.906  0.5751  1.0960  0.5490
   8923SM   C6S11924   5.836   2.524   3.040  0.4912  0.6542  0.0081
   8923SM   H6S11925   5.735   2.564   3.015 -0.5406 -1.6176  0.3644
   8923SM   H6T11926   5.915   2.600   3.058  1.6148 -0.4092 -0.3248
   8923SM   C7S11927   5.818   2.454   3.168 -0.5836  0.2125  0.2005
   8923SM   H7S11928   5.922   2.442   3.204  1.2100  4.0461 -2.9065
   8923SM   H7T11929   5.769   2.356   3.150 -0.5611  0.7091 -3.2276
   8923SM   C8S11930   5.755   2.542   3.275  0.1407 -0.4409  0.1369
   8923SM   H8S11931   5.810   2.636   3.291 -1.4715  0.4797  0.5524
   8923SM   H8T11932   5.767   2.486   3.370  0.4347 -0.5421  0.0411
   8923SM   C9S11933   5.607   2.572   3.250 -0.0109  0.3138 -0.0632
   8923SM   H9S11934   5.567   2.471   3.225  0.1603  0.2358 -0.0160
   8923SM   H9T11935   5.595   2.635   3.159 -1.6769 -0.7993 -0.6848
   8923SM  C10S11936   5.545   2.645   3.373  0.7467 -0.8460 -0.4920
   8923SM  H10S11937   5.619   2.721   3.405  0.3180 -0.7396  0.2676
   8923SM  H10T11938   5.536   2.573   3.458  0.0377  0.3975  0.5086
   8923SM  C11S11939   5.407   2.706   3.331 -0.1487 -0.4667 -0.8313
   8923SM  H11S11940   5.337   2.622   3.308  1.1465 -1.7709 -0.1810
   8923SM  H11T11941   5.432   2.759   3.236 -0.3782 -0.1501 -0.7179
   8923SM  C12S11942   5.349   2.799   3.430  0.3685  0.0423  0.6129
   8923SM  H12S11943   5.418   2.884   3.446  1.1807 -0.5614  0.4060
   8923SM  H12T11944   5.338   2.747   3.528  0.3147 -0.0601  0.5534
   8923SM  C13S11945   5.209   2.863   3.400  0.2247  0.1368 -0.4806
   8923SM  H13S11946   5.133   2.782   3.388  1.6267 -1.2592 -0.2493
   8923SM  H13T11947   5.210   2.918   3.304  0.7431  1.1012  0.0691
   8923SM  C14S11948   5.166   2.960   3.520 -0.6229 -1.0873  0.2226
   8923SM  H14S11949   5.231   3.050   3.514  0.1748 -1.7353 -3.7371
   8923SM  H14T11950   5.187   2.915   3.619 -1.5261  1.2451  1.5269
   8923SM  C15S11951   5.016   2.999   3.530 -0.0927 -0.7680 -0.2842
   8923SM  H15S11952   4.942   2.917   3.538 -1.4725  0.4552 -0.0761
   8923SM  H15T11953   4.986   3.049   3.435 -1.5040 -1.4136 -0.2073
   8923SM  C16S11954   4.992   3.105   3.640 -0.0418  0.6244 -0.3909
   8923SM  H16S11955   5.083   3.167   3.641 -0.6137  1.5842  2.5620
   8923SM  H16T11956   4.986   3.051   3.737  1.2869 -0.4839 -0.8932
   8923SM  C17S11957   4.869   3.193   3.614 -0.5050 -0.2540 -0.6842
   8923SM  H17S11958   4.783   3.125   3.596 -0.0451 -0.8665 -0.6133
   8923SM  H17T11959   4.885   3.265   3.531 -2.0231  2.3103  1.1009
   8923SM  C18S11960   4.822   3.274   3.742  0.4171 -0.0892  0.3248
   8923SM  H18S11961   4.910   3.307   3.801  0.0349  1.2778  0.1498
   8923SM  H18T11962   4.760   3.196   3.791 -0.5768 -0.1957 -1.0382
   8923SM  H18U11963   4.758   3.358   3.710  0.0854 -0.3544  0.2887
   8923SM   C1F11964   6.270   2.179   2.992  0.0673  0.3279  0.1436
   8923SM    OF11965   6.384   2.220   2.951  0.8729 -0.1244 -0.3574
   8923SM   C2F11966   6.254   2.099   3.120  0.2403 -0.2584  0.3408
   8923SM   H2F11967   6.326   2.015   3.122 -1.9046 -2.2200 -0.0580
   8923SM   H2G11968   6.148   2.066   3.135 -0.0494  0.0708 -0.9136
   8923SM   C3F11969   6.287   2.184   3.251  0.5839  0.2561  0.2849
   8923SM   H3F11970   6.395   2.202   3.266  0.5103  1.2515 -0.3186
   8923SM   H3G11971   6.239   2.115   3.324 -2.4350  0.0826 -1.6941
   8923SM   C4F11972   6.234   2.320   3.257  0.4668 -0.3364  1.0763
   8923SM   H4F11973   6.134   2.314   3.209 -0.2994 -0.4775  2.6353
   8923SM   H4G11974   6.292   2.394   3.198 -0.5029 -1.7639 -1.8703
   8923SM   C5F11975   6.226   2.375   3.397  0.4364 -0.2746 -0.5498
   8923SM   H5F11976   6.328   2.380   3.442  0.4993 -2.2907 -0.3817
   8923SM   H5G11977   6.170   2.301   3.459 -0.4794  1.6564  1.0535
   8923SM   C6F11978   6.151   2.512   3.410 -0.6659  0.2941 -0.0127
   8923SM   H6F11979   6.049   2.513   3.364 -0.7007 -0.6779  0.0251
   8923SM   H6G11980   6.206   2.591   3.356 -2.8741  1.6458 -0.4164
   8923SM   C7F11981   6.134   2.558   3.560 -0.5403  0.2687  1.3154
   8923SM   H7F11982   6.098   2.663   3.561 -1.5705 -0.0756  1.3540
   8923SM   H7G11983   6.239   2.550   3.596 -0.3773 -0.5712  0.6770
   8923SM   C8F11984   6.026   2.479   3.635 -0.2312 -0.2268  0.7322
   8923SM   H8F11985   6.032   2.372   3.609 -1.2539 -0.1913  0.2960
   8923SM   H8G11986   5.927   2.504   3.592  0.1489  2.4277  1.2138
   8923SM   C9F11987   6.018   2.514   3.791 -0.1034  0.2679  0.1065
   8923SM   H9F11988   5.923   2.473   3.832  0.1008 -1.1123 -0.7358
   8923SM   H9G11989   6.020   2.624   3.804 -0.1741  0.2426  0.3357
   8923SM  C10F11990   6.144   2.454   3.866  0.1826  0.0942  0.0203
   8923SM  H10F11991   6.233   2.489   3.811  0.2010  1.2627  0.7609
   8923SM  H10G11992   6.135   2.343   3.867 -2.1601  0.1899  1.9505
   8923SM  C11F11993   6.159   2.507   4.011 -0.9192 -0.2313  0.4938
   8923SM  H11F11994   6.178   2.614   3.992  3.1937 -0.5819  1.7991
   8923SM  H11G11995   6.239   2.465   4.076 -1.6504 -0.1417  1.4899
   8923SM  C12F11996   6.043   2.489   4.103 -0.1576 -0.2072  0.3211
   8923SM  H12F11997   6.008   2.388   4.134 -1.8250  0.1100 -0.4185
   8923SM  H12G11998   5.954   2.534   4.053  0.8827  0.4945 -0.9493
   8923SM  C13F11999   6.057   2.567   4.237  0.2978 -0.1352 -0.8942
   8923SM  H13F12000   6.146   2.538   4.298  0.4821  2.9866  0.5628
   8923SM  H13G12001   5.966   2.538   4.293 -0.4531  2.5061 -0.5946
   8923SM  C14F12002   6.062   2.715   4.220  0.2059 -0.3187 -0.0283
   8923SM  H14F12003   5.971   2.756   4.170 -0.5136  0.0267  1.4934
   8923SM  H14G12004   6.142   2.737   4.147 -0.7621 -1.4451 -1.5088
   8923SM  C15F12005   6.100   2.797   4.347  0.3066 -0.2954  0.1133
   8923SM  H15F12006   6.209   2.795   4.370  0.7088  1.0471 -1.4585
   8923SM  H15G12007   6.039   2.760   4.432 -1.5491 -1.9768 -1.8394
   8923SM  C16F12008   6.068   2.951   4.345 -0.7418  0.8412  0.3420
   8923SM  H16F12009   5.957   2.958   4.336 -0.8256 -1.1177 -0.6161
   8923SM  H16G12010   6.109   3.016   4.265 -1.4658  1.4126  0.4278
   8923SM  C17F12011   6.081   3.018   4.489 -0.6978  0.1353 -0.8647
   8923SM  H17F12012   6.079   3.128   4.478 -1.5675  0.0856 -1.2927
   8923SM  H17G12013   6.175   2.985   4.538 -0.7279  0.6432 -0.4561
   8923SM  C18F12014   5.966   2.976   4.583  0.1119 -0.2825  0.4132
   8923SM  H18F12015   6.010   2.983   4.685 -2.9157  0.3480  1.8067
   8923SM  H18G12016   5.939   2.869   4.578 -0.3843 -0.1401 -0.0385
   8923SM  C19F12017   5.839   3.072   4.578 -1.2133 -0.5050 -0.1734
   8923SM  H19F12018   5.784   3.039   4.486 -0.3158  0.8196 -1.2218
   8923SM  H19G12019   5.865   3.178   4.561  1.4774 -1.0735 -0.0254
   8923SM  C20F12020   5.750   3.062   4.700  0.0961 -0.1922 -0.3044
   8923SM  H20F12021   5.808   3.108   4.783 -0.8350 -2.9641  2.0694
   8923SM  H20G12022   5.715   2.959   4.725  0.3541 -0.1033  0.4361
   8923SM  C21F12023   5.638   3.168   4.693  0.1004  0.2652  0.0097
   8923SM  H21F12024   5.543   3.109   4.698  1.4566 -2.1188 -0.7886
   8923SM  H21G12025   5.643   3.224   4.597 -0.9976  1.2436  0.5038
   8923SM  C22F12026   5.637   3.278   4.804  0.1549  0.0448  0.1458
   8923SM  H22F12027   5.709   3.360   4.786  0.1405 -0.1638 -0.9584
   8923SM  H22G12028   5.676   3.224   4.893  0.7185 -1.5876 -1.0374
   8923SM  C23F12029   5.504   3.339   4.835 -0.5172  0.0516  0.2951
   8923SM  H23F12030   5.462   3.383   4.741 -0.3715  0.5917  0.4775
   8923SM  H23G12031   5.531   3.427   4.898 -0.7230  1.2641 -1.2352
   8923SM  H23H12032   5.424   3.268   4.864 -1.8520  1.3145 -0.1781
   9023SM     N12033   6.007   2.060   2.264 -0.2225  0.3868 -0.4580
   9023SM   C1512034   6.013   2.206   2.304 -0.0491 -0.1749  0.1373
   9023SM  H15A12035   6.095   2.257   2.256  0.4718 -0.7500  0.4009
   9023SM  H15B12036   6.025   2.200   2.411 -1.2190 -2.3845  0.2049
   9023SM  H15C12037   5.915   2.252   2.297 -0.1783 -0.1893  1.4534
   9023SM   C1412038   5.979   2.041   2.124 -0.4549 -0.0363 -0.3075
   9023SM  H14A12039   6.050   2.095   2.063  0.7236 -1.2361 -0.0480
   9023SM  H14B12040   5.880   2.080   2.105 -0.2225  0.5174 -0.3926
   9023SM  H14C12041   5.987   1.938   2.093  1.2421 -0.5190  1.5255
   9023SM   C1312042   6.149   2.003   2.289 -0.3375  0.4110  0.2727
   9023SM  H13A12043   6.169   2.004   2.396 -0.7719 -2.3183  0.4771
   9023SM  H13B12044   6.215   2.073   2.242 -0.0273 -0.9859 -1.4744
   9023SM  H13C12045   6.162   1.903   2.250 -0.3246 -0.7400  2.9998
   9023SM   C1212046   5.900   1.981   2.344  0.0816 -0.6879  0.4414
   9023SM  H12A12047   5.901   1.875   2.322 -0.8152 -0.7567  0.7246
   9023SM  H12B12048   5.801   2.008   2.311  0.5232  1.6427  0.8226
   9023SM   C1112049   5.897   2.012   2.490  0.4391  0.1024 -0.1767
   9023SM  H11A12050   6.000   2.024   2.531  0.1724  0.7396  0.3365
   9023SM  H11B12051   5.844   1.929   2.541  1.1055 -1.0985 -1.4075
   9023SM     P12052   5.676   2.159   2.523 -0.0520  0.5716  0.0401
   9023SM   O1312053   5.653   2.302   2.480  0.2797 -0.3131 -0.9993
   9023SM   O1412054   5.608   2.049   2.451 -0.1055 -0.4847  0.4964
   9023SM   O1112055   5.644   2.153   2.672  0.0283 -0.5102  0.6520
   9023SM   O1212056   5.832   2.139   2.505 -0.2791  0.1117  0.1140
   9023SM   C1S12057   5.709   2.075   2.767 -0.2297  0.2699 -0.3598
   9023SM   H1S12058   5.815   2.107   2.780 -0.7897  2.1920 -0.1624
   9023SM   H1T12059   5.702   1.965   2.752  0.6147  0.0212  0.9212
   9023SM    NF12060   5.706   2.032   3.018  0.0446 -0.2381  0.3104
   9023SM   HNF12061   5.639   1.978   3.069 -2.3728  1.6677 -0.6277
   9023SM   C2S12062   5.647   2.109   2.906  0.3261  0.1926 -0.8756
   9023SM   H2S12063   5.654   2.216   2.935 -1.1616 -0.2336  1.3025
   9023SM   C3S12064   5.498   2.081   2.897  0.1834  0.0024 -0.4916
   9023SM   H3S12065   5.479   1.977   2.860 -1.4343  0.3698 -0.7654
   9023SM    O312066   5.422   2.165   2.810  0.9983 -0.5333  0.5204
   9023SM   HO312067   5.483   2.216   2.755 -2.0137  0.1697 -2.5193
   9023SM   C4S12068   5.426   2.103   3.026  0.2763  0.1071 -0.0168
   9023SM   H4S12069   5.409   2.206   3.061 -0.4647  0.0482 -0.1854
   9023SM   C5S12070   5.383   2.010   3.115  0.0691 -0.0873  0.3171
   9023SM   H5S12071   5.396   1.904   3.088 -1.3039 -0.3966  0.8293
   9023SM   C6S12072   5.320   2.035   3.252  0.4538 -0.6842 -0.3702
   9023SM   H6S12073   5.348   1.953   3.322  0.3962 -1.8146 -1.6108
   9023SM   H6T12074   5.211   2.032   3.234  0.6448 -3.1366 -1.5364
   9023SM   C7S12075   5.374   2.164   3.330  0.0216  1.1003  0.4846
   9023SM   H7S12076   5.313   2.158   3.423  0.9641 -0.0708  1.0542
   9023SM   H7T12077   5.351   2.262   3.284  0.9392  0.8295 -0.6094
   9023SM   C8S12078   5.521   2.156   3.371  0.1608 -0.2754 -0.0643
   9023SM   H8S12079   5.584   2.183   3.284  1.0987  1.3108  1.0499
   9023SM   H8T12080   5.561   2.057   3.403 -1.8041 -0.5571  1.8027
   9023SM   C9S12081   5.564   2.261   3.481  0.4719 -0.6978  0.0540
   9023SM   H9S12082   5.513   2.359   3.470 -0.1845 -1.1250 -0.7586
   9023SM   H9T12083   5.671   2.289   3.469  0.4558 -0.2747  0.8533
   9023SM  C10S12084   5.524   2.223   3.625 -0.3949  0.0722  0.0226
   9023SM  H10S12085   5.534   2.112   3.633  0.8068  0.2156  0.7070
   9023SM  H10T12086   5.417   2.252   3.635 -1.1469 -1.9051 -1.4912
   9023SM  C11S12087   5.600   2.292   3.734 -0.6529 -0.0171 -0.1050
   9023SM  H11S12088   5.625   2.396   3.704 -0.8827  0.5126  1.4183
   9023SM  H11T12089   5.698   2.243   3.753 -0.8310 -0.1834  0.4171
   9023SM  C12S12090   5.518   2.301   3.863  0.3961  0.2478 -0.1886
   9023SM  H12S12091   5.491   2.198   3.895 -1.8779  0.7875 -0.1901
   9023SM  H12T12092   5.432   2.362   3.830 -0.2297  0.0919  1.0788
   9023SM  C13S12093   5.581   2.376   3.979 -0.1124 -0.3312  0.1711
   9023SM  H13S12094   5.633   2.464   3.937  1.2529  0.5182  3.3671
   9023SM  H13T12095   5.665   2.312   4.015  0.2536  0.8936  1.5690
   9023SM  C14S12096   5.479   2.415   4.086  0.4316  0.0885 -0.5115
   9023SM  H14S12097   5.429   2.319   4.108 -1.5173  1.2861  0.5029
   9023SM  H14T12098   5.395   2.478   4.050 -0.4838 -0.6553  0.2914
   9023SM  C15S12099   5.539   2.467   4.219 -0.2394  0.1024  0.2883
   9023SM  H15S12100   5.561   2.382   4.287  3.1559  0.8016  0.2296
   9023SM  H15T12101   5.457   2.533   4.255 -0.3528 -0.3996  0.9699
   9023SM  C16S12102   5.669   2.540   4.210  0.0216 -0.3132  0.0615
   9023SM  H16S12103   5.677   2.581   4.107  2.0673  1.0955  0.7252
   9023SM  H16T12104   5.761   2.479   4.227  1.0283  1.6465  2.2815
   9023SM  C17S12105   5.683   2.640   4.327  0.5164  0.6679 -0.5144
   9023SM  H17S12106   5.597   2.711   4.318 -1.5216 -1.4439  1.1246
   9023SM  H17T12107   5.785   2.683   4.319  0.9403 -0.5190 -2.1098
   9023SM  C18S12108   5.679   2.572   4.466 -0.4569 -0.5006  0.8483
   9023SM  H18S12109   5.734   2.477   4.450 -1.5921 -0.9539 -0.5666
   9023SM  H18T12110   5.576   2.551   4.502 -0.8581  1.3690  0.9021
   9023SM  H18U12111   5.743   2.629   4.537 -0.5783 -0.3044  0.8012
   9023SM   C1F12112   5.832   2.044   3.061 -0.2369  0.3310  0.1102
   9023SM    OF12113   5.911   2.113   2.995  0.2572  0.6459 -0.5550
   9023SM   C2F12114   5.877   1.963   3.180  0.4971 -0.0772 -0.5328
   9023SM   H2F12115   5.978   1.924   3.154  0.6921 -0.5495  0.8038
   9023SM   H2G12116   5.804   1.880   3.193 -0.0755  0.3111 -1.2478
   9023SM   C3F12117   5.890   2.049   3.310 -0.4548  0.7018 -0.1029
   9023SM   H3F12118   5.801   2.104   3.348  0.5619  0.0743  3.4695
   9023SM   H3G12119   5.953   2.132   3.271  0.8881 -0.8592 -1.3936
   9023SM   C4F12120   5.956   1.972   3.421  0.6936 -0.2754  0.3085
   9023SM   H4F12121   6.055   1.938   3.383  0.5712  1.0852 -1.3734
   9023SM   H4G12122   5.890   1.886   3.442 -0.8531 -0.1817 -3.4293
   9023SM   C5F12123   5.961   2.043   3.558 -0.2365 -0.3511 -0.0190
   9023SM   H5F12124   5.863   2.089   3.585 -0.2694  0.1015 -0.8588
   9023SM   H5G12125   6.030   2.130   3.559 -1.9740  1.1698  2.8863
   9023SM   C6F12126   6.018   1.963   3.679  0.4801 -1.0410  0.6275
   9023SM   H6F12127   6.118   1.926   3.648  0.9173  0.8635 -0.3579
   9023SM   H6G12128   5.955   1.871   3.679  0.0747 -0.7690  1.7263
   9023SM   C7F12129   6.008   2.041   3.811 -0.3639 -0.8045  0.1474
   9023SM   H7F12130   5.898   2.051   3.826  0.0580  0.7672  3.2433
   9023SM   H7G12131   6.041   2.147   3.803  0.1253 -0.8567  1.2375
   9023SM   C8F12132   6.060   1.978   3.942  0.7648 -0.3317 -0.5305
   9023SM   H8F12133   6.045   2.057   4.019  2.6049  0.2719 -0.7547
   9023SM   H8G12134   6.166   1.949   3.928  0.5333 -0.9239 -1.1676
   9023SM   C9F12135   5.972   1.861   3.985 -0.0289  0.5292 -0.0539
   9023SM   H9F12136   5.986   1.786   3.904 -0.4192  0.0510  0.3138
   9023SM   H9G12137   5.865   1.887   3.974 -0.6766 -2.2152 -1.0154
   9023SM  C10F12138   6.008   1.820   4.125  0.3499 -0.0054  0.0377
   9023SM  H10F12139   5.998   1.908   4.192 -0.4172  1.0465 -1.3982
   9023SM  H10G12140   6.114   1.787   4.128  1.0632  2.1826  0.8220
   9023SM  C11F12141   5.919   1.710   4.192  0.0724  0.0189 -0.3044
   9023SM  H11F12142   5.954   1.700   4.297 -1.1757 -2.4019 -0.0591
   9023SM  H11G12143   5.947   1.614   4.144  1.9510  1.0311 -1.3626
   9023SM  C12F12144   5.769   1.740   4.203  0.6372  0.0137  0.4495
   9023SM  H12F12145   5.722   1.646   4.239 -0.3962  0.4870  0.3725
   9023SM  H12G12146   5.730   1.741   4.099 -0.6242 -0.1114  0.9065
   9023SM  C13F12147   5.719   1.867   4.270 -0.6793 -0.6410  0.5681
   9023SM  H13F12148   5.610   1.877   4.252 -1.1305 -0.7882  2.8860
   9023SM  H13G12149   5.763   1.962   4.231 -2.5989  0.0231 -0.0868
   9023SM  C14F12150   5.740   1.867   4.423  0.2976  0.3405  0.2932
   9023SM  H14F12151   5.714   1.968   4.460  1.8054  1.9507 -2.7149
   9023SM  H14G12152   5.849   1.853   4.440  0.2756 -0.4639 -0.1444
   9023SM  C15F12153   5.664   1.754   4.496  0.5788 -0.6950  0.2311
   9023SM  H15F12154   5.699   1.650   4.480 -1.6959 -1.8591  2.1145
   9023SM  H15G12155   5.574   1.748   4.431 -0.2006  0.6775  1.1274
   9023SM  C16F12156   5.634   1.770   4.641  0.4587  0.1222 -0.9473
   9023SM  H16F12157   5.613   1.877   4.662  2.3337  0.6537 -1.6303
   9023SM  H16G12158   5.732   1.745   4.687  1.2203  0.1762 -2.4892
   9023SM  C17F12159   5.537   1.676   4.715  0.2990  0.0910  0.1519
   9023SM  H17F12160   5.570   1.574   4.688 -0.4936  0.1824 -1.2873
   9023SM  H17G12161   5.435   1.691   4.673  1.4896 -2.8034 -4.5252
   9023SM  C18F12162   5.541   1.689   4.868 -0.7935 -0.0024  0.3046
   9023SM  H18F12163   5.506   1.789   4.901 -0.7351 -0.5464  2.1042
   9023SM  H18G12164   5.648   1.669   4.887 -1.0456 -1.8022 -0.0439
   9023SM  C19F12165   5.467   1.580   4.944  0.1149  0.2804  0.5448
   9023SM  H19F12166   5.498   1.478   4.916 -2.2699 -0.2181 -0.5922
   9023SM  H19G12167   5.362   1.583   4.908  0.0425 -2.2023  0.4206
   9023SM  C20F12168   5.463   1.612   5.096 -0.2612  0.1405  0.1374
   9023SM  H20F12169   5.390   1.695   5.103  0.2395  0.8744 -2.3325
   9023SM  H20G12170   5.565   1.636   5.133  0.7464 -0.2507 -2.1697
   9023SM  C21F12171   5.423   1.487   5.177 -0.1795 -0.3795  0.1221
   9023SM  H21F12172   5.477   1.403   5.128  0.5888 -0.2445  0.7189
   9023SM  H21G12173   5.313   1.476   5.166 -0.4284  2.8177 -1.4667
   9023SM  C22F12174   5.458   1.502   5.327  0.1578 -0.1700 -0.1130
   9023SM  H22F12175   5.387   1.431   5.377  0.6972  0.1463  1.1435
   9023SM  H22G12176   5.435   1.607   5.353 -0.4786 -0.3308 -0.0115
   9023SM  C23F12177   5.605   1.465   5.353 -0.1284  0.3614  0.4105
   9023SM  H23F12178   5.671   1.535   5.297  1.0703 -1.9464 -1.2223
   9023SM  H23G12179   5.615   1.362   5.314  2.0068  0.1105  1.5076
   9023SM  H23H12180   5.632   1.468   5.460  0.2154  0.0071  0.3349
   9123SM     N12181   0.063   4.268   2.525  0.0881  0.2084 -0.4078
   9123SM   C1512182   0.053   4.142   2.595  0.0154  0.3522  0.1813
   9123SM  H15A12183   0.006   4.146   2.692  0.0497 -2.9772  0.4461
   9123SM  H15B12184   0.143   4.082   2.599  0.1102  0.2885 -1.8556
   9123SM  H15C12185  -0.020   4.081   2.543  0.1694  0.1756  0.1728
   9123SM   C1412186   0.097   4.239   2.385 -0.1024  0.1580  0.7304
   9123SM  H14A12187   0.104   4.330   2.327 -0.0040  0.4461  1.1919
   9123SM  H14B12188   0.017   4.179   2.344 -0.7097  0.5160  1.3749
   9123SM  H14C12189   0.195   4.199   2.365 -0.8376 -0.0430 -3.2827
   9123SM   C1312190  -0.072   4.334   2.538 -0.2068  0.4324  0.0642
   9123SM  H13A12191  -0.085   4.366   2.641  1.5480  1.1646  0.0823
   9123SM  H13B12192  -0.151   4.263   2.518  1.9798 -1.9993 -0.4942
   9123SM  H13C12193  -0.074   4.419   2.471 -1.7250  0.0184 -0.4611
   9123SM   C1212194   0.167   4.360   2.596  0.5344 -0.9688  0.1547
   9123SM  H12A12195   0.258   4.303   2.589  2.1132  1.5291 -0.7553
   9123SM  H12B12196   0.135   4.382   2.697 -0.1295  0.4046 -0.3217
   9123SM   C1112197   0.185   4.493   2.526  0.0866  0.2598  0.6817
   9123SM  H11A12198   0.195   4.484   2.415 -0.4416  1.7549  0.4887
   9123SM  H11B12199   0.283   4.531   2.560  0.9105 -1.6022  0.5430
   9123SM     P12200   0.074   4.726   2.490  0.7613 -0.0344  0.2067
   9123SM   O1312201   0.158   4.824   2.567 -0.3642 -0.5401 -0.2528
   9123SM   O1412202   0.112   4.714   2.346 -0.1134  0.2239 -0.2786
   9123SM   O1112203  -0.078   4.772   2.495 -0.3051  0.7310 -0.5311
   9123SM   O1212204   0.086   4.581   2.564  0.2232 -0.3502 -0.1566
   9123SM   C1S12205  -0.153   4.740   2.618 -0.3082  0.5791 -0.0904
   9123SM   H1S12206  -0.080   4.744   2.701 -0.2903  2.7097 -0.1485
   9123SM   H1T12207  -0.181   4.632   2.618  3.6867 -0.6407 -1.3424
   9123SM    NF12208  -0.334   4.807   2.779 -0.8728 -0.3407 -0.3145
   9123SM   HNF12209  -0.433   4.798   2.782 -1.1690  2.1954 -0.6050
   9123SM   C2S12210  -0.274   4.832   2.646 -0.2622 -0.7505 -0.3995
   9123SM   H2S12211  -0.236   4.936   2.650 -0.9908 -0.5041  0.6656
   9123SM   C3S12212  -0.384   4.826   2.536 -0.6649 -0.1095  0.3690
   9123SM   H3S12213  -0.428   4.724   2.529  0.7032 -0.6480 -0.9069
   9123SM    O312214  -0.331   4.860   2.411  0.3015 -0.0677 -0.2637
   9123SM   HO312215  -0.236   4.846   2.418  0.2743  0.1180  0.5643
   9123SM   C4S12216  -0.500   4.915   2.559  0.4597  0.6686  0.3233
   9123SM   H4S12217  -0.599   4.873   2.581 -0.8833  3.5342  0.2883
   9123SM   C5S12218  -0.511   5.046   2.533  0.2386 -0.7168  0.1077
   9123SM   H5S12219  -0.431   5.102   2.484  0.9586 -3.0017 -1.4909
   9123SM   C6S12220  -0.643   5.115   2.569 -0.4244 -0.0826  0.4212
   9123SM   H6S12221  -0.717   5.047   2.615  0.1222 -1.1175 -0.1976
   9123SM   H6T12222  -0.680   5.147   2.469  3.1098 -2.2819 -1.8086
   9123SM   C7S12223  -0.624   5.227   2.661 -0.1211 -0.0570 -0.0384
   9123SM   H7S12224  -0.713   5.293   2.662  0.0560  0.1691  0.8064
   9123SM   H7T12225  -0.541   5.292   2.625 -0.4574 -0.3342 -1.3816
   9123SM   C8S12226  -0.606   5.184   2.809 -0.5764  0.5448  0.0042
   9123SM   H8S12227  -0.536   5.098   2.812 -0.6755  0.3275 -2.2836
   9123SM   H8T12228  -0.701   5.141   2.847  0.6989 -1.8061  0.6791
   9123SM   C9S12229  -0.552   5.304   2.901  0.0695 -0.6521  0.2664
   9123SM   H9S12230  -0.634   5.379   2.904  0.5680 -0.1180  2.7741
   9123SM   H9T12231  -0.473   5.352   2.839 -1.5382  1.6817 -0.1004
   9123SM  C10S12232  -0.515   5.256   3.041  0.4364  0.0897  0.2293
   9123SM  H10S12233  -0.459   5.334   3.097 -0.5134  0.4498  0.6986
   9123SM  H10T12234  -0.440   5.177   3.019 -0.0966  0.0216 -1.5121
   9123SM  C11S12235  -0.643   5.201   3.107 -0.6360  0.5196  0.1910
   9123SM  H11S12236  -0.704   5.125   3.053 -1.2153  1.5818 -0.6814
   9123SM  H11T12237  -0.719   5.279   3.130 -3.8913 -2.6767  1.3081
   9123SM  C12S12238  -0.612   5.138   3.243  0.0775  0.1027 -0.1243
   9123SM  H12S12239  -0.558   5.218   3.298  0.1584 -0.5201  0.7250
   9123SM  H12T12240  -0.534   5.060   3.257 -0.2385  0.1311  2.4467
   9123SM  C13S12241  -0.732   5.077   3.307  0.2450 -0.5184 -0.5997
   9123SM  H13S12242  -0.767   4.989   3.250  0.2110 -2.9553  2.9262
   9123SM  H13T12243  -0.818   5.147   3.314  0.1455 -0.8045  1.4996
   9123SM  C14S12244  -0.712   5.041   3.457 -0.1270  0.7065  0.6847
   9123SM  H14S12245  -0.686   5.136   3.508 -0.4947  1.3374 -0.2666
   9123SM  H14T12246  -0.620   4.979   3.464  0.6123  1.4251 -1.7115
   9123SM  C15S12247  -0.842   4.982   3.509 -0.2953 -0.0649  0.3664
   9123SM  H15S12248  -0.865   4.884   3.462  2.3831 -0.1091 -1.0425
   9123SM  H15T12249  -0.932   5.046   3.498 -0.7880 -1.0916 -2.1381
   9123SM  C16S12250  -0.835   4.941   3.654 -0.0305  0.6527 -0.3781
   9123SM  H16S12251  -0.762   4.858   3.666 -0.4578  0.3216 -0.0225
   9123SM  H16T12252  -0.927   4.890   3.690  0.6832 -1.0672 -0.8923
   9123SM  C17S12253  -0.787   5.049   3.757  0.1973  1.0158 -0.5772
   9123SM  H17S12254  -0.841   5.146   3.750  0.8625  1.3354 -1.5536
   9123SM  H17T12255  -0.684   5.089   3.744 -0.3834  1.9929 -2.7239
   9123SM  C18S12256  -0.796   4.987   3.905  0.4813  0.5805  0.1129
   9123SM  H18S12257  -0.899   4.947   3.921  1.3495 -1.9975 -0.4627
   9123SM  H18T12258  -0.776   5.067   3.980  1.2691  0.9129 -0.4370
   9123SM  H18U12259  -0.724   4.904   3.916  0.4118  0.3087 -1.3485
   9123SM   C1F12260  -0.268   4.799   2.896  0.0378 -0.1656  0.3725
   9123SM    OF12261  -0.151   4.838   2.899 -0.3964  0.5410 -0.2237
   9123SM   C2F12262  -0.348   4.769   3.021  0.9590  0.1912 -0.4185
   9123SM   H2F12263  -0.340   4.662   3.050  0.6536  0.4126  0.5327
   9123SM   H2G12264  -0.457   4.788   3.006  1.2408  2.1020 -0.2759
   9123SM   C3F12265  -0.304   4.854   3.143  0.4573 -0.3636 -0.1773
   9123SM   H3F12266  -0.313   4.964   3.125  0.5257  0.3290  3.3603
   9123SM   H3G12267  -0.193   4.852   3.152  0.5575  1.6393 -0.4043
   9123SM   C4F12268  -0.360   4.801   3.275 -0.6021 -0.3463 -0.0404
   9123SM   H4F12269  -0.466   4.769   3.268 -0.9012  0.8748 -1.5187
   9123SM   H4G12270  -0.369   4.895   3.333  0.3002  0.6298 -1.4133
   9123SM   C5F12271  -0.267   4.703   3.341  0.9275 -0.0846 -0.6065
   9123SM   H5F12272  -0.166   4.747   3.350 -0.6247  3.4792  2.0683
   9123SM   H5G12273  -0.265   4.614   3.274  3.9655 -0.6142  0.0339
   9123SM   C6F12274  -0.311   4.658   3.483 -0.1093  0.5199 -0.1598
   9123SM   H6F12275  -0.329   4.737   3.559  0.4117  1.1056 -0.6444
   9123SM   H6G12276  -0.220   4.602   3.513  0.9942  2.1977 -0.2616
   9123SM   C7F12277  -0.435   4.566   3.496  0.2928  0.0350  0.0854
   9123SM   H7F12278  -0.423   4.492   3.415 -1.6486 -0.1619 -0.0709
   9123SM   H7G12279  -0.521   4.636   3.482  0.5500  0.2563 -0.4227
   9123SM   C8F12280  -0.437   4.485   3.632 -0.4128 -0.2322 -0.3132
   9123SM   H8F12281  -0.350   4.416   3.646  0.2448  0.8313  1.0756
   9123SM   H8G12282  -0.524   4.417   3.621  1.0931 -2.0680 -1.4278
   9123SM   C9F12283  -0.453   4.570   3.756  0.2224 -0.3987 -0.5742
   9123SM   H9F12284  -0.513   4.663   3.749  0.1162 -0.2406  1.7276
   9123SM   H9G12285  -0.345   4.591   3.768  0.1333  1.0919 -2.0737
   9123SM  C10F12286  -0.508   4.486   3.866  0.3522 -0.3856 -0.4987
   9123SM  H10F12287  -0.449   4.393   3.876 -0.2915 -1.2916 -3.8216
   9123SM  H10G12288  -0.595   4.432   3.824  0.0621  1.1066 -1.9131
   9123SM  C11F12289  -0.524   4.557   4.005  0.2711  0.0224  0.7720
   9123SM  H11F12290  -0.611   4.624   4.015 -0.0117 -0.0885 -0.6761
   9123SM  H11G12291  -0.430   4.611   4.030  0.4408 -0.4868  1.2527
   9123SM  C12F12292  -0.556   4.454   4.120  0.2890  0.4490  0.5739
   9123SM  H12F12293  -0.492   4.363   4.117 -1.2544 -0.6742  0.3630
   9123SM  H12G12294  -0.661   4.420   4.110  0.1832  1.1969 -1.3965
   9123SM  C13F12295  -0.536   4.517   4.257  0.2040 -0.2770 -0.4349
   9123SM  H13F12296  -0.587   4.615   4.251  0.5178 -0.1188 -0.5521
   9123SM  H13G12297  -0.434   4.553   4.283  0.5273 -1.8174  0.6107
   9123SM  C14F12298  -0.604   4.451   4.382  0.1419 -0.0375  0.5530
   9123SM  H14F12299  -0.553   4.354   4.403 -0.9217 -0.6680  0.2961
   9123SM  H14G12300  -0.708   4.431   4.348  0.5438 -1.4156  0.0647
   9123SM  C15F12301  -0.611   4.532   4.509 -0.1832 -0.7008 -0.4843
   9123SM  H15F12302  -0.669   4.626   4.494  0.0591  0.0667  2.6124
   9123SM  H15G12303  -0.506   4.565   4.528 -0.4818 -0.3990  0.7384
   9123SM  C16F12304  -0.668   4.463   4.633  0.1681 -0.5802  0.5049
   9123SM  H16F12305  -0.591   4.389   4.663 -0.0720 -0.5814  1.1167
   9123SM  H16G12306  -0.769   4.423   4.607 -0.8538  2.7428 -1.3578
   9123SM  C17F12307  -0.678   4.574   4.746  0.3263  0.2952 -0.7468
   9123SM  H17F12308  -0.758   4.650   4.732  0.7741  0.6224 -1.5433
   9123SM  H17G12309  -0.587   4.638   4.751  1.2315 -0.7898 -2.5520
   9123SM  C18F12310  -0.690   4.503   4.884  0.0311  0.0079  0.3210
   9123SM  H18F12311  -0.658   4.577   4.961 -0.8929 -0.8638  1.5667
   9123SM  H18G12312  -0.615   4.421   4.890 -0.9663 -0.8381  1.5963
   9123SM  C19F12313  -0.821   4.438   4.912 -0.2415 -0.0266 -0.8492
   9123SM  H19F12314  -0.855   4.368   4.833  1.4683 -0.4029 -1.2955
   9123SM  H19G12315  -0.907   4.507   4.929  1.0367  1.1727  1.1545
   9123SM  C20F12316  -0.811   4.354   5.042  0.1011 -0.6756  0.1119
   9123SM  H20F12317  -0.784   4.411   5.134 -0.4888  0.2231 -0.2606
   9123SM  H20G12318  -0.732   4.276   5.035  0.4231 -0.3910  0.5882
   9123SM  C21F12319  -0.945   4.276   5.070 -0.7137 -0.5430  0.0820
   9123SM  H21F12320  -0.976   4.232   4.973 -0.1191 -0.4722 -0.1456
   9123SM  H21G12321  -1.024   4.350   5.092 -0.0584 -0.0004  0.6261
   9123SM  C22F12322  -0.940   4.160   5.161  0.3846 -0.3145 -0.1431
   9123SM  H22F12323  -0.840   4.161   5.208  0.3801  0.4803 -0.1232
   9123SM  H22G12324  -0.955   4.063   5.109 -1.6228  0.3005 -0.8355
   9123SM  C23F12325  -1.051   4.147   5.266 -1.1383 -0.3894 -0.3495
   9123SM  H23F12326  -1.137   4.131   5.197  0.4273 -0.1810 -2.4738
   9123SM  H23G12327  -1.057   4.236   5.332 -1.1001  0.7554 -1.8161
   9123SM  H23H12328  -1.032   4.063   5.335 -0.6941 -1.7766 -2.0819
   9223SM     N12329   5.058   1.444   2.263 -0.2933 -0.4181  0.6666
   9223SM   C1512330   4.947   1.347   2.241  0.0930  0.0704  0.0630
   9223SM  H15A12331   4.851   1.393   2.223 -0.1248  0.3335  1.7234
   9223SM  H15B12332   4.943   1.291   2.334  2.7158  0.9490  0.7957
   9223SM  H15C12333   4.971   1.287   2.155 -0.7554 -0.0478 -0.1029
   9223SM   C1412334   5.176   1.366   2.261  0.5260  0.4397  0.1660
   9223SM  H14A12335   5.194   1.315   2.167  4.1805  0.9369  0.4528
   9223SM  H14B12336   5.176   1.301   2.347  0.4204 -2.6609 -2.0066
   9223SM  H14C12337   5.262   1.430   2.276  0.0167  1.3136 -0.5359
   9223SM   C1312338   5.050   1.527   2.138  0.4656 -0.7342  1.2049
   9223SM  H13A12339   4.948   1.546   2.107  0.7843 -0.4755  0.3100
   9223SM  H13B12340   5.086   1.490   2.044 -0.7142 -0.3314  0.5714
   9223SM  H13C12341   5.103   1.619   2.159 -0.8205  0.4742 -0.5542
   9223SM   C1212342   5.048   1.530   2.394 -0.1276  0.8937  0.4808
   9223SM  H12A12343   4.962   1.593   2.373 -1.5275  0.0860  3.2533
   9223SM  H12B12344   5.128   1.603   2.392  0.2076  0.5485  1.0701
   9223SM   C1112345   5.040   1.466   2.538  0.3446 -0.8318  0.2631
   9223SM  H11A12346   5.003   1.543   2.609 -2.8126 -0.8089 -1.2439
   9223SM  H11B12347   5.146   1.441   2.561  0.7678  1.4730  1.1304
   9223SM     P12348   4.981   1.214   2.598 -0.0447  0.2495  0.2801
   9223SM   O1312349   4.850   1.159   2.630 -0.1976  0.2205 -0.2886
   9223SM   O1412350   5.075   1.140   2.509  0.0358  0.2669  0.0764
   9223SM   O1112351   5.054   1.245   2.734  0.1147  0.3662 -0.0300
   9223SM   O1212352   4.953   1.354   2.534 -0.1154  0.2000 -0.3582
   9223SM   C1S12353   4.992   1.327   2.833  0.2684 -0.0138  0.2347
   9223SM   H1S12354   4.887   1.297   2.854  0.0237 -0.0508 -0.9564
   9223SM   H1T12355   4.977   1.433   2.805 -0.1704 -0.2130 -0.3197
   9223SM    NF12356   4.998   1.373   3.079 -0.1944  0.3981  0.8045
   9223SM   HNF12357   4.981   1.469   3.098  1.8700  0.6980  1.2715
   9223SM   C2S12358   5.079   1.335   2.963 -0.4339 -0.4476 -0.1187
   9223SM   H2S12359   5.129   1.237   2.978 -0.1102 -0.1086  1.1006
   9223SM   C3S12360   5.199   1.438   2.934 -0.0688 -0.4097 -0.1956
   9223SM   H3S12361   5.158   1.538   2.907 -0.6100 -0.2940  0.9861
   9223SM    O312362   5.281   1.406   2.827 -0.4847  0.0888  0.1620
   9223SM   HO312363   5.235   1.338   2.778  0.4540 -0.4319 -0.0267
   9223SM   C4S12364   5.281   1.456   3.056 -0.2279 -0.0566 -0.3342
   9223SM   H4S12365   5.295   1.365   3.116  1.7144 -0.3691 -1.1922
   9223SM   C5S12366   5.332   1.576   3.103  0.7998 -0.7533  0.0660
   9223SM   H5S12367   5.332   1.669   3.045  1.2342 -0.2494  0.8580
   9223SM   C6S12368   5.412   1.582   3.225  0.2364  0.1055 -0.6133
   9223SM   H6S12369   5.445   1.685   3.253 -0.5802 -0.2781  2.1052
   9223SM   H6T12370   5.511   1.532   3.218  0.8543  1.1363  0.3081
   9223SM   C7S12371   5.348   1.517   3.343  0.2598 -0.5680 -1.1373
   9223SM   H7S12372   5.419   1.540   3.425 -1.6117  1.1455  0.0970
   9223SM   H7T12373   5.339   1.407   3.329 -1.6794 -0.4554 -1.0971
   9223SM   C8S12374   5.212   1.586   3.392 -0.0212  0.0549 -0.2345
   9223SM   H8S12375   5.139   1.589   3.308  0.1143  0.5138 -0.3397
   9223SM   H8T12376   5.234   1.690   3.423  0.0321 -0.0931  0.2273
   9223SM   C9S12377   5.143   1.501   3.502 -0.0967 -0.6998  0.2627
   9223SM   H9S12378   5.161   1.392   3.490  0.4119 -0.6091  0.1484
   9223SM   H9T12379   5.034   1.518   3.496 -0.1828 -0.0616  2.4826
   9223SM  C10S12380   5.185   1.544   3.634 -0.7654  0.4006  0.0305
   9223SM  H10S12381   5.144   1.643   3.664 -1.1835 -0.1620  1.4155
   9223SM  H10T12382   5.296   1.548   3.646 -0.6459 -3.3789  1.3816
   9223SM  C11S12383   5.148   1.443   3.740 -0.0784  0.3806  0.4404
   9223SM  H11S12384   5.203   1.350   3.713  1.5947  1.5183 -0.2580
   9223SM  H11T12385   5.039   1.423   3.743  0.1180 -0.6011  2.2253
   9223SM  C12S12386   5.187   1.497   3.873 -0.1766 -0.9145  0.6141
   9223SM  H12S12387   5.142   1.598   3.880  0.8398 -0.3144 -1.0298
   9223SM  H12T12388   5.297   1.509   3.869 -0.3247  0.1919 -0.9331
   9223SM  C13S12389   5.149   1.403   3.984  0.5905  0.8584  0.0608
   9223SM  H13S12390   5.176   1.298   3.960  0.8265  0.5683  1.4903
   9223SM  H13T12391   5.040   1.399   4.005  0.2257 -0.9223 -1.8969
   9223SM  C14S12392   5.227   1.444   4.112  0.4410 -0.6662 -0.4018
   9223SM  H14S12393   5.328   1.483   4.088  0.0898  1.3132  1.0842
   9223SM  H14T12394   5.247   1.352   4.170  2.1501  0.4819  0.9404
   9223SM  C15S12395   5.145   1.549   4.186  0.4640  0.1293 -0.6457
   9223SM  H15S12396   5.038   1.520   4.197  0.7079  0.0687  2.7539
   9223SM  H15T12397   5.139   1.637   4.118  0.8307  1.0942  0.5423
   9223SM  C16S12398   5.199   1.565   4.327 -0.4371 -0.1544  0.2201
   9223SM  H16S12399   5.307   1.582   4.308 -0.5861 -0.8607 -1.4722
   9223SM  H16T12400   5.189   1.473   4.389  1.4779 -1.0092 -0.6434
   9223SM  C17S12401   5.126   1.674   4.409 -0.6696  0.0294 -0.4752
   9223SM  H17S12402   5.023   1.645   4.438 -0.7715 -1.0217 -1.8382
   9223SM  H17T12403   5.123   1.760   4.339  0.2152  1.3303  1.0014
   9223SM  C18S12404   5.195   1.725   4.531  0.0282  0.1676 -0.5983
   9223SM  H18S12405   5.216   1.643   4.602 -0.1089 -0.4546 -1.2664
   9223SM  H18T12406   5.125   1.796   4.581  2.1008  1.7600  0.2169
   9223SM  H18U12407   5.288   1.780   4.503  1.8486 -2.3217  0.2809
   9223SM   C1F12408   4.918   1.279   3.132 -0.3485  0.3470  0.3417
   9223SM    OF12409   4.945   1.160   3.115 -0.2055 -0.2841  0.3285
   9223SM   C2F12410   4.803   1.321   3.212 -0.2880 -0.1317  0.2614
   9223SM   H2F12411   4.707   1.280   3.175 -0.6724  0.9172  0.0869
   9223SM   H2G12412   4.795   1.429   3.191  3.2041  0.5978  1.8796
   9223SM   C3F12413   4.826   1.291   3.363  0.4043 -0.3323 -0.1863
   9223SM   H3F12414   4.911   1.351   3.402 -0.0277  0.9098 -1.0783
   9223SM   H3G12415   4.862   1.186   3.371  0.9737 -0.0388  1.4973
   9223SM   C4F12416   4.693   1.308   3.438  0.0257 -0.3252  0.4740
   9223SM   H4F12417   4.632   1.216   3.426  0.7331 -0.8077  0.5109
   9223SM   H4G12418   4.644   1.395   3.391 -0.3301 -0.2101  1.0394
   9223SM   C5F12419   4.710   1.338   3.590 -0.6216  0.2503 -0.2497
   9223SM   H5F12420   4.777   1.272   3.650  0.6897  3.6394  2.3265
   9223SM   H5G12421   4.611   1.317   3.637  0.1144 -0.6681  0.9683
   9223SM   C6F12422   4.745   1.486   3.606 -0.1104  0.5888  0.4477
   9223SM   H6F12423   4.668   1.553   3.563 -1.1679 -0.6079  0.4286
   9223SM   H6G12424   4.841   1.504   3.553  1.4689  2.0379  3.5592
   9223SM   C7F12425   4.775   1.526   3.751 -0.1682 -0.3474 -0.2659
   9223SM   H7F12426   4.861   1.474   3.798  0.4363  0.5170 -0.4002
   9223SM   H7G12427   4.686   1.514   3.817  0.4509  0.9655  0.8543
   9223SM   C8F12428   4.817   1.676   3.759  0.4081  0.0174 -0.1069
   9223SM   H8F12429   4.732   1.741   3.731  1.2807  1.5903  0.7323
   9223SM   H8G12430   4.904   1.697   3.693 -0.5268  0.4328 -1.2333
   9223SM   C9F12431   4.867   1.711   3.897  0.4280  0.3227  0.3050
   9223SM   H9F12432   4.926   1.804   3.886  0.7043  0.0852 -0.2510
   9223SM   H9G12433   4.944   1.636   3.926  2.4432  1.8127 -0.9437
   9223SM  C10F12434   4.759   1.735   4.003  0.0485  0.0835  0.3598
   9223SM  H10F12435   4.711   1.641   4.035  0.5252 -0.5868 -0.8457
   9223SM  H10G12436   4.678   1.806   3.973  0.2885 -0.3110 -1.2787
   9223SM  C11F12437   4.822   1.806   4.120 -0.1957  0.2794 -0.2122
   9223SM  H11F12438   4.869   1.899   4.080  2.4427 -1.7653 -2.2197
   9223SM  H11G12439   4.899   1.750   4.176 -0.1386  1.4703  0.9417
   9223SM  C12F12440   4.713   1.838   4.226  0.1213  0.1053  0.1014
   9223SM  H12F12441   4.652   1.747   4.245  0.7637 -0.5664 -0.9910
   9223SM  H12G12442   4.642   1.911   4.181  2.0191  1.9750  0.0022
   9223SM  C13F12443   4.767   1.897   4.356 -0.4972  0.2266 -0.0713
   9223SM  H13F12444   4.852   1.966   4.336 -0.7063  1.2924  2.4024
   9223SM  H13G12445   4.801   1.827   4.435 -2.1904  1.0058  1.4090
   9223SM  C14F12446   4.656   1.987   4.422  0.0251  0.2507  0.3721
   9223SM  H14F12447   4.561   1.931   4.431  0.6476 -1.2224 -1.3541
   9223SM  H14G12448   4.623   2.071   4.358 -0.0539 -0.1011 -0.0545
   9223SM  C15F12449   4.702   2.041   4.563  0.8022 -0.1175 -0.3504
   9223SM  H15F12450   4.671   2.147   4.570 -1.8691 -0.8466  0.1393
   9223SM  H15G12451   4.811   2.028   4.577  0.7546 -0.4480 -0.2738
   9223SM  C16F12452   4.654   1.965   4.691 -0.3611 -0.0350 -0.7396
   9223SM  H16F12453   4.666   1.856   4.672 -1.9649 -0.9766  2.8367
   9223SM  H16G12454   4.546   1.981   4.714 -0.0322  0.1206  0.7541
   9223SM  C17F12455   4.737   2.003   4.815  0.4772 -0.2847 -0.7347
   9223SM  H17F12456   4.747   2.114   4.815  2.2812 -0.4255 -1.1019
   9223SM  H17G12457   4.830   1.945   4.803  1.0927  0.2849  1.0268
   9223SM  C18F12458   4.658   1.964   4.943  0.5792  0.3490 -0.2807
   9223SM  H18F12459   4.602   1.870   4.927 -0.0205  0.7588 -0.6626
   9223SM  H18G12460   4.572   2.033   4.959 -0.5560 -1.1471  0.3230
   9223SM  C19F12461   4.729   1.974   5.078 -0.0667 -0.1461  1.1234
   9223SM  H19F12462   4.785   1.879   5.086 -0.9238 -0.7348  0.3061
   9223SM  H19G12463   4.654   1.970   5.160 -2.0776 -0.8797 -0.6677
   9223SM  C20F12464   4.813   2.103   5.094 -0.0737 -0.0898  0.2980
   9223SM  H20F12465   4.904   2.078   5.036 -0.1291 -2.6398  1.2145
   9223SM  H20G12466   4.854   2.106   5.197 -1.1677  1.4471  0.7439
   9223SM  C21F12467   4.745   2.234   5.070  0.4283 -0.4265 -0.1207
   9223SM  H21F12468   4.674   2.263   5.150  0.9166  2.1456 -0.5225
   9223SM  H21G12469   4.676   2.236   4.982 -3.0467  1.4227  2.4050
   9223SM  C22F12470   4.848   2.347   5.049 -0.1865  0.5610  0.9782
   9223SM  H22F12471   4.910   2.372   5.137 -0.4710  1.2778  0.9858
   9223SM  H22G12472   4.786   2.438   5.034 -0.9433 -0.0125  0.5355
   9223SM  C23F12473   4.944   2.324   4.932  0.4903  0.0849  0.1371
   9223SM  H23F12474   5.010   2.237   4.951 -0.9052 -1.3103 -1.1223
   9223SM  H23G12475   5.016   2.406   4.912  0.9367 -0.7878 -2.1435
   9223SM  H23H12476   4.893   2.292   4.838  1.1193 -2.6272  0.6530
   9323SM     N12477   7.124   3.749   2.141  0.5037 -0.0756 -0.8709
   9323SM   C1512478   7.169   3.646   2.037 -0.0351 -0.2567  0.1489
   9323SM  H15A12479   7.246   3.583   2.080 -0.3115 -0.1451  0.8149
   9323SM  H15B12480   7.229   3.692   1.959  0.2813 -1.8258 -0.5743
   9323SM  H15C12481   7.087   3.588   1.997 -0.7888  1.2066 -0.4784
   9323SM   C1412482   7.233   3.847   2.173 -0.0327 -0.3615 -0.0361
   9323SM  H14A12483   7.323   3.804   2.213 -0.4805 -1.6014 -0.3347
   9323SM  H14B12484   7.194   3.913   2.250 -1.8174 -2.0877  0.6389
   9323SM  H14C12485   7.259   3.896   2.080 -1.9643 -0.8291 -0.8751
   9323SM   C1312486   7.010   3.835   2.082 -0.1796 -0.5460  0.3411
   9323SM  H13A12487   6.963   3.897   2.157  2.2625 -0.8831  2.3081
   9323SM  H13B12488   6.928   3.777   2.042 -0.7882  0.6225 -0.1323
   9323SM  H13C12489   7.057   3.897   2.008  2.8550 -0.2890  2.2797
   9323SM   C1212490   7.080   3.666   2.263 -0.0237 -0.0516  0.1247
   9323SM  H12A12491   7.171   3.634   2.310  0.6166 -0.8017 -1.5356
   9323SM  H12B12492   7.017   3.584   2.231  2.6575 -1.8619 -0.7807
   9323SM   C1112493   7.002   3.754   2.368 -0.0898  0.1540 -0.5774
   9323SM  H11A12494   6.959   3.680   2.438 -0.8963  0.9482 -0.2121
   9323SM  H11B12495   6.918   3.815   2.326 -2.2623 -2.9042 -0.9799
   9323SM     P12496   7.188   3.779   2.552 -0.5137 -0.2241 -0.0442
   9323SM   O1312497   7.218   3.635   2.542  1.2736 -0.5422  0.1755
   9323SM   O1412498   7.308   3.861   2.565  0.3067  0.1156 -0.6629
   9323SM   O1112499   7.104   3.807   2.686  0.4342  0.2033 -0.1140
   9323SM   O1212500   7.098   3.839   2.442  0.2096 -0.3089  0.3038
   9323SM   C1S12501   7.040   3.934   2.692 -0.1562  0.0696 -0.0590
   9323SM   H1S12502   6.978   3.958   2.603  1.3552  1.7058 -0.7536
   9323SM   H1T12503   7.108   4.021   2.705 -2.1591  1.5070  1.6780
   9323SM    NF12504   6.899   4.077   2.826 -0.0914 -0.0760  0.4902
   9323SM   HNF12505   6.941   4.143   2.888  1.6450  0.6610 -1.3475
   9323SM   C2S12506   6.948   3.944   2.823  0.2115 -0.2851  0.0325
   9323SM   H2S12507   6.865   3.871   2.813  1.3411 -1.3139 -2.6428
   9323SM   C3S12508   7.032   3.906   2.951 -0.0380 -0.6037  0.2177
   9323SM   H3S12509   7.101   3.991   2.970  1.7735 -2.4202  2.4125
   9323SM    O312510   7.104   3.784   2.944  0.3920 -0.0687 -0.4671
   9323SM   HO312511   7.117   3.767   2.851 -1.8788  1.0731 -1.0682
   9323SM   C4S12512   6.937   3.892   3.059 -0.1121 -0.6672 -0.2258
   9323SM   H4S12513   6.882   3.798   3.059  0.7477 -1.2225  1.7520
   9323SM   C5S12514   6.920   3.977   3.162  0.4784 -0.2486 -0.2464
   9323SM   H5S12515   6.991   4.060   3.177 -0.8577  1.3392 -2.2882
   9323SM   C6S12516   6.824   3.960   3.271  0.5284  0.3566 -0.2258
   9323SM   H6S12517   6.808   4.064   3.306  1.0469 -0.5050  2.7995
   9323SM   H6T12518   6.872   3.907   3.356  1.9327 -1.5170 -2.0463
   9323SM   C7S12519   6.691   3.902   3.230  0.4986  0.5194 -0.7774
   9323SM   H7S12520   6.697   3.799   3.188  0.9342  0.7675 -1.3365
   9323SM   H7T12521   6.644   3.956   3.145 -1.8590 -0.9718 -0.5140
   9323SM   C8S12522   6.586   3.892   3.347  0.5731  0.3011  0.2276
   9323SM   H8S12523   6.630   3.825   3.424 -0.2117 -0.4389  0.0350
   9323SM   H8T12524   6.489   3.852   3.312  0.0880  1.1415  0.5672
   9323SM   C9S12525   6.562   4.026   3.417  0.4779 -0.0181  0.3949
   9323SM   H9S12526   6.521   4.099   3.344  1.1296 -0.7601 -0.7434
   9323SM   H9T12527   6.661   4.065   3.448  0.2413  0.9179  0.0058
   9323SM  C10S12528   6.461   4.024   3.535 -1.1093 -0.4514 -0.2074
   9323SM  H10S12529   6.529   3.972   3.606  1.2935 -0.6248 -2.5059
   9323SM  H10T12530   6.374   3.958   3.515 -2.4551  1.0153  0.5647
   9323SM  C11S12531   6.426   4.165   3.581 -0.3218  0.0753  0.0196
   9323SM  H11S12532   6.359   4.216   3.509  0.0352 -0.3311 -0.6008
   9323SM  H11T12533   6.525   4.216   3.587 -0.1374 -0.3084  0.3097
   9323SM  C12S12534   6.361   4.182   3.718  0.2514  0.6195  0.0676
   9323SM  H12S12535   6.265   4.126   3.715  0.3139  0.3527  1.8123
   9323SM  H12T12536   6.326   4.287   3.724  0.1317  0.5132  1.9427
   9323SM  C13S12537   6.449   4.147   3.839  0.1197  0.4375  0.2731
   9323SM  H13S12538   6.534   4.218   3.826 -2.0486  3.1888  0.2096
   9323SM  H13T12539   6.505   4.051   3.844  2.1011  1.6035  2.7727
   9323SM  C14S12540   6.383   4.167   3.978 -0.0083  0.1867 -0.4274
   9323SM  H14S12541   6.359   4.273   4.001 -0.3538 -0.4758  2.6311
   9323SM  H14T12542   6.463   4.156   4.054  1.4618 -0.0241 -1.9304
   9323SM  C15S12543   6.263   4.078   3.987  0.2977 -0.3473  0.1654
   9323SM  H15S12544   6.178   4.122   3.931  0.5583 -0.8537 -0.6469
   9323SM  H15T12545   6.293   3.984   3.937 -0.0513  0.1679 -1.0425
   9323SM  C16S12546   6.216   4.063   4.135  0.0460  0.1622 -0.2547
   9323SM  H16S12547   6.195   4.158   4.188  1.8310  0.7695 -0.5690
   9323SM  H16T12548   6.296   4.016   4.195 -0.2819  0.7237  0.6491
   9323SM  C17S12549   6.089   3.972   4.147  0.0588 -0.3558 -0.0054
   9323SM  H17S12550   6.115   3.876   4.099  0.2810 -0.7523  0.8835
   9323SM  H17T12551   6.006   4.010   4.084  1.2582  1.8519 -0.3389
   9323SM  C18S12552   6.031   3.953   4.286  0.5294 -0.0218 -0.0502
   9323SM  H18S12553   5.950   3.877   4.278  0.0264  0.5641 -0.5985
   9323SM  H18T12554   5.981   4.051   4.304  1.9327  0.5766  0.7879
   9323SM  H18U12555   6.102   3.914   4.362 -1.4294 -2.2119  0.7845
   9323SM   C1F12556   6.814   4.125   2.733  0.5173 -0.3439 -0.4275
   9323SM    OF12557   6.760   4.059   2.645  0.3241 -0.3453 -0.1754
   9323SM   C2F12558   6.787   4.273   2.736  0.5206  0.5069  0.4178
   9323SM   H2F12559   6.828   4.325   2.646 -2.5976  2.4181 -0.0491
   9323SM   H2G12560   6.837   4.323   2.821  0.9202 -0.5987  0.8525
   9323SM   C3F12561   6.633   4.303   2.727  0.0984 -0.2375 -0.7984
   9323SM   H3F12562   6.585   4.274   2.631 -2.5918 -0.4429  0.5210
   9323SM   H3G12563   6.644   4.413   2.727  1.9262 -0.3641  0.7925
   9323SM   C4F12564   6.547   4.261   2.848 -0.6794 -0.1975 -0.2825
   9323SM   H4F12565   6.556   4.150   2.851  2.9762 -0.0483 -0.6690
   9323SM   H4G12566   6.442   4.294   2.840 -0.3976  0.5643 -0.9072
   9323SM   C5F12567   6.597   4.315   2.985 -0.7081 -0.8040  0.0015
   9323SM   H5F12568   6.603   4.426   2.994  0.5677 -0.7884 -0.7059
   9323SM   H5G12569   6.702   4.285   3.007  0.4547  2.0327 -1.1755
   9323SM   C6F12570   6.499   4.269   3.099  0.4406 -0.2571  0.1592
   9323SM   H6F12571   6.524   4.166   3.134  0.5171 -0.7250 -1.2074
   9323SM   H6G12572   6.400   4.251   3.052  0.4871 -3.1168  0.9681
   9323SM   C7F12573   6.500   4.358   3.227 -0.1400 -0.3033 -0.8556
   9323SM   H7F12574   6.439   4.311   3.307 -1.2871  0.3764 -1.3074
   9323SM   H7G12575   6.449   4.455   3.212  0.5436  0.0946 -0.6577
   9323SM   C8F12576   6.634   4.376   3.297 -0.0944 -0.2875 -0.2560
   9323SM   H8F12577   6.703   4.430   3.229 -0.8784  3.6236  1.8061
   9323SM   H8G12578   6.692   4.282   3.312  0.1442  0.0819  1.3108
   9323SM   C9F12579   6.638   4.448   3.427 -0.1452 -0.0713  0.8837
   9323SM   H9F12580   6.570   4.394   3.497  1.3126 -1.3558  1.3462
   9323SM   H9G12581   6.593   4.549   3.415 -0.4262 -0.2553  0.3950
   9323SM  C10F12582   6.778   4.457   3.484  0.2866  0.4483  0.4690
   9323SM  H10F12583   6.851   4.492   3.407  1.9471 -2.6585  0.4934
   9323SM  H10G12584   6.823   4.361   3.517 -0.1233 -0.4441 -1.3866
   9323SM  C11F12585   6.787   4.553   3.605  0.3587  0.6374  0.1132
   9323SM  H11F12586   6.713   4.634   3.589  0.4409  1.0134  1.4676
   9323SM  H11G12587   6.889   4.595   3.617  0.4513  0.4459  0.0100
   9323SM  C12F12588   6.764   4.478   3.749 -0.3529 -0.1728  0.1252
   9323SM  H12F12589   6.848   4.406   3.759 -0.3208 -0.4030 -1.6257
   9323SM  H12G12590   6.663   4.434   3.742 -0.2111 -0.4769 -0.0285
   9323SM  C13F12591   6.756   4.579   3.859  0.4951 -0.7399 -0.1140
   9323SM  H13F12592   6.688   4.656   3.815  1.5755  0.5716  0.4257
   9323SM  H13G12593   6.851   4.633   3.880 -0.2115  0.9844 -1.0666
   9323SM  C14F12594   6.684   4.543   3.991  0.0366 -0.1299 -0.4629
   9323SM  H14F12595   6.741   4.461   4.038  0.5360  0.5831  0.2064
   9323SM  H14G12596   6.581   4.514   3.960 -0.4324  1.3477 -0.4025
   9323SM  C15F12597   6.682   4.674   4.074 -0.1044  0.5670 -0.3155
   9323SM  H15F12598   6.664   4.755   4.000 -0.1530  0.0493 -0.8803
   9323SM  H15G12599   6.786   4.697   4.108  0.7156 -0.3802 -2.0347
   9323SM  C16F12600   6.589   4.669   4.196 -0.2182 -0.4577  0.2940
   9323SM  H16F12601   6.496   4.628   4.152  0.4677  1.2057 -2.9818
   9323SM  H16G12602   6.572   4.771   4.237  1.6553 -0.6731  1.7767
   9323SM  C17F12603   6.631   4.579   4.310 -0.2132 -0.2875 -0.4690
   9323SM  H17F12604   6.737   4.606   4.333 -0.4727  0.9950 -0.6806
   9323SM  H17G12605   6.633   4.471   4.284  2.2128 -0.5373  0.4935
   9323SM  C18F12606   6.533   4.585   4.435  0.1963 -0.7718  0.6463
   9323SM  H18F12607   6.432   4.553   4.401  1.2061 -2.3753 -1.0279
   9323SM  H18G12608   6.523   4.692   4.464 -1.5978 -0.2188 -1.7438
   9323SM  C19F12609   6.590   4.493   4.544  0.0754 -0.4151 -0.6300
   9323SM  H19F12610   6.693   4.527   4.567  0.2228 -1.9504  1.3097
   9323SM  H19G12611   6.605   4.384   4.529 -0.0631 -0.4705 -0.3809
   9323SM  C20F12612   6.504   4.499   4.672  0.5141 -0.3628  0.2841
   9323SM  H20F12613   6.446   4.593   4.681  0.7553 -0.2851  1.2103
   9323SM  H20G12614   6.572   4.484   4.759 -1.2368 -0.3659  1.7368
   9323SM  C21F12615   6.399   4.390   4.692 -0.6394  0.8080 -0.8108
   9323SM  H21F12616   6.447   4.297   4.654  0.2685  1.6999 -1.9531
   9323SM  H21G12617   6.312   4.401   4.623 -1.4020  0.4154  0.0686
   9323SM  C22F12618   6.357   4.364   4.834 -0.5810  0.7847  0.9209
   9323SM  H22F12619   6.435   4.313   4.894  0.4440 -0.4090 -1.2730
   9323SM  H22G12620   6.278   4.286   4.836 -0.2902  0.4877  0.9226
   9323SM  C23F12621   6.320   4.492   4.910  0.5617  0.1614  0.3347
   9323SM  H23F12622   6.275   4.472   5.010 -0.2193  3.0154  0.6541
   9323SM  H23G12623   6.239   4.543   4.853  0.6312 -0.8876 -0.7463
   9323SM  H23H12624   6.404   4.565   4.916  1.8672 -1.1281 -1.4362
   9423SM     N12625   6.230   7.339   2.125  0.4963  0.1193 -0.0420
   9423SM   C1512626   6.293   7.208   2.092 -1.1303  0.3994  0.1155
   9423SM  H15A12627   6.392   7.221   2.049 -0.1815  1.9069  2.5876
   9423SM  H15B12628   6.225   7.154   2.027 -1.7798  1.4947 -0.1367
   9423SM  H15C12629   6.301   7.143   2.178 -2.3871  1.1240  0.7947
   9423SM   C1412630   6.216   7.410   1.990 -0.0084  0.3865 -0.8323
   9423SM  H14A12631   6.151   7.357   1.923  0.0473 -1.0354  0.1934
   9423SM  H14B12632   6.312   7.405   1.939  0.1601 -1.2390 -0.4000
   9423SM  H14C12633   6.189   7.514   1.999  0.6094  0.6007 -1.3490
   9423SM   C1312634   6.091   7.318   2.180  0.5151 -0.3755  0.0898
   9423SM  H13A12635   6.030   7.265   2.108 -0.6220  0.1291  0.6631
   9423SM  H13B12636   6.052   7.418   2.180  0.8206 -0.2230 -1.6940
   9423SM  H13C12637   6.088   7.282   2.282  0.4996  1.7911  0.9042
   9423SM   C1212638   6.306   7.418   2.236 -0.4857  0.1572 -0.3087
   9423SM  H12A12639   6.411   7.409   2.212 -0.4882 -2.0124  0.3022
   9423SM  H12B12640   6.288   7.377   2.334  0.2930 -0.7750 -0.5330
   9423SM   C1112641   6.278   7.573   2.259 -0.6398  0.7344 -0.5029
   9423SM  H11A12642   6.295   7.633   2.167  3.3866 -0.0328 -0.4364
   9423SM  H11B12643   6.347   7.621   2.332 -1.2972  0.0269  0.6170
   9423SM     P12644   6.112   7.591   2.453  0.1824  0.0657 -0.8127
   9423SM   O1312645   5.979   7.655   2.457 -0.6542 -0.5399 -0.2748
   9423SM   O1412646   6.132   7.457   2.508  0.0867  0.0507  0.6473
   9423SM   O1112647   6.208   7.689   2.519  0.4842  0.5011  0.0576
   9423SM   O1212648   6.146   7.591   2.302  0.2813 -0.3727  0.3190
   9423SM   C1S12649   6.195   7.731   2.652  0.6760  0.0803  0.7164
   9423SM   H1S12650   6.150   7.651   2.715  1.2744 -0.6699  0.2110
   9423SM   H1T12651   6.133   7.823   2.647  1.7358  0.7436 -1.9179
   9423SM    NF12652   6.301   7.822   2.849 -0.7716  0.5510 -0.1989
   9423SM   HNF12653   6.292   7.922   2.853 -0.0232  0.7530 -2.0576
   9423SM   C2S12654   6.323   7.768   2.720 -0.7945 -0.2782  0.4722
   9423SM   H2S12655   6.373   7.670   2.739 -0.4572 -0.1546  0.2283
   9423SM   C3S12656   6.413   7.865   2.646  0.3731 -0.6963  0.4643
   9423SM   H3S12657   6.381   7.970   2.627  1.8200 -0.2142  0.5537
   9423SM    O312658   6.443   7.822   2.511  0.1050  0.5249  0.2256
   9423SM   HO312659   6.368   7.770   2.480 -1.7906  2.9372  0.5036
   9423SM   C4S12660   6.539   7.868   2.728 -0.5866  0.0980 -0.2601
   9423SM   H4S12661   6.534   7.928   2.821  2.1400  1.2913 -0.8030
   9423SM   C5S12662   6.655   7.809   2.700  0.1647  0.1028 -0.1076
   9423SM   H5S12663   6.666   7.748   2.609 -0.4038  0.5475 -0.4885
   9423SM   C6S12664   6.786   7.819   2.779 -0.4064 -0.4133  0.2202
   9423SM   H6S12665   6.847   7.901   2.734 -0.3687 -0.3654  0.3561
   9423SM   H6T12666   6.848   7.729   2.763 -1.1516 -0.9895  0.5576
   9423SM   C7S12667   6.771   7.844   2.933 -0.4194  0.7162 -0.3508
   9423SM   H7S12668   6.715   7.940   2.941  0.9119  1.5387 -0.4424
   9423SM   H7T12669   6.864   7.879   2.983  0.0160  1.3554 -1.5684
   9423SM   C8S12670   6.704   7.721   3.008 -0.8279  0.0528  0.1592
   9423SM   H8S12671   6.755   7.623   2.996 -0.5174  0.3254 -0.8831
   9423SM   H8T12672   6.609   7.701   2.954 -0.9649  3.1387 -0.9705
   9423SM   C9S12673   6.692   7.758   3.157  1.1170 -0.4451 -0.0022
   9423SM   H9S12674   6.653   7.862   3.164 -0.0444 -0.8613 -0.0055
   9423SM   H9T12675   6.794   7.761   3.200 -0.1627 -1.9113  3.4869
   9423SM  C10S12676   6.621   7.644   3.234  0.1141  0.6211 -0.2457
   9423SM  H10S12677   6.635   7.542   3.193 -0.9778 -0.1206  1.1631
   9423SM  H10T12678   6.519   7.680   3.209  0.5276  0.5573 -2.2099
   9423SM  C11S12679   6.658   7.651   3.386  0.4462 -0.0043 -0.0434
   9423SM  H11S12680   6.632   7.754   3.418 -2.4887  0.2289 -2.6833
   9423SM  H11T12681   6.767   7.633   3.398  0.1340 -1.3143  1.0215
   9423SM  C12S12682   6.566   7.557   3.467  0.3161 -0.4833  0.4804
   9423SM  H12S12683   6.603   7.456   3.441  3.2201  0.5624  0.2361
   9423SM  H12T12684   6.466   7.569   3.420 -1.3047 -0.6930  3.6078
   9423SM  C13S12685   6.563   7.590   3.617  0.2895  0.3060 -0.8815
   9423SM  H13S12686   6.515   7.689   3.628  0.5962  0.6255 -2.2779
   9423SM  H13T12687   6.667   7.603   3.656  0.6851  1.5582 -2.2581
   9423SM  C14S12688   6.495   7.484   3.711  0.4466 -0.2741  0.7954
   9423SM  H14S12689   6.540   7.384   3.691  0.6138 -0.1163  0.3743
   9423SM  H14T12690   6.385   7.484   3.691  0.4323  0.1021  0.8755
   9423SM  C15S12691   6.512   7.524   3.861  0.2783 -0.2863  0.3753
   9423SM  H15S12692   6.461   7.622   3.871  2.3277  1.2042 -2.3946
   9423SM  H15T12693   6.621   7.530   3.882  0.0084 -0.7174  1.9905
   9423SM  C16S12694   6.439   7.419   3.959  0.0671  0.9926  0.3307
   9423SM  H16S12695   6.479   7.315   3.958 -1.1771  0.4999  0.3630
   9423SM  H16T12696   6.332   7.417   3.930 -0.1921 -0.1456  1.2826
   9423SM  C17S12697   6.445   7.461   4.104 -0.4384 -0.1067 -0.8078
   9423SM  H17S12698   6.392   7.558   4.117  1.1033  0.3629  3.7395
   9423SM  H17T12699   6.554   7.481   4.119 -0.0258 -1.6283 -1.5915
   9423SM  C18S12700   6.391   7.370   4.212 -0.2662 -0.4554  0.4088
   9423SM  H18S12701   6.285   7.340   4.194 -0.3804 -1.2846  2.1998
   9423SM  H18T12702   6.382   7.431   4.304 -1.9531 -1.3837  0.9090
   9423SM  H18U12703   6.458   7.283   4.227  1.5904  0.6560 -1.0242
   9423SM   C1F12704   6.251   7.748   2.948 -0.3424  0.3283 -0.3864
   9423SM    OF12705   6.248   7.623   2.940  0.0178 -0.0092 -0.0848
   9423SM   C2F12706   6.191   7.828   3.065 -0.2145  0.5348  0.0567
   9423SM   H2F12707   6.091   7.869   3.042  0.0548  1.2551  0.1569
   9423SM   H2G12708   6.253   7.917   3.085 -0.2060  0.5469 -0.0219
   9423SM   C3F12709   6.190   7.744   3.196 -0.2488  0.5995  0.2285
   9423SM   H3F12710   6.297   7.715   3.207 -0.3697  0.3219  0.6974
   9423SM   H3G12711   6.144   7.645   3.173 -1.6332  0.6250  2.5343
   9423SM   C4F12712   6.135   7.813   3.321  0.6984  0.3435  0.6772
   9423SM   H4F12713   6.028   7.839   3.304  1.0502  1.4284  0.0046
   9423SM   H4G12714   6.197   7.902   3.347  1.3200 -0.1416  0.8809
   9423SM   C5F12715   6.150   7.722   3.437  0.0637 -0.6280 -0.5673
   9423SM   H5F12716   6.255   7.697   3.463  0.4809  0.3015 -1.3186
   9423SM   H5G12717   6.094   7.626   3.436  1.7612 -1.6973  0.7156
   9423SM   C6F12718   6.098   7.786   3.571 -0.2755 -0.4572 -0.1975
   9423SM   H6F12719   6.019   7.857   3.538  0.6728 -0.6358 -3.1904
   9423SM   H6G12720   6.179   7.845   3.620  0.5778 -0.6665 -1.2981
   9423SM   C7F12721   6.044   7.684   3.673 -0.1031 -0.2108  0.6482
   9423SM   H7F12722   6.121   7.605   3.685 -0.2999 -0.2834  1.5597
   9423SM   H7G12723   5.953   7.642   3.625 -0.4156 -0.3033  1.3078
   9423SM   C8F12724   6.002   7.744   3.812  0.1522  0.2018  0.3505
   9423SM   H8F12725   5.895   7.775   3.814  0.1615  0.2571  2.1599
   9423SM   H8G12726   6.068   7.833   3.825  0.1721  0.1669  0.4874
   9423SM   C9F12727   6.017   7.636   3.929  0.0271 -0.9639  0.6285
   9423SM   H9F12728   5.998   7.703   4.016  0.0319  0.5794 -0.5285
   9423SM   H9G12729   6.121   7.595   3.935 -0.0569 -1.2466  0.1687
   9423SM  C10F12730   5.918   7.521   3.911  0.0440 -0.1738 -1.0293
   9423SM  H10F12731   5.946   7.478   3.813  2.3717  0.9860 -0.9427
   9423SM  H10G12732   5.813   7.559   3.915  0.5259  1.1372  1.4732
   9423SM  C11F12733   5.936   7.420   4.029 -0.7175  0.5822  0.4778
   9423SM  H11F12734   6.047   7.421   4.039 -0.8581  1.7895  2.3054
   9423SM  H11G12735   5.905   7.316   4.006  2.4604 -0.9121  2.2412
   9423SM  C12F12736   5.883   7.469   4.168  0.2052  0.2604  0.7937
   9423SM  H12F12737   5.774   7.487   4.154 -0.2443 -1.8433  1.1998
   9423SM  H12G12738   5.924   7.568   4.198 -1.3219  1.8286 -1.9328
   9423SM  C13F12739   5.909   7.361   4.275 -0.3391 -0.5641 -0.1047
   9423SM  H13F12740   6.019   7.354   4.287 -0.3761 -0.2433  0.4964
   9423SM  H13G12741   5.861   7.265   4.250 -1.0883 -0.7455  1.8357
   9423SM  C14F12742   5.858   7.411   4.407  0.0466 -0.3137  0.4788
   9423SM  H14F12743   5.747   7.403   4.404  0.1449 -1.7373 -0.3975
   9423SM  H14G12744   5.892   7.516   4.419 -0.8771  0.0490  0.0339
   9423SM  C15F12745   5.906   7.330   4.524 -0.0258  0.1772 -0.8644
   9423SM  H15F12746   6.016   7.332   4.541 -0.2328  3.2950  0.8715
   9423SM  H15G12747   5.876   7.226   4.500 -0.5262  0.2325 -0.4877
   9423SM  C16F12748   5.837   7.365   4.657  0.0634 -1.1035 -0.2160
   9423SM  H16F12749   5.729   7.340   4.649 -0.5301  0.8185  1.0871
   9423SM  H16G12750   5.828   7.474   4.678  1.9070 -1.1075  0.7044
   9423SM  C17F12751   5.906   7.302   4.784  0.4694  0.7437 -0.2913
   9423SM  H17F12752   6.014   7.328   4.790  1.8630 -3.9252 -0.8117
   9423SM  H17G12753   5.906   7.192   4.768 -0.1851  0.7013  0.0017
   9423SM  C18F12754   5.833   7.328   4.913  0.7781 -0.5607 -0.4940
   9423SM  H18F12755   5.742   7.266   4.902  1.8226 -2.5336  1.0449
   9423SM  H18G12756   5.807   7.435   4.909 -1.2103 -0.8580  1.8280
   9423SM  C19F12757   5.919   7.274   5.025  0.0790  0.1408  0.4978
   9423SM  H19F12758   6.024   7.307   5.005  0.4885 -0.9567  0.7667
   9423SM  H19G12759   5.917   7.163   5.025  1.1046  0.0223 -2.4368
   9423SM  C20F12760   5.871   7.325   5.157  1.0355 -0.4122  0.2357
   9423SM  H20F12761   5.760   7.314   5.162  0.8971  0.4672 -0.6688
   9423SM  H20G12762   5.891   7.433   5.173  1.6152 -0.8677  3.2982
   9423SM  C21F12763   5.935   7.232   5.260  0.4048 -0.0265 -0.9049
   9423SM  H21F12764   6.045   7.237   5.246  0.3526  1.0195 -0.9845
   9423SM  H21G12765   5.893   7.129   5.249  0.9573 -0.4265  0.5689
   9423SM  C22F12766   5.900   7.272   5.400  0.1063 -0.0893  0.3427
   9423SM  H22F12767   5.803   7.327   5.401 -0.8665 -1.6408 -1.9077
   9423SM  H22G12768   5.980   7.340   5.436 -0.3109  0.4871  0.2020
   9423SM  C23F12769   5.894   7.157   5.501  0.2012  0.4811  0.2751
   9423SM  H23F12770   5.904   7.186   5.608  0.7307  2.0383 -0.1683
   9423SM  H23G12771   5.957   7.070   5.473 -0.5816  0.3006 -0.9896
   9423SM  H23H12772   5.795   7.107   5.499  0.5874 -0.2628 -0.7408
   9523SM     N12773   1.630   1.683   2.479 -0.0767 -0.6709  0.6946
   9523SM   C1512774   1.761   1.650   2.411  0.2279  0.0382  0.1206
   9523SM  H15A12775   1.850   1.696   2.451 -0.6268  0.5156  1.5306
   9523SM  H15B12776   1.753   1.679   2.307 -0.8003  0.1448  0.2286
   9523SM  H15C12777   1.774   1.543   2.423  0.8757  0.1589  0.5475
   9523SM   C1412778   1.602   1.830   2.448 -0.0886  0.0500  0.6887
   9523SM  H14A12779   1.687   1.891   2.476  0.8820 -0.7085 -0.5527
   9523SM  H14B12780   1.519   1.879   2.498  0.5244  1.5676  0.2764
   9523SM  H14C12781   1.592   1.862   2.346 -0.4187  6.3925  2.2604
   9523SM   C1312782   1.526   1.592   2.423  0.2655  0.2713  0.5427
   9523SM  H13A12783   1.540   1.490   2.456 -0.1000  0.4276  1.1868
   9523SM  H13B12784   1.537   1.585   2.316 -0.1108 -0.0046  0.5219
   9523SM  H13C12785   1.426   1.628   2.443 -0.3257 -0.1505 -1.4919
   9523SM   C1212786   1.637   1.661   2.628 -0.3245 -0.1942 -0.5048
   9523SM  H12A12787   1.538   1.662   2.670  0.2395 -0.5735  0.8677
   9523SM  H12B12788   1.691   1.741   2.676  1.9071 -0.9532 -1.6117
   9523SM   C1112789   1.705   1.525   2.676 -0.3152 -0.4138 -0.1647
   9523SM  H11A12790   1.717   1.526   2.787 -1.1973 -0.2548 -0.0694
   9523SM  H11B12791   1.806   1.525   2.629 -0.5093  1.0969 -0.6380
   9523SM     P12792   1.505   1.355   2.697 -0.3404 -0.1006 -0.0354
   9523SM   O1312793   1.391   1.439   2.677 -0.3486  0.0861 -0.1855
   9523SM   O1412794   1.489   1.213   2.655  0.2596  0.7891 -0.0241
   9523SM   O1112795   1.543   1.365   2.844 -0.0168 -0.1377 -0.1918
   9523SM   O1212796   1.635   1.412   2.624 -0.1411  0.0003  0.7674
   9523SM   C1S12797   1.643   1.285   2.906 -0.4542 -0.0841  0.2606
   9523SM   H1S12798   1.741   1.333   2.888 -1.0934  0.5269 -2.0173
   9523SM   H1T12799   1.647   1.180   2.867  0.4381 -0.5627  1.5819
   9523SM    NF12800   1.738   1.266   3.133 -0.0724  0.2654  0.3289
   9523SM   HNF12801   1.740   1.175   3.173 -1.6240 -1.0437 -2.2604
   9523SM   C2S12802   1.614   1.290   3.058 -0.2321  0.5114  0.4293
   9523SM   H2S12803   1.589   1.395   3.087  1.5969  1.3556 -0.8783
   9523SM   C3S12804   1.505   1.192   3.095 -0.3991  0.4026 -0.0605
   9523SM   H3S12805   1.536   1.089   3.070  1.0300  0.5089  1.1403
   9523SM    O312806   1.387   1.209   3.022 -0.4117 -0.5094 -0.0583
   9523SM   HO312807   1.403   1.292   2.977 -1.7705  0.7991  1.7043
   9523SM   C4S12808   1.481   1.195   3.243 -0.5506 -0.4186  0.1361
   9523SM   H4S12809   1.550   1.128   3.297  1.5338 -0.2365 -2.1273
   9523SM   C5S12810   1.383   1.255   3.313 -0.2365 -0.4542 -0.9962
   9523SM   H5S12811   1.307   1.301   3.249 -0.6149 -0.8268 -0.8165
   9523SM   C6S12812   1.360   1.251   3.461  0.2167  0.5588 -0.0314
   9523SM   H6S12813   1.401   1.333   3.525 -1.5324  0.4319  1.3220
   9523SM   H6T12814   1.401   1.156   3.502  1.1188  1.1348  0.4493
   9523SM   C7S12815   1.209   1.242   3.481  0.3691 -1.3882  0.0523
   9523SM   H7S12816   1.161   1.162   3.420  0.7799 -0.5842 -1.3820
   9523SM   H7T12817   1.163   1.339   3.454  2.4309  0.0907  1.5681
   9523SM   C8S12818   1.164   1.236   3.630  0.1739  0.3209  0.4771
   9523SM   H8S12819   1.167   1.129   3.658 -2.1762 -0.2652 -1.1883
   9523SM   H8T12820   1.064   1.283   3.644 -0.6228 -0.3476 -2.3628
   9523SM   C9S12821   1.259   1.308   3.733  0.1476 -0.2447 -0.0981
   9523SM   H9S12822   1.262   1.418   3.714 -0.4958 -0.0580  0.8227
   9523SM   H9T12823   1.358   1.262   3.710 -0.5716 -2.6454  1.3095
   9523SM  C10S12824   1.212   1.295   3.882  0.8452 -0.3691 -0.2039
   9523SM  H10S12825   1.201   1.186   3.897  0.5775 -0.4024 -0.6444
   9523SM  H10T12826   1.110   1.336   3.900  0.9468  1.0296 -2.4821
   9523SM  C11S12827   1.312   1.335   3.988 -0.1935  0.2609  0.0475
   9523SM  H11S12828   1.333   1.441   3.963 -0.3704  0.3080  0.0968
   9523SM  H11T12829   1.414   1.299   3.963  0.3793  1.3893  0.6647
   9523SM  C12S12830   1.259   1.304   4.127 -0.6757  0.2394  0.0938
   9523SM  H12S12831   1.268   1.193   4.131 -2.2990  0.1353  1.8079
   9523SM  H12T12832   1.153   1.334   4.137 -0.2763  1.0327  2.6039
   9523SM  C13S12833   1.339   1.368   4.246  0.2053  0.0830 -0.2424
   9523SM  H13S12834   1.322   1.477   4.238 -0.7746 -0.1180 -1.3534
   9523SM  H13T12835   1.449   1.355   4.243  0.5588  2.6070 -0.8249
   9523SM  C14S12836   1.290   1.324   4.386  0.1943  0.3073 -0.4285
   9523SM  H14S12837   1.304   1.218   4.414  1.6538  0.9000  1.3836
   9523SM  H14T12838   1.181   1.341   4.378 -0.1359 -1.0227  0.8477
   9523SM  C15S12839   1.360   1.411   4.481 -0.0243 -0.0214 -0.4196
   9523SM  H15S12840   1.323   1.515   4.483 -2.7309 -0.8767 -1.0899
   9523SM  H15T12841   1.467   1.413   4.453  1.2337  0.2555  3.7255
   9523SM  C16S12842   1.345   1.358   4.624  0.1598 -0.2154  0.1364
   9523SM  H16S12843   1.411   1.269   4.623  1.6655  0.8573 -0.6249
   9523SM  H16T12844   1.250   1.308   4.652  0.2003 -0.4348 -0.1243
   9523SM  C17S12845   1.391   1.460   4.731 -0.2687  0.1744 -0.0779
   9523SM  H17S12846   1.345   1.559   4.710 -0.1699  0.8564  2.5524
   9523SM  H17T12847   1.501   1.476   4.723 -0.1581 -0.7237 -0.5011
   9523SM  C18S12848   1.350   1.421   4.872 -0.2650  0.6380 -0.1857
   9523SM  H18S12849   1.393   1.321   4.895 -0.5940  0.8597  1.4841
   9523SM  H18T12850   1.239   1.420   4.873 -0.3103 -0.7285  3.1036
   9523SM  H18U12851   1.392   1.493   4.946 -0.5934  1.5096 -0.8282
   9523SM   C1F12852   1.843   1.346   3.137 -0.6724 -0.6266 -0.4596
   9523SM    OF12853   1.835   1.461   3.096  0.7651  0.3044 -0.0446
   9523SM   C2F12854   1.976   1.299   3.186 -0.0907 -0.3628 -0.6269
   9523SM   H2F12855   2.052   1.327   3.110 -0.6053 -1.2984 -1.5105
   9523SM   H2G12856   1.964   1.189   3.188 -0.6445 -0.2971  0.0060
   9523SM   C3F12857   2.020   1.360   3.323 -0.1802 -0.4759  0.3223
   9523SM   H3F12858   2.030   1.470   3.328 -0.1670 -0.3371 -1.8234
   9523SM   H3G12859   2.119   1.315   3.348 -1.2224 -1.7759  2.4126
   9523SM   C4F12860   1.915   1.323   3.436 -0.0434  0.5007 -0.2296
   9523SM   H4F12861   1.915   1.213   3.456  0.5082  0.6652  0.7458
   9523SM   H4G12862   1.813   1.361   3.417  0.2174  0.4850 -1.7968
   9523SM   C5F12863   1.950   1.381   3.577  0.2644 -0.0301 -0.0016
   9523SM   H5F12864   1.886   1.326   3.650  3.5149 -1.9426  1.6190
   9523SM   H5G12865   1.936   1.492   3.576  3.6979  0.5216 -2.0428
   9523SM   C6F12866   2.085   1.339   3.611  0.2776  0.1692 -0.3587
   9523SM   H6F12867   2.152   1.425   3.588  0.6068  0.3425  1.1513
   9523SM   H6G12868   2.115   1.253   3.547 -1.4660 -0.6719 -0.0980
   9523SM   C7F12869   2.113   1.301   3.755  0.2058  0.8059 -0.0997
   9523SM   H7F12870   2.039   1.226   3.790 -0.4538  1.8199  0.7352
   9523SM   H7G12871   2.096   1.390   3.818  0.5121  0.0662  1.0647
   9523SM   C8F12872   2.259   1.250   3.776 -0.6143  0.3096  0.0282
   9523SM   H8F12873   2.320   1.328   3.726  1.8527 -2.4996 -1.6557
   9523SM   H8G12874   2.274   1.163   3.709  0.7524 -1.3489  2.3612
   9523SM   C9F12875   2.301   1.232   3.926  0.2640  0.0684 -0.0249
   9523SM   H9F12876   2.248   1.137   3.949  1.1787 -0.4277  0.0982
   9523SM   H9G12877   2.248   1.305   3.990 -1.2442  0.4696 -1.6483
   9523SM  C10F12878   2.449   1.233   3.955 -0.3141  0.2600  0.1593
   9523SM  H10F12879   2.494   1.334   3.940 -1.4254  1.0544  1.8010
   9523SM  H10G12880   2.495   1.165   3.880 -4.1313  0.3048 -2.5049
   9523SM  C11F12881   2.483   1.201   4.101  0.3167 -0.2060  1.2207
   9523SM  H11F12882   2.585   1.160   4.111 -0.6367 -2.2723  3.7682
   9523SM  H11G12883   2.423   1.113   4.133  0.0251  0.2043  1.8287
   9523SM  C12F12884   2.453   1.311   4.210  0.1673  0.6745 -0.0249
   9523SM  H12F12885   2.345   1.323   4.234  0.3967 -0.6776  1.9326
   9523SM  H12G12886   2.476   1.412   4.170  0.3608  0.0367 -1.6123
   9523SM  C13F12887   2.540   1.272   4.332 -1.0185  0.0260 -0.4212
   9523SM  H13F12888   2.647   1.266   4.305 -0.2870  1.7070  1.7838
   9523SM  H13G12889   2.516   1.166   4.357  1.5525 -1.2027 -2.6414
   9523SM  C14F12890   2.531   1.366   4.452  0.0267 -0.0689 -0.5329
   9523SM  H14F12891   2.427   1.401   4.467  0.2296  1.7217 -2.7143
   9523SM  H14G12892   2.595   1.456   4.436  1.4729 -0.9327  0.1276
   9523SM  C15F12893   2.593   1.305   4.584  0.3084 -0.4676  0.1278
   9523SM  H15F12894   2.607   1.387   4.658 -0.8778 -1.2179  1.2194
   9523SM  H15G12895   2.694   1.266   4.560  0.8763  0.8917  0.1761
   9523SM  C16F12896   2.504   1.195   4.651  0.1215  0.6302 -0.1404
   9523SM  H16F12897   2.499   1.106   4.585 -0.5346  0.5116  0.0621
   9523SM  H16G12898   2.399   1.224   4.675  0.1019  0.0082  0.5648
   9523SM  C17F12899   2.566   1.150   4.786  0.5930 -0.1839  0.0340
   9523SM  H17F12900   2.581   1.240   4.850  0.6302  0.4662 -0.8601
   9523SM  H17G12901   2.660   1.094   4.770 -1.8231 -4.2121 -1.4568
   9523SM  C18F12902   2.477   1.051   4.860 -0.6694  0.4759  0.5426
   9523SM  H18F12903   2.476   0.954   4.806  2.7719  0.2033  0.7529
   9523SM  H18G12904   2.373   1.091   4.859 -0.4503  1.0471 -0.0382
   9523SM  C19F12905   2.522   1.024   5.008  0.3154  0.1570  0.6184
   9523SM  H19F12906   2.531   1.114   5.072 -0.2268 -0.6373  1.8413
   9523SM  H19G12907   2.626   0.988   4.987 -0.3678 -0.5374 -2.0017
   9523SM  C20F12908   2.447   0.910   5.078 -0.5685  0.0905  0.2968
   9523SM  H20F12909   2.497   0.894   5.176  2.4739 -0.8146 -1.2776
   9523SM  H20G12910   2.444   0.813   5.024 -1.7165  0.5351 -0.4628
   9523SM  C21F12911   2.300   0.938   5.119 -0.9059 -0.0680 -0.3580
   9523SM  H21F12912   2.236   0.946   5.029 -1.6087 -0.9446  0.0484
   9523SM  H21G12913   2.306   1.036   5.169 -0.5177  0.4006 -1.3022
   9523SM  C22F12914   2.246   0.830   5.216 -0.2682  0.0606 -1.0188
   9523SM  H22F12915   2.319   0.793   5.291 -0.9968  4.7831  2.5086
   9523SM  H22G12916   2.241   0.745   5.145  1.1367  0.3134 -1.4632
   9523SM  C23F12917   2.115   0.864   5.288  0.4959 -0.4638  0.6206
   9523SM  H23F12918   2.133   0.946   5.361  0.0896  0.4295 -0.2614
   9523SM  H23G12919   2.061   0.778   5.333 -0.4895  0.4409  1.2132
   9523SM  H23H12920   2.049   0.905   5.208  0.9884 -2.3981 -0.8489
   9623SM     N12921   3.406   0.208   2.091  0.4861  0.9695 -0.5094
   9623SM   C1512922   3.358   0.291   1.976  0.4618  0.3092 -0.1858
   9623SM  H15A12923   3.322   0.388   2.008 -1.3222 -0.8573  1.5291
   9623SM  H15B12924   3.277   0.243   1.921  0.3638  0.9389 -0.6051
   9623SM  H15C12925   3.440   0.294   1.906 -0.1855 -0.7357 -1.0223
   9623SM   C1412926   3.537   0.270   2.131 -0.0965 -0.0648 -0.2962
   9623SM  H14A12927   3.515   0.376   2.133  2.8342  0.6314  1.3069
   9623SM  H14B12928   3.607   0.249   2.051  0.7914 -0.6317  0.6112
   9623SM  H14C12929   3.580   0.238   2.225  0.2646 -0.1461 -0.4859
   9623SM   C1312930   3.314   0.203   2.205 -0.3760  0.3304 -0.1813
   9623SM  H13A12931   3.362   0.162   2.293 -1.9379 -0.4938  0.3324
   9623SM  H13B12932   3.231   0.147   2.165  0.8321 -1.4136 -0.3577
   9623SM  H13C12933   3.272   0.302   2.221  0.2387  0.1691  3.2995
   9623SM   C1212934   3.435   0.070   2.044 -0.4046  0.1478 -0.6269
   9623SM  H12A12935   3.496   0.075   1.955  0.5244  0.5165  0.0099
   9623SM  H12B12936   3.346   0.013   2.020  0.3729 -0.1684 -3.0066
   9623SM   C1112937   3.521  -0.029   2.133  0.2529  0.8513 -0.2490
   9623SM  H11A12938   3.626   0.006   2.139  0.7053 -0.6720  2.4771
   9623SM  H11B12939   3.520  -0.124   2.075 -0.9254  0.6626  0.0540
   9623SM     P12940   3.523  -0.004   2.401 -0.0557  0.0033 -0.1399
   9623SM   O1312941   3.634   0.093   2.388  0.0480  0.1023  0.0959
   9623SM   O1412942   3.409   0.053   2.471 -0.1252  0.3214  0.1452
   9623SM   O1112943   3.571  -0.133   2.487  0.5664 -0.1352  0.4071
   9623SM   O1212944   3.466  -0.060   2.262  0.3043  0.0189  0.0029
   9623SM   C1S12945   3.484  -0.246   2.475  0.1251  0.5453 -0.2878
   9623SM   H1S12946   3.492  -0.291   2.374  0.3069 -0.9376  0.3560
   9623SM   H1T12947   3.377  -0.228   2.495 -0.0174 -1.6367  1.3688
   9623SM    NF12948   3.477  -0.489   2.549  0.3068  0.0736  0.3665
   9623SM   HNF12949   3.406  -0.518   2.612 -0.7378  2.6639  0.4935
   9623SM   C2S12950   3.533  -0.354   2.577  0.0156  0.9117  0.6339
   9623SM   H2S12951   3.643  -0.369   2.565 -0.2094 -0.1930 -0.2498
   9623SM   C3S12952   3.508  -0.320   2.725  0.0608  0.7520  0.3242
   9623SM   H3S12953   3.400  -0.333   2.744  0.3630 -1.6304  0.6904
   9623SM    O312954   3.545  -0.191   2.765  0.1801  0.3065 -0.1245
   9623SM   HO312955   3.582  -0.156   2.683  0.9918 -0.1301  0.0462
   9623SM   C4S12956   3.574  -0.418   2.815 -0.0765  0.6506 -0.1883
   9623SM   H4S12957   3.680  -0.399   2.834 -0.5560  1.2874  2.1355
   9623SM   C5S12958   3.518  -0.516   2.889  0.4390  0.1504 -0.0555
   9623SM   H5S12959   3.412  -0.541   2.874  0.1849  1.9557 -1.7011
   9623SM   C6S12960   3.603  -0.604   2.978 -0.1519 -0.5582 -0.7125
   9623SM   H6S12961   3.705  -0.559   2.976  0.0806 -1.0417 -0.0763
   9623SM   H6T12962   3.605  -0.711   2.947  0.1028 -0.8047  0.1243
   9623SM   C7S12963   3.560  -0.595   3.134  0.6788  0.1445 -0.0427
   9623SM   H7S12964   3.461  -0.646   3.139  0.9960 -0.7044 -1.7027
   9623SM   H7T12965   3.547  -0.488   3.163 -4.4954 -0.0821 -0.5892
   9623SM   C8S12966   3.655  -0.661   3.235  0.0656 -0.9019  0.6008
   9623SM   H8S12967   3.611  -0.641   3.335 -1.3355  0.0783 -0.1788
   9623SM   H8T12968   3.752  -0.606   3.229  0.0832 -0.9973 -0.1703
   9623SM   C9S12969   3.672  -0.815   3.221 -0.3931 -0.0019  0.0159
   9623SM   H9S12970   3.715  -0.850   3.317  1.8483 -2.1756 -1.6494
   9623SM   H9T12971   3.737  -0.835   3.133  0.0710 -0.3309  0.4311
   9623SM  C10S12972   3.545  -0.904   3.217 -0.2220  0.0867 -0.3376
   9623SM  H10S12973   3.488  -0.885   3.124 -1.1418  1.4144  0.4679
   9623SM  H10T12974   3.473  -0.877   3.297 -0.2309 -0.8974 -0.0001
   9623SM  C11S12975   3.570  -1.062   3.218  0.5375  0.4189 -0.1722
   9623SM  H11S12976   3.622  -1.079   3.315  1.2791  0.6380 -0.5264
   9623SM  H11T12977   3.619  -1.100   3.125 -0.8702  2.1676 -1.7050
   9623SM  C12S12978   3.439  -1.143   3.209  0.3298  0.7114 -0.4139
   9623SM  H12S12979   3.387  -1.124   3.112 -0.3258 -0.7428 -0.3851
   9623SM  H12T12980   3.373  -1.099   3.287  2.9133  1.2276  1.5996
   9623SM  C13S12981   3.457  -1.294   3.236  0.8071 -0.2704  0.3071
   9623SM  H13S12982   3.520  -1.304   3.327  0.5744  1.6707  0.7109
   9623SM  H13T12983   3.514  -1.338   3.151  1.5458  1.7181 -0.2724
   9623SM  C14S12984   3.320  -1.364   3.241  0.6401  0.0110  0.4647
   9623SM  H14S12985   3.234  -1.304   3.279  0.5899  0.2497 -0.0246
   9623SM  H14T12986   3.324  -1.459   3.298 -2.3474  0.2218  1.1884
   9623SM  C15S12987   3.278  -1.425   3.101 -0.1711  0.9931 -0.5171
   9623SM  H15S12988   3.359  -1.485   3.053 -0.2678  0.1548  0.3375
   9623SM  H15T12989   3.262  -1.336   3.037  0.6879  1.0903 -0.6093
   9623SM  C16S12990   3.154  -1.514   3.108 -0.7539 -0.2600 -0.3614
   9623SM  H16S12991   3.070  -1.455   3.152 -1.0430  0.1665 -1.4472
   9623SM  H16T12992   3.192  -1.599   3.168  0.3185  0.3892 -0.0827
   9623SM  C17S12993   3.112  -1.563   2.970  0.3756 -0.1808  0.5646
   9623SM  H17S12994   3.079  -1.476   2.909  1.2918  0.5396  1.0782
   9623SM  H17T12995   3.020  -1.626   2.972  0.7333 -0.7320  3.1927
   9623SM  C18S12996   3.212  -1.648   2.886  0.3413 -0.0238  0.5059
   9623SM  H18S12997   3.164  -1.671   2.789 -2.7653 -1.6216  2.2726
   9623SM  H18T12998   3.251  -1.741   2.933 -1.0312  0.8542  3.6790
   9623SM  H18U12999   3.298  -1.583   2.859  1.0804 -0.2692  2.1152
   9623SM   C1F13000   3.504  -0.563   2.446 -0.7894 -0.7387  0.0437
   9623SM    OF13001   3.597  -0.537   2.372  0.2524  0.1364  0.1381
   9623SM   C2F13002   3.414  -0.680   2.422  0.1010  1.0178  1.0852
   9623SM   H2F13003   3.322  -0.650   2.368  0.3323  1.1919  0.7876
   9623SM   H2G13004   3.377  -0.720   2.519 -0.6766  0.4555  0.5718
   9623SM   C3F13005   3.471  -0.796   2.345  0.3481  0.3624  0.2896
   9623SM   H3F13006   3.491  -0.777   2.237 -0.2946 -1.1144 -0.1119
   9623SM   H3G13007   3.393  -0.874   2.346  0.3869  0.2843 -0.8846
   9623SM   C4F13008   3.589  -0.867   2.405  0.2535  0.3974 -0.5576
   9623SM   H4F13009   3.675  -0.798   2.409  0.9193 -0.3627 -1.3338
   9623SM   H4G13010   3.617  -0.955   2.344  0.2541  1.1694 -1.7065
   9623SM   C5F13011   3.558  -0.937   2.539 -0.0192 -0.1029 -0.0741
   9623SM   H5F13012   3.460  -0.985   2.522 -0.3885  0.6214 -0.0294
   9623SM   H5G13013   3.546  -0.851   2.608 -1.8404  0.2978 -0.8408
   9623SM   C6F13014   3.663  -1.034   2.594 -0.3618  0.4479 -0.7706
   9623SM   H6F13015   3.763  -0.992   2.619 -0.7026  2.2354 -2.1996
   9623SM   H6G13016   3.683  -1.115   2.521 -0.5312 -0.7972  0.5253
   9623SM   C7F13017   3.617  -1.113   2.719  0.0391  0.1918 -0.9440
   9623SM   H7F13018   3.509  -1.141   2.714  0.3977 -1.0703 -2.1194
   9623SM   H7G13019   3.618  -1.039   2.802  0.4591 -1.3088  0.4302
   9623SM   C8F13020   3.704  -1.239   2.747 -0.6024 -0.1305 -0.1277
   9623SM   H8F13021   3.663  -1.289   2.837  1.3177  1.4755  1.7544
   9623SM   H8G13022   3.797  -1.202   2.796 -0.3347 -0.8972 -0.0344
   9623SM   C9F13023   3.740  -1.343   2.636  0.2668  0.1873 -0.9224
   9623SM   H9F13024   3.803  -1.417   2.690 -0.7113 -0.4920 -0.6959
   9623SM   H9G13025   3.806  -1.299   2.558  0.0019  0.0388 -1.2283
   9623SM  C10F13026   3.622  -1.425   2.584 -0.1297 -0.8106 -0.5958
   9623SM  H10F13027   3.556  -1.342   2.550 -1.0485 -1.8385 -1.3881
   9623SM  H10G13028   3.575  -1.474   2.672  0.6941  0.4107  0.5617
   9623SM  C11F13029   3.668  -1.510   2.468  0.2678  0.6567  0.2726
   9623SM  H11F13030   3.731  -1.592   2.509 -0.8752  0.2203  1.1883
   9623SM  H11G13031   3.728  -1.443   2.403 -2.4699  2.2575 -0.7777
   9623SM  C12F13032   3.549  -1.557   2.396 -1.0404  0.0987  0.1204
   9623SM  H12F13033   3.594  -1.612   2.310 -1.3746  1.5677 -1.0504
   9623SM  H12G13034   3.501  -1.467   2.352  1.9434  1.6634 -0.2234
   9623SM  C13F13035   3.444  -1.635   2.483  0.0421 -0.1227  0.2584
   9623SM  H13F13036   3.395  -1.570   2.558  1.2059 -1.3001  2.1077
   9623SM  H13G13037   3.513  -1.703   2.536  1.2915 -0.8159 -2.1086
   9623SM  C14F13038   3.355  -1.727   2.393 -0.2212 -0.4619  0.4212
   9623SM  H14F13039   3.301  -1.794   2.463 -0.2200 -0.6652  0.2258
   9623SM  H14G13040   3.409  -1.794   2.322 -0.8651  1.0360 -1.5771
   9623SM  C15F13041   3.255  -1.641   2.314 -0.1867  0.4835 -0.3507
   9623SM  H15F13042   3.299  -1.582   2.231  2.8310 -2.0282 -0.7522
   9623SM  H15G13043   3.221  -1.567   2.390  2.3450 -0.3259  1.7709
   9623SM  C16F13044   3.142  -1.722   2.263  0.3446  0.2557 -0.4619
   9623SM  H16F13045   3.084  -1.746   2.354  0.2640  1.1147 -0.2819
   9623SM  H16G13046   3.178  -1.816   2.215 -2.0871 -0.2822 -1.3646
   9623SM  C17F13047   3.053  -1.646   2.172  0.5678  0.0448  0.5865
   9623SM  H17F13048   3.121  -1.596   2.100  0.6033  0.0120  0.5972
   9623SM  H17G13049   2.999  -1.564   2.223 -1.7207 -0.5825 -0.7003
   9623SM  C18F13050   2.952  -1.737   2.100  0.0537 -1.0857 -0.3525
   9623SM  H18F13051   3.009  -1.821   2.055  1.9575  0.1511 -0.3768
   9623SM  H18G13052   2.909  -1.673   2.020 -0.7583 -1.9686 -0.6457
   9623SM  C19F13053   2.836  -1.785   2.186 -0.1870 -0.1662 -0.8023
   9623SM  H19F13054   2.778  -1.698   2.224 -1.7339 -1.0913 -0.9575
   9623SM  H19G13055   2.879  -1.844   2.269  0.7806  0.0654 -1.1254
   9623SM  C20F13056   2.727  -1.871   2.121 -0.4066 -0.1905 -0.9474
   9623SM  H20F13057   2.701  -1.811   2.031  1.5638  0.6959 -0.9805
   9623SM  H20G13058   2.639  -1.861   2.189  1.1588  0.4731  1.0927
   9623SM  C21F13059   2.756  -2.021   2.093  0.0544  0.5009 -0.0899
   9623SM  H21F13060   2.835  -2.009   2.015  1.1624  1.4192  1.1354
   9623SM  H21G13061   2.673  -2.075   2.041 -0.0508  2.1794 -1.7791
   9623SM  C22F13062   2.808  -2.102   2.216  0.2607 -0.1242 -0.4065
   9623SM  H22F13063   2.731  -2.107   2.296  1.1603  1.9419  0.6419
   9623SM  H22G13064   2.903  -2.057   2.249  0.7435  0.4864 -2.5029
   9623SM  C23F13065   2.844  -2.246   2.175  0.0397 -0.6291 -0.8643
   9623SM  H23F13066   2.936  -2.259   2.115  0.4536  0.3012 -0.4482
   9623SM  H23G13067   2.765  -2.303   2.122 -0.7146  1.4073 -2.0208
   9623SM  H23H13068   2.861  -2.307   2.266 -0.2517 -1.2401 -1.2155
   9723SM     N13069   4.998   0.849   2.836 -0.5567  0.1127 -0.1376
   9723SM   C1513070   5.036   0.773   2.958  0.4912  0.0373 -0.4552
   9723SM  H15A13071   5.122   0.710   2.939  0.9991  0.0517  1.6031
   9723SM  H15B13072   4.961   0.699   2.983 -0.7207  1.5320  0.5036
   9723SM  H15C13073   5.063   0.839   3.039 -0.1373  1.1332 -1.1156
   9723SM   C1413074   4.893   0.949   2.874  0.0444  0.2250  0.5683
   9723SM  H14A13075   4.899   1.018   2.791  1.3610  0.0576  0.5034
   9723SM  H14B13076   4.924   0.995   2.966 -2.1439 -0.1324  1.5352
   9723SM  H14C13077   4.790   0.921   2.890 -0.0712 -0.5052 -1.1557
   9723SM   C1313078   5.126   0.915   2.795 -0.1673 -0.5010 -0.4010
   9723SM  H13A13079   5.115   0.972   2.703 -2.4376  2.8656  1.7450
   9723SM  H13B13080   5.200   0.838   2.777  1.8080  0.4967  2.6620
   9723SM  H13C13081   5.165   0.980   2.872 -0.2357 -1.9810  0.9236
   9723SM   C1213082   4.939   0.755   2.733  0.1803  0.2941 -0.2502
   9723SM  H12A13083   4.870   0.811   2.672  0.3640 -0.7406 -1.4465
   9723SM  H12B13084   4.880   0.681   2.784  1.2885 -0.9989 -0.7866
   9723SM   C1113085   5.028   0.685   2.628 -0.2710 -0.2363  0.1423
   9723SM  H11A13086   5.083   0.762   2.570 -2.2032  0.3863 -0.9253
   9723SM  H11B13087   4.957   0.630   2.562 -2.9813 -0.1353  2.7616
   9723SM     P13088   5.196   0.492   2.591 -0.0828  0.4157  0.3700
   9723SM   O1313089   5.094   0.409   2.523  0.7814 -0.1440 -0.0061
   9723SM   O1413090   5.300   0.546   2.501  0.2444 -0.3942  0.2090
   9723SM   O1113091   5.281   0.410   2.689 -0.8874 -0.8063  0.1048
   9723SM   O1213092   5.124   0.591   2.689 -0.6077  0.0192  0.4780
   9723SM   C1S13093   5.340   0.455   2.810  0.3329  0.2908  0.3423
   9723SM   H1S13094   5.358   0.563   2.824 -5.0572  1.4225  0.4036
   9723SM   H1T13095   5.438   0.404   2.825 -0.9945 -2.4036  0.6138
   9723SM    NF13096   5.320   0.457   3.052  0.1471  0.1144 -0.7805
   9723SM   HNF13097   5.341   0.387   3.120  1.7270  1.3629  0.0700
   9723SM   C2S13098   5.258   0.416   2.936  0.0103  0.2629  0.5685
   9723SM   H2S13099   5.161   0.471   2.928  0.5989  1.1514 -0.8103
   9723SM   C3S13100   5.233   0.267   2.945  0.3703 -0.3667  0.5221
   9723SM   H3S13101   5.336   0.225   2.950 -0.3267 -2.5324 -1.3111
   9723SM    O313102   5.152   0.220   2.831 -0.0635 -0.0630 -0.6816
   9723SM   HO313103   5.156   0.298   2.774  0.3412  1.1825  0.9671
   9723SM   C4S13104   5.155   0.231   3.072  0.7939 -0.1317 -0.5722
   9723SM   H4S13105   5.203   0.146   3.123 -1.2240 -2.2094 -1.8924
   9723SM   C5S13106   5.031   0.262   3.114  0.7110 -0.1222  0.0598
   9723SM   H5S13107   4.964   0.322   3.050  0.9758 -1.7179 -1.7905
   9723SM   C6S13108   4.975   0.211   3.245 -0.5650  0.6839 -0.2433
   9723SM   H6S13109   4.927   0.114   3.221  1.2883 -0.2533 -0.3933
   9723SM   H6T13110   4.897   0.286   3.270 -1.2636 -0.0636 -0.1398
   9723SM   C7S13111   5.074   0.197   3.366  0.4659  0.2117 -0.3673
   9723SM   H7S13112   5.146   0.278   3.389 -0.7299  0.4016  3.4893
   9723SM   H7T13113   5.134   0.105   3.351  0.9077 -0.0541  2.4582
   9723SM   C8S13114   4.989   0.178   3.487  0.9329 -0.0679  0.0658
   9723SM   H8S13115   4.928   0.087   3.472  1.5644 -0.4445 -0.2798
   9723SM   H8T13116   4.921   0.264   3.505  0.9733 -0.3018  1.4563
   9723SM   C9S13117   5.071   0.148   3.614  0.0361 -0.0525  0.6515
   9723SM   H9S13118   5.151   0.224   3.627  1.0154 -0.7553 -1.0107
   9723SM   H9T13119   5.112   0.047   3.594 -1.7208 -0.9412  1.2686
   9723SM  C10S13120   4.986   0.143   3.739  0.0479 -0.2200  0.1906
   9723SM  H10S13121   4.903   0.072   3.719  0.3554 -0.5343  0.0327
   9723SM  H10T13122   4.949   0.246   3.762 -0.4318 -0.4155  0.3085
   9723SM  C11S13123   5.068   0.103   3.863  0.7551  0.2774 -0.5897
   9723SM  H11S13124   5.150   0.173   3.890 -0.2396  0.4071  2.4172
   9723SM  H11T13125   5.127   0.010   3.853  0.4149 -0.0317  0.2477
   9723SM  C12S13126   4.977   0.094   3.986  0.3564 -0.0768  0.2228
   9723SM  H12S13127   4.892   0.030   3.954  0.4892  0.9794 -2.5653
   9723SM  H12T13128   4.937   0.189   4.025 -0.6503 -0.2316 -0.4004
   9723SM  C13S13129   5.035   0.019   4.106 -0.3792  0.3707  0.1234
   9723SM  H13S13130   5.134   0.055   4.143 -0.8167  0.0129  1.7364
   9723SM  H13T13131   5.049  -0.088   4.080  2.6151  0.7058 -0.0527
   9723SM  C14S13132   4.936   0.017   4.220  1.0068 -0.5356 -0.0323
   9723SM  H14S13133   4.846  -0.038   4.186  0.5182  0.3605 -0.2055
   9723SM  H14T13134   4.903   0.119   4.248 -2.6872 -1.4075 -0.7479
   9723SM  C15S13135   4.979  -0.062   4.346 -0.0186 -0.2498 -0.1619
   9723SM  H15S13136   5.062   0.002   4.384 -1.5927  0.2144  2.7778
   9723SM  H15T13137   5.029  -0.156   4.315 -0.6688 -0.6232 -0.0862
   9723SM  C16S13138   4.864  -0.099   4.439 -0.1263  0.1822 -0.2995
   9723SM  H16S13139   4.792  -0.160   4.380  0.6252 -2.1679  1.0910
   9723SM  H16T13140   4.816  -0.002   4.468 -1.7226 -0.8039  0.4919
   9723SM  C17S13141   4.908  -0.183   4.557  0.1467  0.2405  0.2036
   9723SM  H17S13142   4.976  -0.123   4.622  1.5674  0.1157 -1.0973
   9723SM  H17T13143   4.952  -0.279   4.522  0.2458 -0.0128  0.9845
   9723SM  C18S13144   4.793  -0.220   4.644 -0.2265  0.0645 -0.0360
   9723SM  H18S13145   4.697  -0.253   4.599 -0.1245 -0.3367  0.0337
   9723SM  H18T13146   4.759  -0.130   4.699 -0.4299  0.2075 -0.3917
   9723SM  H18U13147   4.827  -0.301   4.712  1.1676 -1.5526 -2.5005
   9723SM   C1F13148   5.343   0.577   3.099 -0.1162  0.0948 -0.2360
   9723SM    OF13149   5.305   0.681   3.042  0.1267 -0.0250 -0.5785
   9723SM   C2F13150   5.427   0.598   3.224 -0.2217  0.8304 -0.1405
   9723SM   H2F13151   5.509   0.671   3.202  1.1957 -0.6495  0.0147
   9723SM   H2G13152   5.486   0.510   3.257 -1.7120 -0.4115 -0.6760
   9723SM   C3F13153   5.343   0.649   3.342 -0.3623  0.3716 -0.1497
   9723SM   H3F13154   5.263   0.723   3.318 -1.0579 -0.0332  0.8653
   9723SM   H3G13155   5.418   0.704   3.402 -1.4340 -1.5955  3.2482
   9723SM   C4F13156   5.284   0.533   3.435 -0.2084  0.1180  0.5282
   9723SM   H4F13157   5.359   0.452   3.444  0.7155  0.9532  0.4007
   9723SM   H4G13158   5.205   0.484   3.373 -1.5093  0.9817  1.4498
   9723SM   C5F13159   5.233   0.572   3.566  0.1743 -0.0837  0.5720
   9723SM   H5F13160   5.175   0.488   3.609 -1.1748  0.8184  0.5703
   9723SM   H5G13161   5.162   0.657   3.572  1.5436  1.2623 -1.1753
   9723SM   C6F13162   5.360   0.583   3.660  0.1944  0.5003 -0.6546
   9723SM   H6F13163   5.415   0.674   3.629 -0.7628  1.0774 -0.7207
   9723SM   H6G13164   5.424   0.494   3.647  1.5509  1.3174  0.2312
   9723SM   C7F13165   5.336   0.612   3.811 -0.2616  0.2770  0.4733
   9723SM   H7F13166   5.270   0.530   3.845 -1.5321 -0.1565 -2.7110
   9723SM   H7G13167   5.287   0.711   3.824 -0.4467  1.0952 -4.4186
   9723SM   C8F13168   5.468   0.601   3.884  0.2968 -1.1766 -0.7454
   9723SM   H8F13169   5.525   0.694   3.860 -0.8062  0.1996  1.5863
   9723SM   H8G13170   5.526   0.515   3.845  3.4413  0.8258 -0.9211
   9723SM   C9F13171   5.457   0.610   4.042  0.2369  0.9089  0.5555
   9723SM   H9F13172   5.423   0.712   4.068  0.8978  1.7898 -1.7658
   9723SM   H9G13173   5.563   0.603   4.075  0.1078  0.4095  0.8714
   9723SM  C10F13174   5.377   0.490   4.099  0.2509  0.1744 -0.5606
   9723SM  H10F13175   5.405   0.396   4.049 -0.4260 -0.6566  0.5775
   9723SM  H10G13176   5.269   0.506   4.076 -0.1066  1.2096  1.5310
   9723SM  C11F13177   5.399   0.472   4.247  0.2068 -0.0123  0.2717
   9723SM  H11F13178   5.355   0.565   4.289 -1.8672 -0.1143 -1.5022
   9723SM  H11G13179   5.508   0.470   4.270  0.2546 -0.6275  0.0019
   9723SM  C12F13180   5.328   0.354   4.308  0.2585 -0.2684 -0.2194
   9723SM  H12F13181   5.390   0.263   4.293 -0.0080 -0.7334  1.3106
   9723SM  H12G13182   5.233   0.338   4.253 -0.1655  2.7800 -0.5709
   9723SM  C13F13183   5.302   0.372   4.457  0.0393  0.0329 -0.3910
   9723SM  H13F13184   5.243   0.465   4.476 -0.3203 -0.5841  1.8109
   9723SM  H13G13185   5.398   0.408   4.500  0.9541 -1.0820 -1.4549
   9723SM  C14F13186   5.234   0.263   4.531  0.5139  0.1455  0.3051
   9723SM  H14F13187   5.281   0.162   4.529  0.3940  0.0434  1.5642
   9723SM  H14G13188   5.139   0.254   4.475  0.9638  0.2411 -0.4948
   9723SM  C15F13189   5.199   0.307   4.676 -0.1951  0.3549 -0.4027
   9723SM  H15F13190   5.118   0.248   4.725 -0.3370  1.2316  0.4377
   9723SM  H15G13191   5.150   0.405   4.662 -0.0345  0.6029  0.7082
   9723SM  C16F13192   5.309   0.336   4.770 -0.6531 -0.4100  0.1224
   9723SM  H16F13193   5.261   0.366   4.865 -2.4797 -1.8364 -0.2902
   9723SM  H16G13194   5.384   0.406   4.727  1.0834 -2.1725  0.1172
   9723SM  C17F13195   5.398   0.216   4.798 -0.0914 -0.4425 -0.3769
   9723SM  H17F13196   5.473   0.212   4.716  2.0730  0.9832  1.4000
   9723SM  H17G13197   5.327   0.132   4.804 -1.0152  0.1844 -1.9402
   9723SM  C18F13198   5.482   0.237   4.925  0.1315  0.8720  0.5492
   9723SM  H18F13199   5.418   0.228   5.016  1.5712  1.2807  1.6361
   9723SM  H18G13200   5.542   0.331   4.920  1.2357  0.1741  0.3213
   9723SM  C19F13201   5.586   0.119   4.938 -0.5900 -0.8625  0.4122
   9723SM  H19F13202   5.642   0.112   4.842  2.1460 -0.4032  1.8912
   9723SM  H19G13203   5.527   0.025   4.941 -0.2575 -1.1306 -0.8538
   9723SM  C20F13204   5.674   0.145   5.061  0.0795 -0.2150  0.1488
   9723SM  H20F13205   5.604   0.163   5.145 -1.1949  1.4243 -1.1818
   9723SM  H20G13206   5.718   0.245   5.041 -0.3482 -0.2744 -1.2770
   9723SM  C21F13207   5.779   0.036   5.086 -0.3986 -0.0090 -0.5179
   9723SM  H21F13208   5.816  -0.003   4.989 -1.5922  0.2250 -1.0775
   9723SM  H21G13209   5.727  -0.055   5.121 -0.2048 -0.3842 -1.1836
   9723SM  C22F13210   5.896   0.072   5.177  0.4284 -0.3318 -0.2624
   9723SM  H22F13211   5.878   0.032   5.279 -0.0250 -1.5437 -0.7916
   9723SM  H22G13212   5.890   0.182   5.190  2.3346 -0.2288 -0.0380
   9723SM  C23F13213   6.039   0.033   5.122 -0.2571  0.1322 -0.4953
   9723SM  H23F13214   6.082   0.117   5.063 -0.5863  1.3447  0.9149
   9723SM  H23G13215   6.046  -0.062   5.065  0.8968  0.4163 -0.8484
   9723SM  H23H13216   6.094   0.021   5.218 -1.2032 -0.8680 -0.0420
   9823SM     N13217   6.653   0.313   2.288  0.3158 -0.2232 -1.2145
   9823SM   C1513218   6.618   0.173   2.237  0.6231  0.5523 -0.9322
   9823SM  H15A13219   6.555   0.171   2.149 -1.2065  0.8737  0.3231
   9823SM  H15B13220   6.556   0.121   2.308  1.9493 -1.1203 -0.9521
   9823SM  H15C13221   6.703   0.107   2.229 -0.6338 -1.0208 -1.7296
   9823SM   C1413222   6.725   0.390   2.188  0.0885  0.8548 -0.7118
   9823SM  H14A13223   6.655   0.409   2.108 -0.8192 -2.2789 -0.7833
   9823SM  H14B13224   6.805   0.337   2.139 -1.1364 -1.4419 -0.3261
   9823SM  H14C13225   6.770   0.478   2.233 -2.0374  1.0363  1.2437
   9823SM   C1313226   6.528   0.389   2.328 -0.5204  0.5624  0.4975
   9823SM  H13A13227   6.486   0.343   2.417 -2.3759 -2.8944 -1.9103
   9823SM  H13B13228   6.450   0.377   2.254 -0.2688  0.3530  0.2649
   9823SM  H13C13229   6.546   0.492   2.352  2.4101  0.3947 -0.6644
   9823SM   C1213230   6.741   0.291   2.412 -0.6709  0.0491 -0.1198
   9823SM  H12A13231   6.824   0.226   2.390 -0.7699 -0.1796  0.1733
   9823SM  H12B13232   6.692   0.240   2.493 -0.6654  3.1948  2.0818
   9823SM   C1113233   6.807   0.416   2.481  0.0691 -0.3317 -0.8569
   9823SM  H11A13234   6.836   0.391   2.585  0.4319  2.3866 -0.2093
   9823SM  H11B13235   6.729   0.495   2.491 -1.1996 -1.5462 -0.8828
   9823SM     P13236   7.053   0.387   2.387 -0.2791 -0.3204  0.2324
   9823SM   O1313237   7.044   0.271   2.296 -0.2241 -0.1072 -0.1949
   9823SM   O1413238   7.150   0.486   2.339  0.0551  0.4528 -0.1243
   9823SM   O1113239   7.100   0.344   2.531 -0.3091 -0.4901  0.0499
   9823SM   O1213240   6.917   0.469   2.407 -0.0162 -0.1744 -0.1234
   9823SM   C1S13241   7.110   0.437   2.637 -0.1466 -0.4688  0.7111
   9823SM   H1S13242   7.029   0.513   2.637  1.2430  1.0931 -0.7318
   9823SM   H1T13243   7.204   0.492   2.614  0.0669 -1.6408 -1.4915
   9823SM    NF13244   7.133   0.444   2.882 -0.5214  0.5752 -0.2096
   9823SM   HNF13245   7.213   0.430   2.940  0.7330 -3.1161 -2.5194
   9823SM   C2S13246   7.121   0.354   2.774 -0.5865  0.7439 -0.1147
   9823SM   H2S13247   7.028   0.294   2.780  0.3157 -0.7072 -0.3853
   9823SM   C3S13248   7.235   0.244   2.766  0.1979  0.8977  0.0864
   9823SM   H3S13249   7.333   0.291   2.787  0.8934 -0.8021  0.8861
   9823SM    O313250   7.254   0.175   2.642 -0.3742  0.2794 -0.4755
   9823SM   HO313251   7.193   0.220   2.582 -2.3838 -0.5602  0.8357
   9823SM   C4S13252   7.198   0.153   2.886 -0.3294  0.0270  0.4457
   9823SM   H4S13253   7.241   0.212   2.968 -0.9237  0.3300  0.5392
   9823SM   C5S13254   7.143   0.038   2.895  0.6047  0.6578 -0.2342
   9823SM   H5S13255   7.117  -0.027   2.811  1.6770 -0.6746  0.4202
   9823SM   C6S13256   7.132  -0.027   3.033  0.7039  0.1883  0.2620
   9823SM   H6S13257   7.183  -0.126   3.036 -0.6265 -0.5012  0.4440
   9823SM   H6T13258   7.023  -0.040   3.048  0.6769 -0.8216 -0.7549
   9823SM   C7S13259   7.192   0.051   3.151  0.3158  0.3000 -0.4483
   9823SM   H7S13260   7.151   0.154   3.150 -0.3184  0.0957  1.2528
   9823SM   H7T13261   7.303   0.049   3.136 -0.0292 -0.0323 -3.8218
   9823SM   C8S13262   7.151  -0.008   3.286  0.2653 -0.2493 -0.4643
   9823SM   H8S13263   7.202  -0.107   3.286  0.2714 -0.2462 -0.5088
   9823SM   H8T13264   7.042  -0.024   3.289  0.0916  0.6277  2.7667
   9823SM   C9S13265   7.189   0.068   3.412  0.3639 -0.2160  0.4261
   9823SM   H9S13266   7.124   0.158   3.424  0.1775 -0.6769  4.3027
   9823SM   H9T13267   7.295   0.100   3.413  0.4733 -0.5019 -0.6093
   9823SM  C10S13268   7.154  -0.004   3.537 -0.4537 -0.0722  0.0709
   9823SM  H10S13269   7.199  -0.105   3.546 -1.9358 -0.7054  0.9084
   9823SM  H10T13270   7.044  -0.019   3.543 -0.4661 -1.1421 -2.0860
   9823SM  C11S13271   7.187   0.074   3.663  0.3278 -0.0349 -0.2336
   9823SM  H11S13272   7.120   0.162   3.667  1.1431  0.6774 -1.4474
   9823SM  H11T13273   7.286   0.122   3.651  0.4092 -0.6605 -2.6804
   9823SM  C12S13274   7.187  -0.010   3.796 -0.5016  1.1790  0.3761
   9823SM  H12S13275   7.268  -0.083   3.779 -1.9278 -0.1437 -1.0756
   9823SM  H12T13276   7.092  -0.064   3.816 -0.3899  0.3684 -1.1176
   9823SM  C13S13277   7.224   0.080   3.907  0.5277 -0.1159  0.6943
   9823SM  H13S13278   7.146   0.158   3.918  1.9757  1.6890 -1.0686
   9823SM  H13T13279   7.320   0.130   3.884  1.3599 -0.6905  2.6995
   9823SM  C14S13280   7.209   0.008   4.043  0.0135 -0.1443  0.3549
   9823SM  H14S13281   7.293  -0.058   4.074 -1.1348 -0.7801  2.2839
   9823SM  H14T13282   7.122  -0.060   4.032 -0.4074  0.6491 -1.8321
   9823SM  C15S13283   7.189   0.113   4.151 -0.7379 -0.9402  0.6954
   9823SM  H15S13284   7.087   0.153   4.134 -0.1928  1.4379  2.5212
   9823SM  H15T13285   7.265   0.194   4.144 -1.0208 -0.6910  0.4602
   9823SM  C16S13286   7.197   0.042   4.293  0.3406  0.9575  0.3150
   9823SM  H16S13287   7.290  -0.018   4.300 -1.3674 -1.6616  2.3020
   9823SM  H16T13288   7.112  -0.029   4.289  0.0627  1.3469 -1.3810
   9823SM  C17S13289   7.193   0.136   4.418 -0.0918 -0.0454 -0.5868
   9823SM  H17S13290   7.230   0.239   4.402  1.0580 -0.2352  0.7005
   9823SM  H17T13291   7.265   0.091   4.489 -1.9426 -0.2660  1.2729
   9823SM  C18S13292   7.056   0.153   4.476 -0.5773 -0.1791  0.0885
   9823SM  H18S13293   7.023   0.049   4.497  2.7223 -1.2279  0.6126
   9823SM  H18T13294   6.979   0.196   4.408 -0.5462  0.1340  0.2468
   9823SM  H18U13295   7.063   0.212   4.570 -0.5493  0.4272 -0.2916
   9823SM   C1F13296   7.031   0.525   2.913  0.4414 -0.3386  0.7282
   9823SM    OF13297   6.921   0.511   2.864  0.7868 -0.4348  0.4020
   9823SM   C2F13298   7.053   0.624   3.026 -0.6522 -0.0044  0.2949
   9823SM   H2F13299   7.055   0.726   2.983  0.3223 -0.6198 -1.2001
   9823SM   H2G13300   7.152   0.610   3.073 -1.6291  1.5671  3.0969
   9823SM   C3F13301   6.948   0.614   3.135  0.0217  0.2419  0.1630
   9823SM   H3F13302   6.853   0.636   3.082  0.5754 -0.5036 -1.2026
   9823SM   H3G13303   6.963   0.701   3.202 -0.1566  0.0191  0.4961
   9823SM   C4F13304   6.928   0.480   3.202 -0.9614  0.4395  0.0455
   9823SM   H4F13305   7.027   0.432   3.215 -1.1208 -0.3182 -1.4138
   9823SM   H4G13306   6.879   0.408   3.134 -0.1770  0.0028 -0.0641
   9823SM   C5F13307   6.851   0.489   3.335 -0.3475 -0.0987 -1.0581
   9823SM   H5F13308   6.753   0.541   3.340 -0.2637 -0.0942  1.4168
   9823SM   H5G13309   6.919   0.550   3.398  0.6200 -1.3357 -0.8701
   9823SM   C6F13310   6.821   0.353   3.410 -0.1449  0.0600 -0.9009
   9823SM   H6F13311   6.896   0.280   3.373 -0.1797 -0.1351 -0.5858
   9823SM   H6G13312   6.723   0.323   3.368 -1.0240  2.3219 -0.6283
   9823SM   C7F13313   6.812   0.366   3.559  0.1014 -0.9621 -0.4578
   9823SM   H7F13314   6.733   0.440   3.585 -1.6016 -2.8081 -0.1336
   9823SM   H7G13315   6.912   0.401   3.595 -1.0752 -0.0790  2.2713
   9823SM   C8F13316   6.796   0.240   3.632 -0.5654  1.2434 -0.0092
   9823SM   H8F13317   6.870   0.168   3.591 -0.6226  1.4662 -0.5092
   9823SM   H8G13318   6.699   0.188   3.613  0.0429 -0.6442  1.6355
   9823SM   C9F13319   6.813   0.238   3.784  0.2127 -0.0957 -0.1503
   9823SM   H9F13320   6.734   0.295   3.838  0.7421 -0.4520  1.0448
   9823SM   H9G13321   6.911   0.287   3.801  1.2562 -2.1674  0.1399
   9823SM  C10F13322   6.818   0.096   3.837  0.4273 -0.1099  0.4848
   9823SM  H10F13323   6.903   0.039   3.794  0.8054  1.2643 -0.6621
   9823SM  H10G13324   6.730   0.030   3.819 -0.1059  0.6079  0.4242
   9823SM  C11F13325   6.844   0.105   3.986  0.0669 -0.7067  0.1554
   9823SM  H11F13326   6.921   0.182   4.007  1.9021 -2.8533  1.7978
   9823SM  H11G13327   6.893   0.011   4.018  0.6344 -0.8417 -1.0570
   9823SM  C12F13328   6.716   0.118   4.075  0.1633 -0.4226 -0.7899
   9823SM  H12F13329   6.628   0.078   4.021 -1.5049  0.9595  0.7817
   9823SM  H12G13330   6.691   0.224   4.093 -2.7227 -0.9584 -1.1958
   9823SM  C13F13331   6.718   0.049   4.206 -0.0710  0.2084 -0.4228
   9823SM  H13F13332   6.795   0.105   4.263 -0.1772 -1.0115  1.0032
   9823SM  H13G13333   6.754  -0.056   4.208  0.3746  0.3421  1.7944
   9823SM  C14F13334   6.596   0.053   4.301  0.1348  0.1472 -0.0501
   9823SM  H14F13335   6.533  -0.038   4.292  0.7073 -0.5355  2.2819
   9823SM  H14G13336   6.531   0.135   4.265  0.5787  1.1866  1.4665
   9823SM  C15F13337   6.628   0.098   4.446  0.7354 -0.6146 -0.1222
   9823SM  H15F13338   6.720   0.056   4.491  0.1049 -0.9928  0.8493
   9823SM  H15G13339   6.551   0.077   4.523 -0.5672 -1.0255 -1.4843
   9823SM  C16F13340   6.641   0.257   4.443  0.3120 -0.2666 -0.4125
   9823SM  H16F13341   6.542   0.306   4.438 -0.4243 -1.7631 -1.0515
   9823SM  H16G13342   6.682   0.289   4.344 -0.6351  1.1272 -0.3753
   9823SM  C17F13343   6.719   0.311   4.565 -0.6090  0.5507 -0.0479
   9823SM  H17F13344   6.726   0.421   4.551 -1.6270  0.7983  1.1604
   9823SM  H17G13345   6.818   0.261   4.558 -1.2257 -0.7535  0.1556
   9823SM  C18F13346   6.654   0.282   4.696  0.0886  0.0912 -0.7075
   9823SM  H18F13347   6.640   0.172   4.693  0.4318  0.0144  0.0790
   9823SM  H18G13348   6.559   0.340   4.703 -0.7602 -1.3156 -0.3162
   9823SM  C19F13349   6.735   0.330   4.823  0.0149  0.1375 -0.0868
   9823SM  H19F13350   6.673   0.328   4.915 -0.5702 -0.8479 -0.4803
   9823SM  H19G13351   6.739   0.440   4.807  0.2651  0.5934  2.6601
   9823SM  C20F13352   6.871   0.258   4.855 -0.1290 -0.0327 -0.4999
   9823SM  H20F13353   6.944   0.319   4.913  1.1464 -1.2695 -0.7594
   9823SM  H20G13354   6.917   0.242   4.755  1.7398 -0.5215  0.3750
   9823SM  C21F13355   6.850   0.125   4.927  0.4306  0.0099  0.4642
   9823SM  H21F13356   6.945   0.068   4.916  0.1529 -0.4039  0.1609
   9823SM  H21G13357   6.766   0.078   4.871  0.0078 -0.1355  1.2020
   9823SM  C22F13358   6.793   0.125   5.069  0.1150 -1.2029  0.5781
   9823SM  H22F13359   6.698   0.181   5.061 -0.4039 -2.3041 -1.5625
   9823SM  H22G13360   6.860   0.187   5.133  0.0226  0.2915 -0.7046
   9823SM  C23F13361   6.765  -0.007   5.125 -0.3412  0.5632  0.0878
   9823SM  H23F13362   6.859  -0.063   5.138 -0.4475  0.5130  0.6600
   9823SM  H23G13363   6.694  -0.070   5.067  1.1965 -0.8231 -0.3525
   9823SM  H23H13364   6.724   0.008   5.227 -0.7887 -1.2653  0.2050
   9923SM     N13365   0.334   0.318   2.310  0.3329 -0.4218 -0.1217
   9923SM   C1513366   0.377   0.458   2.295 -0.4692 -0.8715  0.3478
   9923SM  H15A13367   0.327   0.519   2.369 -0.9964  0.7041 -1.2416
   9923SM  H15B13368   0.365   0.493   2.194  0.9349  2.3395  1.1538
   9923SM  H15C13369   0.484   0.473   2.306 -0.2387  0.5656 -2.8571
   9923SM   C1413370   0.330   0.295   2.459  0.0488  0.3273  0.0357
   9923SM  H14A13371   0.292   0.195   2.472  3.5151 -0.9969  1.0421
   9923SM  H14B13372   0.262   0.364   2.508 -0.4170  0.0719 -0.2464
   9923SM  H14C13373   0.431   0.297   2.497 -0.5697 -0.4331  1.8673
   9923SM   C1313374   0.198   0.295   2.257  0.5155 -0.5609 -0.4978
   9923SM  H13A13375   0.193   0.315   2.151  1.5480  0.0652 -0.4444
   9923SM  H13B13376   0.126   0.359   2.305  1.0749 -1.7485  2.0781
   9923SM  H13C13377   0.176   0.189   2.262 -0.1267 -0.3689  1.8592
   9923SM   C1213378   0.436   0.225   2.250  0.8298  0.3304 -0.8135
   9923SM  H12A13379   0.463   0.248   2.148  0.3697 -0.2655 -1.0784
   9923SM  H12B13380   0.400   0.123   2.257  4.2663 -0.9100  3.2597
   9923SM   C1113381   0.572   0.204   2.313 -1.2543 -0.3408 -0.3382
   9923SM  H11A13382   0.631   0.298   2.306  1.1512 -1.7525 -0.2366
   9923SM  H11B13383   0.629   0.131   2.252  0.0181 -1.6588  2.2726
   9923SM     P13384   0.556   0.018   2.490 -0.3037 -0.1112 -0.4198
   9923SM   O1313385   0.500  -0.060   2.373  0.8407 -0.7666 -1.0584
   9923SM   O1413386   0.690  -0.022   2.538  0.5370 -0.0350  0.2369
   9923SM   O1113387   0.451   0.019   2.610 -0.0427  0.1406  0.1667
   9923SM   O1213388   0.569   0.169   2.449 -0.2639 -0.1618 -0.4189
   9923SM   C1S13389   0.440  -0.083   2.714 -0.5056  0.3187 -0.7587
   9923SM   H1S13390   0.498  -0.173   2.685 -0.5019 -0.3594  1.1916
   9923SM   H1T13391   0.334  -0.111   2.731 -0.5678  1.0166  0.0398
   9923SM    NF13392   0.481  -0.151   2.942  0.3426  0.7032  0.2336
   9923SM   HNF13393   0.411  -0.171   3.011 -1.2905 -1.0388 -1.8029
   9923SM   C2S13394   0.481  -0.040   2.853 -0.1462 -0.2536  0.2166
   9923SM   H2S13395   0.585  -0.000   2.843 -0.2489 -0.1608 -0.5174
   9923SM   C3S13396   0.385   0.071   2.900 -0.5111 -0.1371  0.3830
   9923SM   H3S13397   0.286   0.020   2.891  0.9323 -2.8603 -1.7759
   9923SM    O313398   0.403   0.188   2.815 -0.5719  0.5135 -0.0115
   9923SM   HO313399   0.426   0.146   2.732 -0.9051 -1.1850  0.7146
   9923SM   C4S13400   0.415   0.112   3.042 -0.0522  0.1591  0.6696
   9923SM   H4S13401   0.514   0.157   3.057  0.1759  0.1134 -0.5946
   9923SM   C5S13402   0.336   0.101   3.148  0.2022 -0.3274  0.3273
   9923SM   H5S13403   0.231   0.073   3.133  0.2887 -0.2574 -0.4699
   9923SM   C6S13404   0.348   0.138   3.296 -0.0453  0.3307  0.8400
   9923SM   H6S13405   0.257   0.195   3.326 -0.5668 -0.0300 -0.0065
   9923SM   H6T13406   0.440   0.199   3.297 -0.7669  1.6255 -2.1620
   9923SM   C7S13407   0.355   0.015   3.391 -0.3839  1.6821 -0.2327
   9923SM   H7S13408   0.428  -0.051   3.338  0.2223  3.0220 -1.1366
   9923SM   H7T13409   0.260  -0.043   3.386 -0.3725  1.6857 -0.5229
   9923SM   C8S13410   0.388   0.059   3.534  0.0304  0.4158  0.4677
   9923SM   H8S13411   0.310   0.128   3.572 -1.4715 -0.7003 -0.5024
   9923SM   H8T13412   0.477   0.126   3.534  0.1231  0.3115 -0.9566
   9923SM   C9S13413   0.411  -0.062   3.628  0.2658  0.2580 -0.0873
   9923SM   H9S13414   0.514  -0.099   3.609 -0.3335 -0.7563 -1.5339
   9923SM   H9T13415   0.335  -0.138   3.601  0.0222  0.7746 -0.9006
   9923SM  C10S13416   0.386  -0.023   3.773 -0.2371 -0.0619 -0.2038
   9923SM  H10S13417   0.287   0.017   3.802 -0.7929 -1.9933  0.7007
   9923SM  H10T13418   0.454   0.060   3.803  0.0366 -1.4174  3.2772
   9923SM  C11S13419   0.426  -0.135   3.868  0.5762  0.6925 -0.3181
   9923SM  H11S13420   0.532  -0.157   3.843  0.6538  0.7896 -0.0778
   9923SM  H11T13421   0.364  -0.226   3.854 -1.7625  1.6967  2.5499
   9923SM  C12S13422   0.422  -0.097   4.014 -0.0474 -0.7276 -0.1742
   9923SM  H12S13423   0.323  -0.051   4.035 -1.1219 -4.0024  3.1519
   9923SM  H12T13424   0.498  -0.021   4.042  1.5428 -2.2236 -0.1967
   9923SM  C13S13425   0.438  -0.215   4.101  0.4245  0.0893 -0.1033
   9923SM  H13S13426   0.520  -0.282   4.068 -0.1111 -0.3020 -0.6576
   9923SM  H13T13427   0.351  -0.284   4.102  1.1954 -0.9090 -0.7242
   9923SM  C14S13428   0.475  -0.171   4.241 -0.2030  0.0414  0.3744
   9923SM  H14S13429   0.400  -0.102   4.284  0.9958  0.5031  1.8030
   9923SM  H14T13430   0.572  -0.118   4.251  0.5501 -1.1757 -0.2042
   9923SM  C15S13431   0.466  -0.299   4.326 -0.4318 -0.0840 -0.0564
   9923SM  H15S13432   0.538  -0.371   4.281 -0.7334 -0.0218 -0.6585
   9923SM  H15T13433   0.368  -0.350   4.316 -0.8720  0.2187  2.3468
   9923SM  C16S13434   0.482  -0.272   4.474 -0.9041 -0.4499 -0.2158
   9923SM  H16S13435   0.407  -0.199   4.512  0.5824  0.9487  0.1439
   9923SM  H16T13436   0.583  -0.226   4.486  0.0375 -2.4386 -0.0356
   9923SM  C17S13437   0.474  -0.394   4.564 -0.2330 -0.0875  0.1467
   9923SM  H17S13438   0.375  -0.436   4.535  0.7733 -1.2653 -1.7793
   9923SM  H17T13439   0.477  -0.357   4.669  0.9879 -3.4208  1.4377
   9923SM  C18S13440   0.590  -0.487   4.541  0.3096 -0.2370  0.2600
   9923SM  H18S13441   0.683  -0.427   4.529  0.7564 -1.1163 -0.8714
   9923SM  H18T13442   0.582  -0.537   4.442  3.6456 -0.4569  0.0063
   9923SM  H18U13443   0.613  -0.562   4.619 -1.3192  0.9039  1.9290
   9923SM   C1F13444   0.567  -0.248   2.928  0.3887 -0.0190 -0.4446
   9923SM    OF13445   0.660  -0.233   2.858 -0.6573 -0.3123 -0.7301
   9923SM   C2F13446   0.548  -0.362   3.027  0.5776  0.7126 -0.3790
   9923SM   H2F13447   0.594  -0.453   2.982  1.2214  1.9112 -2.2784
   9923SM   H2G13448   0.440  -0.377   3.046  0.6576  1.4124  0.7252
   9923SM   C3F13449   0.614  -0.329   3.161  0.2524 -0.5409 -0.4297
   9923SM   H3F13450   0.573  -0.235   3.205 -3.3411 -2.0284 -0.2474
   9923SM   H3G13451   0.718  -0.297   3.137 -0.1019  2.7031  1.6346
   9923SM   C4F13452   0.595  -0.444   3.270 -0.2222 -0.1451 -0.1145
   9923SM   H4F13453   0.634  -0.537   3.223 -0.1380  0.1510 -0.6468
   9923SM   H4G13454   0.489  -0.452   3.304  0.0194 -0.7382  0.5056
   9923SM   C5F13455   0.675  -0.425   3.399 -0.0277 -0.5532  0.0029
   9923SM   H5F13456   0.660  -0.321   3.436  2.6133 -0.4324  0.9725
   9923SM   H5G13457   0.784  -0.430   3.378  0.2145  0.5875  0.8837
   9923SM   C6F13458   0.639  -0.526   3.511  0.0768  0.8196 -0.4476
   9923SM   H6F13459   0.708  -0.613   3.523 -1.4853 -0.3138  0.7081
   9923SM   H6G13460   0.544  -0.575   3.481  0.5914  0.0344 -0.8194
   9923SM   C7F13461   0.625  -0.471   3.656 -0.1423 -1.0691  0.1115
   9923SM   H7F13462   0.542  -0.397   3.650  1.9183  1.2473 -3.7667
   9923SM   H7G13463   0.722  -0.424   3.680  1.2334 -2.7155 -1.9024
   9923SM   C8F13464   0.587  -0.578   3.754 -0.0164 -0.5561  0.3519
   9923SM   H8F13465   0.642  -0.675   3.745  0.1941 -0.3386 -0.8144
   9923SM   H8G13466   0.480  -0.601   3.736 -0.0841  0.2123 -0.2418
   9923SM   C9F13467   0.607  -0.527   3.903  0.0882  0.3474 -0.7399
   9923SM   H9F13468   0.547  -0.588   3.974  1.3594 -1.2393 -0.9638
   9923SM   H9G13469   0.561  -0.427   3.915  1.0393  0.5956  1.2120
   9923SM  C10F13470   0.758  -0.510   3.954 -0.1226 -0.5384  0.2980
   9923SM  H10F13471   0.816  -0.437   3.894 -0.5018 -1.3201 -1.0645
   9923SM  H10G13472   0.816  -0.604   3.949  0.6160 -0.2272  2.0432
   9923SM  C11F13473   0.776  -0.445   4.101  0.6023 -0.0440  0.0707
   9923SM  H11F13474   0.707  -0.500   4.168 -1.6688 -1.5125 -3.1721
   9923SM  H11G13475   0.735  -0.342   4.095  1.9598  0.5215  0.0493
   9923SM  C12F13476   0.922  -0.444   4.145 -0.0693 -0.2952  0.2349
   9923SM  H12F13477   0.977  -0.368   4.086 -1.3963 -0.3177 -1.1106
   9923SM  H12G13478   0.972  -0.542   4.128  1.3299  0.6107 -1.1236
   9923SM  C13F13479   0.936  -0.408   4.298  0.3016 -0.5950 -0.5670
   9923SM  H13F13480   0.866  -0.470   4.358  0.8753  1.1590  2.0699
   9923SM  H13G13481   0.894  -0.307   4.318  1.2495 -0.7835  2.9474
   9923SM  C14F13482   1.073  -0.429   4.356  0.0146 -0.4186 -0.2178
   9923SM  H14F13483   1.120  -0.340   4.403  0.0776  0.3657 -1.7279
   9923SM  H14G13484   1.147  -0.449   4.275  0.1482 -0.6964 -0.0312
   9923SM  C15F13485   1.093  -0.552   4.443 -0.1435 -0.1555  0.1437
   9923SM  H15F13486   1.077  -0.645   4.384  0.9417 -0.1371 -0.1984
   9923SM  H15G13487   1.024  -0.553   4.530 -0.4048  0.3752 -0.0536
   9923SM  C16F13488   1.230  -0.554   4.509 -0.0047 -0.1134  0.5431
   9923SM  H16F13489   1.241  -0.482   4.593  1.1154  2.4949 -1.7321
   9923SM  H16G13490   1.314  -0.523   4.445 -1.1029  1.2695 -0.2767
   9923SM  C17F13491   1.269  -0.693   4.563 -0.2512  0.2697  0.1693
   9923SM  H17F13492   1.190  -0.745   4.621 -0.4048  0.4272  0.0996
   9923SM  H17G13493   1.360  -0.676   4.624 -0.1533  1.4316 -0.2800
   9923SM  C18F13494   1.307  -0.782   4.445  0.2136  0.0157 -0.0444
   9923SM  H18F13495   1.360  -0.741   4.356 -1.2886 -1.9649 -1.9726
   9923SM  H18G13496   1.206  -0.809   4.408  0.6547  0.1129 -1.3991
   9923SM  C19F13497   1.370  -0.916   4.473  0.1517  0.7077  0.3324
   9923SM  H19F13498   1.357  -0.992   4.393 -3.5382  1.2891  0.2004
   9923SM  H19G13499   1.325  -0.954   4.568  0.7492 -0.0670  0.3150
   9923SM  C20F13500   1.515  -0.908   4.516 -0.7588  0.9213  0.0544
   9923SM  H20F13501   1.530  -0.844   4.605 -1.3677  1.3076 -0.1190
   9923SM  H20G13502   1.578  -0.875   4.431  0.7536 -1.5840  0.0999
   9923SM  C21F13503   1.557  -1.045   4.560  0.2078  0.4540 -0.1312
   9923SM  H21F13504   1.538  -1.120   4.481  0.7690  0.9339 -0.7291
   9923SM  H21G13505   1.502  -1.075   4.652  1.7649 -2.2093  0.0348
   9923SM  C22F13506   1.712  -1.059   4.592  0.5358  0.2075  0.6097
   9923SM  H22F13507   1.736  -1.161   4.629  1.8709 -0.1615 -1.1566
   9923SM  H22G13508   1.734  -0.991   4.677 -1.0647  1.3859  0.1343
   9923SM  C23F13509   1.801  -1.039   4.468 -0.0651 -0.9823  0.1984
   9923SM  H23F13510   1.906  -1.041   4.504 -0.5043 -0.7128  1.5273
   9923SM  H23G13511   1.789  -0.937   4.425  1.9965 -0.1295  1.5258
   9923SM  H23H13512   1.786  -1.117   4.391 -1.3131 -0.3396 -0.2480
  10023SM     N13513   0.146   7.418   2.382  0.9245  0.0163  0.3943
  10023SM   C1513514   0.040   7.444   2.273  0.0433 -0.5351 -0.2798
  10023SM  H15A13515   0.043   7.368   2.196 -0.2250 -1.3578  0.5023
  10023SM  H15B13516   0.062   7.544   2.239  1.5029 -1.0158 -0.8338
  10023SM  H15C13517  -0.060   7.441   2.312  0.3237  0.3810  0.5644
  10023SM   C1413518   0.107   7.295   2.439 -0.2014 -0.1421  0.4984
  10023SM  H14A13519   0.174   7.276   2.522 -0.2554  2.3925  1.2012
  10023SM  H14B13520   0.109   7.214   2.368 -0.1084  0.7052 -0.4951
  10023SM  H14C13521   0.009   7.303   2.484  0.7761  0.0658  2.6877
  10023SM   C1313522   0.283   7.415   2.335  0.5090  0.5497  0.7382
  10023SM  H13A13523   0.309   7.516   2.306 -2.8125  1.8312  1.7882
  10023SM  H13B13524   0.283   7.346   2.251 -1.3332  1.3274  0.0456
  10023SM  H13C13525   0.348   7.369   2.408  0.6080  1.3499  1.1591
  10023SM   C1213526   0.135   7.523   2.489  0.1425  0.1334  0.2122
  10023SM  H12A13527   0.198   7.499   2.574  0.7611 -2.9784 -0.9934
  10023SM  H12B13528   0.034   7.524   2.529  0.3209  1.0169  0.6860
  10023SM   C1113529   0.158   7.674   2.440  0.4225 -0.2621  0.1880
  10023SM  H11A13530   0.245   7.681   2.371 -0.5436  0.0619 -1.0316
  10023SM  H11B13531   0.177   7.730   2.534 -2.1605 -0.4506  0.8900
  10023SM     P13532  -0.082   7.770   2.456 -0.5455  0.3739  0.1616
  10023SM   O1313533  -0.162   7.876   2.382 -0.2742 -0.1001 -0.5786
  10023SM   O1413534  -0.152   7.648   2.507  0.4037 -0.5712 -0.5542
  10023SM   O1113535  -0.013   7.836   2.582 -0.0124  0.4202  0.4615
  10023SM   O1213536   0.045   7.728   2.370  0.4202 -0.3353  0.6354
  10023SM   C1S13537  -0.070   7.829   2.712  0.7247 -0.0486  0.2825
  10023SM   H1S13538  -0.101   7.729   2.747 -0.3773  0.8991  2.1952
  10023SM   H1T13539  -0.162   7.892   2.712  0.6635 -0.1372  0.7380
  10023SM    NF13540  -0.035   7.847   2.948 -0.8774 -0.7775 -0.0568
  10023SM   HNF13541  -0.080   7.919   3.000 -0.2387  0.0357 -0.6142
  10023SM   C2S13542   0.017   7.885   2.816  0.0917 -0.1662 -0.8315
  10023SM   H2S13543   0.119   7.843   2.811  1.4806  2.0914  3.3937
  10023SM   C3S13544   0.033   8.033   2.798  0.2207  0.0621  0.6626
  10023SM   H3S13545  -0.065   8.082   2.819 -0.1686 -0.1977 -0.4536
  10023SM    O313546   0.075   8.079   2.669 -0.2255  0.4425 -0.5784
  10023SM   HO313547   0.058   8.002   2.614  1.3667  0.0494 -0.5541
  10023SM   C4S13548   0.121   8.087   2.904  0.3621 -0.2880 -0.3877
  10023SM   H4S13549   0.219   8.039   2.921  0.7195  0.7129  0.4412
  10023SM   C5S13550   0.113   8.206   2.974  0.2315  0.2367  0.0766
  10023SM   H5S13551   0.034   8.270   2.933 -1.1276 -1.7954 -0.6084
  10023SM   C6S13552   0.208   8.251   3.083  0.1305  0.2906 -0.2201
  10023SM   H6S13553   0.149   8.304   3.161 -0.8879 -3.3516  1.6923
  10023SM   H6T13554   0.288   8.322   3.052  0.4431 -0.2186 -0.5919
  10023SM   C7S13555   0.285   8.146   3.163  0.2214 -0.1617  0.2500
  10023SM   H7S13556   0.375   8.116   3.104 -0.8126  0.6482 -1.8416
  10023SM   H7T13557   0.222   8.055   3.168  1.1487 -0.8310  0.1407
  10023SM   C8S13558   0.343   8.202   3.297  0.1655 -0.6787  0.0397
  10023SM   H8S13559   0.366   8.310   3.288 -2.3846  0.0021  0.7532
  10023SM   H8T13560   0.442   8.154   3.310  1.8327  2.4335 -0.3833
  10023SM   C9S13561   0.261   8.165   3.422 -0.1048 -0.2088  0.2294
  10023SM   H9S13562   0.207   8.071   3.401  0.1565 -0.2100 -0.4679
  10023SM   H9T13563   0.181   8.239   3.444  1.2007  0.6260  2.5735
  10023SM  C10S13564   0.336   8.139   3.550 -0.4311  0.1803 -0.3230
  10023SM  H10S13565   0.389   8.232   3.580 -1.2612  0.7230 -0.4787
  10023SM  H10T13566   0.418   8.069   3.523 -0.8086 -0.0860 -0.7978
  10023SM  C11S13567   0.249   8.102   3.674  0.8332  0.8988 -0.9691
  10023SM  H11S13568   0.189   8.011   3.653  1.2263  0.1372  0.9854
  10023SM  H11T13569   0.185   8.183   3.714  0.3166 -0.3976  0.9723
  10023SM  C12S13570   0.344   8.073   3.799  0.0973 -0.2692  0.1599
  10023SM  H12S13571   0.389   8.166   3.839 -0.6198 -1.3225  3.7664
  10023SM  H12T13572   0.429   8.011   3.762  0.0590  0.1857 -0.7271
  10023SM  C13S13573   0.280   8.011   3.928  0.0113 -0.4500  0.9343
  10023SM  H13S13574   0.273   7.902   3.908 -1.0855 -0.3783  0.8526
  10023SM  H13T13575   0.174   8.045   3.926 -0.4308 -1.7998 -0.2521
  10023SM  C14S13576   0.370   8.038   4.044 -0.2738  0.0268  0.1725
  10023SM  H14S13577   0.356   8.148   4.053  1.2917  0.2413  0.1940
  10023SM  H14T13578   0.478   8.031   4.019 -0.0260  0.5563  1.0260
  10023SM  C15S13579   0.346   7.974   4.182 -0.7795 -0.1273  0.0503
  10023SM  H15S13580   0.396   7.875   4.179  1.2142  0.8380 -1.0171
  10023SM  H15T13581   0.243   7.944   4.210 -0.6542 -1.5759 -0.9265
  10023SM  C16S13582   0.409   8.054   4.298 -0.7142  0.2166 -0.4917
  10023SM  H16S13583   0.373   8.158   4.284 -0.2038  0.3881 -0.5620
  10023SM  H16T13584   0.518   8.057   4.275 -0.9911  1.4516 -1.7982
  10023SM  C17S13585   0.364   8.017   4.437  0.2289 -0.0875 -0.9987
  10023SM  H17S13586   0.253   8.023   4.439  0.0006 -2.8502 -1.0036
  10023SM  H17T13587   0.408   8.089   4.508 -1.3452  1.7668 -1.8247
  10023SM  C18S13588   0.387   7.872   4.480 -0.1237 -0.6365  0.3461
  10023SM  H18S13589   0.497   7.861   4.469 -0.1842  0.8892 -3.5393
  10023SM  H18T13590   0.328   7.797   4.422  0.5094 -1.3489  0.6167
  10023SM  H18U13591   0.356   7.851   4.584 -0.7505 -0.6330  0.1658
  10023SM   C1F13592  -0.020   7.725   2.998 -0.2899  0.2144 -0.3362
  10023SM    OF13593   0.051   7.646   2.940  0.3103 -0.1275  0.4253
  10023SM   C2F13594  -0.080   7.700   3.129 -0.5169 -0.5229  0.2904
  10023SM   H2F13595  -0.189   7.720   3.126 -0.3545  0.3554 -0.3710
  10023SM   H2G13596  -0.035   7.774   3.198  1.7044  2.7472 -4.1263
  10023SM   C3F13597  -0.066   7.557   3.182 -0.0856 -0.4186  0.7356
  10023SM   H3F13598   0.044   7.547   3.193 -0.1257 -1.9500 -0.0631
  10023SM   H3G13599  -0.114   7.489   3.109 -0.2850  0.8906 -0.4056
  10023SM   C4F13600  -0.120   7.525   3.324 -0.5477 -1.0668  0.0604
  10023SM   H4F13601  -0.117   7.414   3.331  1.2650 -0.9564  2.0170
  10023SM   H4G13602  -0.227   7.552   3.338  0.0187  0.4810  1.8715
  10023SM   C5F13603  -0.037   7.599   3.431 -0.9112  0.0117  0.5069
  10023SM   H5F13604  -0.025   7.708   3.417  1.4228  0.0031  1.7871
  10023SM   H5G13605   0.065   7.554   3.432 -0.3342  1.1889 -1.2515
  10023SM   C6F13606  -0.099   7.581   3.572 -0.1606  0.5890  0.4484
  10023SM   H6F13607  -0.118   7.472   3.586  0.1019  0.4912  0.0505
  10023SM   H6G13608  -0.195   7.637   3.568  0.1618  1.0844 -0.9756
  10023SM   C7F13609  -0.022   7.637   3.687  0.3299 -0.1914 -0.7108
  10023SM   H7F13610  -0.019   7.747   3.671 -0.5857 -0.0979 -0.2782
  10023SM   H7G13611   0.080   7.593   3.694 -0.6217 -2.7562 -1.9701
  10023SM   C8F13612  -0.101   7.620   3.817  0.0938  0.3232 -0.7040
  10023SM   H8F13613  -0.125   7.512   3.823  0.4748  0.2774  0.1741
  10023SM   H8G13614  -0.195   7.680   3.819  0.2128  0.5871  2.7909
  10023SM   C9F13615  -0.036   7.666   3.952 -0.1734  0.1220 -0.0561
  10023SM   H9F13616  -0.043   7.775   3.970 -1.7150 -0.2555  1.9805
  10023SM   H9G13617   0.073   7.643   3.958 -0.5417 -1.3393  2.2208
  10023SM  C10F13618  -0.091   7.593   4.085 -0.2738 -0.7974 -0.2180
  10023SM  H10F13619  -0.134   7.494   4.060 -3.1855  0.5963 -1.2313
  10023SM  H10G13620  -0.174   7.658   4.120  1.8132  1.5918  0.6048
  10023SM  C11F13621   0.022   7.588   4.191  0.0767 -0.3909 -0.5288
  10023SM  H11F13622   0.035   7.692   4.230  1.0459 -1.2066  1.4929
  10023SM  H11G13623   0.117   7.548   4.151 -0.6108 -2.3834 -0.2917
  10023SM  C12F13624  -0.028   7.513   4.308 -0.1775 -0.0573  0.5854
  10023SM  H12F13625  -0.071   7.413   4.289 -0.7491  0.2654  0.1290
  10023SM  H12G13626  -0.108   7.574   4.356 -0.9394 -2.4036  2.4708
  10023SM  C13F13627   0.085   7.507   4.418  0.7445 -0.2429  0.2610
  10023SM  H13F13628   0.103   7.615   4.437 -1.3091  0.3861 -1.0559
  10023SM  H13G13629   0.177   7.460   4.378  1.1543 -1.4133  2.4081
  10023SM  C14F13630   0.031   7.441   4.540  0.6718  0.1770  0.6778
  10023SM  H14F13631  -0.010   7.341   4.515 -3.5268  1.0425  3.0768
  10023SM  H14G13632  -0.061   7.492   4.577 -0.3921 -2.1668  1.4203
  10023SM  C15F13633   0.125   7.448   4.660  0.6677 -0.0620  0.2960
  10023SM  H15F13634   0.144   7.555   4.681  0.5394  0.3645 -1.5919
  10023SM  H15G13635   0.218   7.398   4.626 -0.4602 -1.0573 -1.4532
  10023SM  C16F13636   0.077   7.398   4.794 -0.4747 -0.4586  0.3111
  10023SM  H16F13637   0.003   7.469   4.836 -1.5863  0.2470 -2.5802
  10023SM  H16G13638   0.157   7.394   4.870 -1.2362  2.0203  1.3316
  10023SM  C17F13639   0.014   7.258   4.793 -0.0030  0.2703 -0.4214
  10023SM  H17F13640  -0.081   7.258   4.736 -1.3301  0.1311  1.6814
  10023SM  H17G13641  -0.019   7.256   4.899 -0.9884  0.1053 -0.7253
  10023SM  C18F13642   0.126   7.160   4.757  0.3368  0.2318  0.4999
  10023SM  H18F13643   0.200   7.151   4.840  1.5080  0.5592 -0.4881
  10023SM  H18G13644   0.182   7.202   4.671 -0.9375  1.5460  0.2716
  10023SM  C19F13645   0.071   7.025   4.704 -0.7871 -0.0035  0.4614
  10023SM  H19F13646   0.160   6.959   4.702  1.1545  2.4448  0.4880
  10023SM  H19G13647   0.040   7.023   4.598 -1.8511 -1.7391  0.7698
  10023SM  C20F13648  -0.049   6.969   4.778  0.2154  0.0448  0.3554
  10023SM  H20F13649  -0.123   7.048   4.801  1.2868  1.9714 -2.2700
  10023SM  H20G13650  -0.009   6.944   4.879  0.4452 -2.7342 -0.3244
  10023SM  C21F13651  -0.114   6.847   4.725  0.3503 -0.3031 -0.1294
  10023SM  H21F13652  -0.169   6.892   4.639  1.1161 -0.9619 -0.9817
  10023SM  H21G13653  -0.187   6.814   4.802  0.9295  1.4973  1.2629
  10023SM  C22F13654  -0.009   6.732   4.694  0.8333 -0.1982 -0.3837
  10023SM  H22F13655   0.043   6.708   4.789 -2.0246  1.0197  1.6390
  10023SM  H22G13656   0.070   6.775   4.629  1.3674  2.9499  2.0781
  10023SM  C23F13657  -0.066   6.601   4.630 -0.4255 -0.8652  0.3225
  10023SM  H23F13658  -0.163   6.579   4.679 -0.5643  0.5539  0.7379
  10023SM  H23G13659   0.006   6.517   4.644  0.9236  0.3277  0.8238
  10023SM  H23H13660  -0.097   6.628   4.527 -1.7629  0.2670  0.9929
  101CHL1    C313661   3.259   5.941   6.820 -0.1958 -0.0068  0.1873
  101CHL1    H313662   3.196   6.012   6.763  0.1102 -1.9644 -2.8444
  101CHL1    O313663   3.267   5.965   6.955 -0.5138  0.2096 -0.3065
  101CHL1   H3'13664   3.340   5.912   6.988 -1.4723 -0.8270  0.2278
  101CHL1    C413665   3.218   5.801   6.790 -0.7850 -0.6314 -0.7597
  101CHL1   H4A13666   3.285   5.730   6.843 -0.8237  0.9535  1.5524
  101CHL1   H4B13667   3.116   5.792   6.834 -0.6168 -2.2118 -0.6458
  101CHL1    C513668   3.213   5.772   6.636 -0.3094  0.1142 -0.2547
  101CHL1    C613669   3.096   5.741   6.575 -0.3551 -0.5456 -0.1979
  101CHL1    H613670   3.003   5.727   6.632 -1.0770 -0.5036 -1.3345
  101CHL1    C713671   3.091   5.707   6.428 -0.1152  0.3981 -0.6396
  101CHL1   H7A13672   3.028   5.616   6.413  1.3733 -0.8327  0.2262
  101CHL1   H7B13673   3.036   5.793   6.385 -2.5963 -1.6214 -1.7369
  101CHL1    C813674   3.226   5.679   6.366 -0.5121 -0.7561 -0.2653
  101CHL1    H813675   3.259   5.579   6.399 -1.3212 -0.5096  1.3875
  101CHL1   C1413676   3.217   5.678   6.219 -0.3662  0.2446 -0.3182
  101CHL1   H1413677   3.180   5.777   6.184 -0.5248  0.4987  0.5596
  101CHL1   C1513678   3.114   5.575   6.159  0.3560  0.8551  0.3603
  101CHL1  H15A13679   3.135   5.478   6.210 -0.5991  1.2335  1.5245
  101CHL1  H15B13680   3.009   5.597   6.188 -0.0125 -0.4695  0.1130
  101CHL1   C1613681   3.151   5.572   6.009  0.4020 -0.2959 -0.3147
  101CHL1  H16A13682   3.144   5.466   5.978  1.0363 -0.5652  0.4308
  101CHL1  H16B13683   3.075   5.624   5.947 -0.7217 -1.0479  0.4150
  101CHL1   C1713684   3.286   5.646   5.991 -0.7524  0.0588  0.0629
  101CHL1   H1713685   3.268   5.750   5.956  3.1272  1.3883  1.4346
  101CHL1   C1313686   3.346   5.654   6.135  0.0333  0.3569  0.4048
  101CHL1   C1813687   3.401   5.513   6.170 -0.1164  0.4121  0.5361
  101CHL1  H18A13688   3.407   5.500   6.280 -2.7855  1.5332  0.8817
  101CHL1  H18B13689   3.337   5.428   6.138 -1.2861  1.5757 -0.3113
  101CHL1  H18C13690   3.501   5.498   6.123  0.1108  1.6011  0.6001
  101CHL1   C1213691   3.441   5.762   6.179 -0.3923  0.3767 -0.3098
  101CHL1  H12A13692   3.536   5.725   6.134 -0.7515 -1.8850  0.6479
  101CHL1  H12B13693   3.396   5.860   6.152  0.5808  1.3744  1.4678
  101CHL1   C1113694   3.465   5.763   6.335  0.2621 -0.0968 -0.5264
  101CHL1  H11A13695   3.497   5.663   6.370  3.5350  0.0874 -2.5948
  101CHL1  H11B13696   3.539   5.836   6.374  1.2257 -1.3418  0.0205
  101CHL1    C913697   3.331   5.791   6.409 -0.2605 -0.3308  0.4852
  101CHL1    H913698   3.304   5.894   6.377  2.8046  0.7787  1.1403
  101CHL1   C1013699   3.346   5.799   6.569  0.5655 -0.6461  0.1591
  101CHL1   C1913700   3.437   5.681   6.614 -0.1663  0.4220 -0.0657
  101CHL1  H19A13701   3.538   5.687   6.567  0.3749 -0.1422  0.9644
  101CHL1  H19B13702   3.467   5.685   6.721  0.0999  1.3629 -0.1686
  101CHL1  H19C13703   3.390   5.582   6.597 -1.6557  0.9232  0.9564
  101CHL1    C113704   3.404   5.935   6.608 -0.2383 -0.4482 -0.5550
  101CHL1   H1A13705   3.512   5.930   6.584 -0.7919  0.1739 -3.5271
  101CHL1   H1B13706   3.342   6.013   6.558 -0.2287  0.1763  0.3751
  101CHL1    C213707   3.403   5.961   6.762  0.8656 -0.6093  0.0074
  101CHL1   H2A13708   3.427   6.067   6.785  0.7095 -0.4292 -0.6202
  101CHL1   H2B13709   3.475   5.888   6.804 -0.0642 -1.7044 -0.2590
  101CHL1   C2013710   3.378   5.586   5.885  0.2976  0.6516 -0.1247
  101CHL1   H2013711   3.393   5.478   5.906  1.6971  0.7352 -0.5916
  101CHL1   C2113712   3.510   5.660   5.863  0.0498  0.5215 -0.2560
  101CHL1  H21A13713   3.574   5.632   5.776  2.1351  1.3094  0.9486
  101CHL1  H21B13714   3.581   5.646   5.947 -0.3668  0.1055  0.0301
  101CHL1  H21C13715   3.500   5.770   5.860  0.7482  0.6642  1.4430
  101CHL1   C2213716   3.309   5.590   5.748 -0.1357 -0.3441 -0.0266
  101CHL1  H22A13717   3.202   5.560   5.756  0.0116 -0.4780  2.0740
  101CHL1  H22B13718   3.321   5.691   5.703 -2.1163  0.6232  1.4801
  101CHL1   C2313719   3.373   5.492   5.648  0.6909 -0.1976 -0.8447
  101CHL1  H23A13720   3.483   5.499   5.638  0.8446 -2.8638 -1.6156
  101CHL1  H23B13721   3.361   5.389   5.686  1.4262 -0.4918 -1.3740
  101CHL1   C2413722   3.296   5.504   5.514 -0.1060 -1.0017 -0.2672
  101CHL1  H24A13723   3.191   5.527   5.540  0.7247  0.3507  2.2325
  101CHL1  H24B13724   3.328   5.598   5.465  0.8761  0.3081  2.6656
  101CHL1   C2513725   3.314   5.396   5.408 -0.5595  0.5633 -0.2404
  101CHL1   H2513726   3.271   5.304   5.453 -0.8656  0.4989 -0.6647
  101CHL1   C2613727   3.235   5.421   5.280  0.9068  0.3916  0.2337
  101CHL1  H26A13728   3.132   5.457   5.302  0.4024 -0.4846 -0.6207
  101CHL1  H26B13729   3.296   5.492   5.219  1.8084 -0.3651  0.2366
  101CHL1  H26C13730   3.211   5.327   5.226 -0.5553  0.7644  0.1879
  101CHL1   C2713731   3.463   5.374   5.374 -0.3210  0.0115 -0.9867
  101CHL1  H27A13732   3.493   5.299   5.297  0.1524 -2.6797  1.6260
  101CHL1  H27B13733   3.505   5.472   5.342  1.6347  0.2550  1.9667
  101CHL1  H27C13734   3.511   5.343   5.469 -2.5298  1.0786  0.5625
  102CHL1    C313735   2.860   4.390   6.732  0.1063 -0.6489 -0.1859
  102CHL1    H313736   2.968   4.381   6.754  0.2868  0.8317 -0.3159
  102CHL1    O313737   2.808   4.351   6.851  0.1648 -0.0969 -0.4869
  102CHL1   H3'13738   2.713   4.367   6.846 -0.2172 -1.9872 -0.2269
  102CHL1    C413739   2.819   4.536   6.690  0.0879 -0.4142 -0.1166
  102CHL1   H4A13740   2.708   4.543   6.684  0.1110 -0.3748 -0.5400
  102CHL1   H4B13741   2.849   4.598   6.777 -1.4298  1.9919 -1.2010
  102CHL1    C513742   2.885   4.575   6.560 -0.0486 -0.4136 -0.4640
  102CHL1    C613743   2.960   4.685   6.543 -0.5905  1.0349 -0.5467
  102CHL1    H613744   2.978   4.743   6.635 -0.4794 -1.3614  1.0325
  102CHL1    C713745   3.032   4.733   6.419 -0.2662 -0.1228 -0.3440
  102CHL1   H7A13746   2.991   4.833   6.393 -1.4653 -0.2502  0.9788
  102CHL1   H7B13747   3.143   4.739   6.429 -0.2652 -1.0503  0.3393
  102CHL1    C813748   2.996   4.646   6.301 -0.7274 -0.0178  0.2491
  102CHL1    H813749   2.899   4.681   6.261  1.4039  2.4439 -3.4010
  102CHL1   C1413750   3.092   4.667   6.181  0.4177  0.6182  0.3109
  102CHL1   H1413751   3.189   4.619   6.206 -0.0757 -0.6646 -0.1701
  102CHL1   C1513752   3.130   4.817   6.147  0.2061  0.7345 -0.2858
  102CHL1  H15A13753   3.033   4.872   6.149 -0.6192 -0.5546 -2.1675
  102CHL1  H15B13754   3.205   4.859   6.218 -0.5218  1.2503  0.1959
  102CHL1   C1613755   3.199   4.792   6.013 -0.2057 -0.7270  0.0368
  102CHL1  H16A13756   3.146   4.861   5.944  1.3557  0.9055  0.3700
  102CHL1  H16B13757   3.300   4.839   6.010 -0.7438  0.4433 -2.5993
  102CHL1   C1713758   3.178   4.646   5.975 -0.4502 -0.3483  0.7754
  102CHL1   H1713759   3.273   4.601   6.013  0.7921 -0.1092 -1.8315
  102CHL1   C1313760   3.063   4.585   6.053 -0.0600 -0.2271 -0.4838
  102CHL1   C1813761   2.920   4.632   5.992  0.3259 -0.1339  0.3178
  102CHL1  H18A13762   2.901   4.738   6.019  0.1217  0.0567 -0.5383
  102CHL1  H18B13763   2.931   4.618   5.882  2.2269  0.5128  0.3869
  102CHL1  H18C13764   2.833   4.573   6.026 -0.7022  2.1891  1.9344
  102CHL1   C1213765   3.058   4.439   6.091 -0.4278  0.7501  0.4178
  102CHL1  H12A13766   3.020   4.372   6.011  2.0537 -2.3155  1.5741
  102CHL1  H12B13767   3.159   4.401   6.119 -0.5605  0.4346  0.4702
  102CHL1   C1113768   2.964   4.415   6.205 -0.2349  0.2161  0.3651
  102CHL1  H11A13769   2.858   4.421   6.174 -0.8476  1.1130  2.4362
  102CHL1  H11B13770   2.983   4.310   6.237 -0.2748 -0.2135 -0.9905
  102CHL1    C913771   2.989   4.504   6.331 -0.1590  0.8430 -0.5687
  102CHL1    H913772   3.091   4.484   6.370  0.5152  3.3502 -0.8831
  102CHL1   C1013773   2.878   4.472   6.447 -0.6013 -0.0471  0.4690
  102CHL1   C1913774   2.731   4.476   6.390  0.2025  0.4297 -0.0040
  102CHL1  H19A13775   2.716   4.388   6.323 -0.8991  0.3766  0.3062
  102CHL1  H19B13776   2.660   4.444   6.468 -0.2365 -3.0514 -1.6463
  102CHL1  H19C13777   2.703   4.574   6.344  2.5403  1.1863  0.0272
  102CHL1    C113778   2.900   4.326   6.499  1.0116 -0.4699 -0.3184
  102CHL1   H1A13779   2.869   4.257   6.417  1.1298  0.4275 -1.1452
  102CHL1   H1B13780   3.011   4.319   6.507  1.2556  3.2956  2.0712
  102CHL1    C213781   2.828   4.287   6.624 -0.4522 -0.1620  0.1144
  102CHL1   H2A13782   2.861   4.189   6.664 -0.5746  0.0179  0.6615
  102CHL1   H2B13783   2.719   4.268   6.608 -0.7024  0.8989  0.5222
  102CHL1   C2013784   3.199   4.620   5.823 -0.2569 -0.6377 -0.0228
  102CHL1   H2013785   3.111   4.666   5.774  0.4705 -1.1750 -1.9490
  102CHL1   C2113786   3.170   4.471   5.792 -0.1135 -0.7406 -0.4841
  102CHL1  H21A13787   3.253   4.415   5.839 -0.0558  2.2070  3.4508
  102CHL1  H21B13788   3.165   4.458   5.681  0.8042 -0.5169 -0.5606
  102CHL1  H21C13789   3.071   4.437   5.828  0.6141 -0.5704  1.8089
  102CHL1   C2213790   3.339   4.668   5.771  0.2891  0.1145 -0.2469
  102CHL1  H22A13791   3.360   4.766   5.819  0.2638  0.9630 -1.8904
  102CHL1  H22B13792   3.409   4.590   5.808  1.4815  1.1586 -0.2384
  102CHL1   C2313793   3.332   4.681   5.616  0.7362  0.0974  0.7704
  102CHL1  H23A13794   3.428   4.677   5.560 -0.0710 -3.1708 -0.6241
  102CHL1  H23B13795   3.273   4.606   5.560  0.6475 -0.7883  1.9984
  102CHL1   C2413796   3.276   4.819   5.567 -0.4375  0.2792 -0.0527
  102CHL1  H24A13797   3.173   4.835   5.606  0.0927  0.3427  1.3987
  102CHL1  H24B13798   3.348   4.887   5.617 -0.3590 -0.8648  1.4854
  102CHL1   C2513799   3.273   4.842   5.412  0.7848 -0.4336  0.3520
  102CHL1   H2513800   3.376   4.833   5.372  0.7302  2.8868 -0.8252
  102CHL1   C2613801   3.180   4.738   5.332 -0.0214 -1.0865 -0.3169
  102CHL1  H26A13802   3.071   4.752   5.351 -0.2151 -1.0185 -1.3922
  102CHL1  H26B13803   3.189   4.745   5.221 -1.9178  0.0022 -0.4461
  102CHL1  H26C13804   3.213   4.635   5.356 -1.5017 -1.2492  1.2386
  102CHL1   C2713805   3.225   4.987   5.374 -0.4080  0.0913 -0.5154
  102CHL1  H27A13806   3.204   4.994   5.265 -1.1067  0.7152 -0.3541
  102CHL1  H27B13807   3.130   5.020   5.422  0.0965 -1.5881  1.8293
  102CHL1  H27C13808   3.305   5.053   5.415 -1.6756  0.5086  1.4165
  103CHL1    C313809   1.669   3.692   6.767  0.3316  0.1221  0.2512
  103CHL1    H313810   1.776   3.699   6.796  0.0256  0.5754  1.3522
  103CHL1    O313811   1.596   3.668   6.893 -0.6873 -0.0201 -0.2077
  103CHL1   H3'13812   1.505   3.664   6.864 -0.4329  2.3655 -1.5842
  103CHL1    C413813   1.612   3.816   6.710 -0.1335 -0.5161  0.1498
  103CHL1   H4A13814   1.502   3.807   6.706 -0.2227  0.8740 -1.3804
  103CHL1   H4B13815   1.654   3.898   6.772 -0.2018 -1.0687  0.9413
  103CHL1    C513816   1.658   3.837   6.567 -0.5325  0.1418 -0.1303
  103CHL1    C613817   1.704   3.956   6.515  0.0789  0.0246  0.2660
  103CHL1    H613818   1.714   4.043   6.581 -1.8825 -2.0584  3.6405
  103CHL1    C713819   1.733   3.989   6.371  0.1834  0.2238 -0.3779
  103CHL1   H7A13820   1.687   4.087   6.347 -0.6035 -0.7839 -3.5589
  103CHL1   H7B13821   1.837   4.004   6.334  0.3289  0.2680  0.0502
  103CHL1    C813822   1.668   3.880   6.280  0.2112 -0.1955  0.1979
  103CHL1    H813823   1.560   3.904   6.277  0.3014  0.2191  0.2482
  103CHL1   C1413824   1.725   3.892   6.139 -0.3242 -0.7344  0.2697
  103CHL1   H1413825   1.835   3.876   6.149 -0.1444  0.9803  1.4545
  103CHL1   C1513826   1.730   4.035   6.073  0.0174  0.2686  0.0547
  103CHL1  H15A13827   1.634   4.087   6.092  0.9268  1.9998  0.2279
  103CHL1  H15B13828   1.814   4.103   6.100  1.2452 -1.8533  1.8911
  103CHL1   C1613829   1.741   4.009   5.921 -0.0190 -0.3087 -0.1910
  103CHL1  H16A13830   1.655   4.059   5.871 -0.2025 -0.8089 -0.3786
  103CHL1  H16B13831   1.831   4.052   5.872  0.3592  0.4859  1.1484
  103CHL1   C1713832   1.729   3.857   5.906 -0.3618  0.4572  0.1967
  103CHL1   H1713833   1.833   3.817   5.906 -1.0919 -1.7709  2.7354
  103CHL1   C1313834   1.662   3.801   6.034  0.4971 -0.0292 -0.3795
  103CHL1   C1813835   1.508   3.826   6.032 -0.2512  0.1118 -0.3492
  103CHL1  H18A13836   1.493   3.930   5.995  3.0807  0.3901 -1.1700
  103CHL1  H18B13837   1.462   3.762   5.954 -1.3219 -1.6988  1.6501
  103CHL1  H18C13838   1.456   3.787   6.123  2.4038 -1.2632  0.6859
  103CHL1   C1213839   1.711   3.662   6.070  0.6513 -0.1888 -0.2021
  103CHL1  H12A13840   1.664   3.593   5.997  1.1245 -1.5453  0.7361
  103CHL1  H12B13841   1.820   3.648   6.056  0.8315  1.2077 -0.3748
  103CHL1   C1113842   1.663   3.634   6.219  0.1851 -0.2886 -0.8254
  103CHL1  H11A13843   1.555   3.608   6.216  0.2000 -0.7837  1.5162
  103CHL1  H11B13844   1.708   3.541   6.259  1.0242  0.2358 -0.5284
  103CHL1    C913845   1.694   3.741   6.330 -0.1093  0.5632  0.1511
  103CHL1    H913846   1.802   3.720   6.342 -0.6287 -1.8915  1.1684
  103CHL1   C1013847   1.632   3.712   6.474 -0.6193 -0.0965  0.5433
  103CHL1   C1913848   1.473   3.696   6.464  0.2418  0.7422  0.4731
  103CHL1  H19A13849   1.453   3.617   6.389 -1.9525  0.7396  0.9857
  103CHL1  H19B13850   1.418   3.670   6.558  0.9375  0.7737  0.8933
  103CHL1  H19C13851   1.420   3.780   6.415  0.4966 -1.1738 -3.4726
  103CHL1    C113852   1.683   3.586   6.545  0.2291 -0.0825  0.0666
  103CHL1   H1A13853   1.657   3.500   6.480  0.7384  0.8651 -1.4543
  103CHL1   H1B13854   1.794   3.591   6.556  0.3966 -0.3708 -1.3157
  103CHL1    C213855   1.634   3.567   6.688 -0.3371  0.1667 -0.0021
  103CHL1   H2A13856   1.677   3.478   6.739 -0.4565  0.3316  0.3923
  103CHL1   H2B13857   1.524   3.550   6.687 -0.1850 -1.6114  3.1401
  103CHL1   C2013858   1.677   3.827   5.765  0.0957  0.7779 -0.3103
  103CHL1   H2013859   1.569   3.855   5.767 -0.5180 -1.1020 -2.4551
  103CHL1   C2113860   1.676   3.676   5.731  0.1801  0.1744  0.2190
  103CHL1  H21A13861   1.772   3.621   5.742 -0.4613 -0.6900  1.6494
  103CHL1  H21B13862   1.645   3.676   5.624 -0.2922 -1.8035  0.3171
  103CHL1  H21C13863   1.600   3.625   5.793 -1.1318  1.1338 -0.5366
  103CHL1   C2213864   1.741   3.902   5.646 -0.3496 -0.2699 -0.3230
  103CHL1  H22A13865   1.692   3.855   5.558  0.6615 -3.5551  0.7171
  103CHL1  H22B13866   1.726   4.012   5.645  2.5883  0.2401 -1.9051
  103CHL1   C2313867   1.898   3.874   5.639 -0.8705  0.0364 -0.8130
  103CHL1  H23A13868   1.931   3.907   5.740  1.2400  2.7269 -2.2288
  103CHL1  H23B13869   1.911   3.768   5.610  1.1085 -0.2997  1.0240
  103CHL1   C2413870   1.982   3.958   5.533 -0.4328 -0.0674  0.4256
  103CHL1  H24A13871   1.936   3.939   5.434 -3.9847  1.2364  1.6725
  103CHL1  H24B13872   1.981   4.067   5.556  1.3799  0.4569 -1.5975
  103CHL1   C2513873   2.133   3.917   5.532  0.2364 -0.5908  0.7446
  103CHL1   H2513874   2.146   3.808   5.515  2.4383 -0.2383 -0.1066
  103CHL1   C2613875   2.212   3.979   5.416 -0.0886  0.1771  0.0544
  103CHL1  H26A13876   2.321   3.975   5.435  0.1612  1.8741 -0.7694
  103CHL1  H26B13877   2.189   3.918   5.327  0.5018  2.7949 -2.0161
  103CHL1  H26C13878   2.181   4.082   5.386 -1.6230  0.0752  1.1357
  103CHL1   C2713879   2.204   3.956   5.665 -0.1651  0.2312  0.4707
  103CHL1  H27A13880   2.196   3.879   5.745 -1.3812  0.0806  0.2159
  103CHL1  H27B13881   2.313   3.970   5.646 -0.0058  0.1607  1.3030
  103CHL1  H27C13882   2.162   4.053   5.699 -0.2853  0.2489  0.2695
  104CHL1    C313883   5.596   4.320   6.893  0.0137  0.1621  0.0401
  104CHL1    H313884   5.487   4.323   6.870  0.0105 -2.2344 -0.5005
  104CHL1    O313885   5.617   4.254   7.014 -0.0345 -0.2011  0.1794
  104CHL1   H3'13886   5.713   4.257   7.015 -0.0619  1.8828  0.8420
  104CHL1    C413887   5.681   4.255   6.778  0.2488 -0.0528  0.1679
  104CHL1   H4A13888   5.787   4.255   6.811 -0.3939  0.9717  2.4310
  104CHL1   H4B13889   5.642   4.151   6.781 -0.8988  0.2226 -2.7019
  104CHL1    C513890   5.656   4.325   6.643  0.2389 -0.7450 -0.3654
  104CHL1    C613891   5.607   4.264   6.532 -0.0152  0.6088  0.1485
  104CHL1    H613892   5.568   4.161   6.535  0.3136  0.4685 -0.2689
  104CHL1    C713893   5.599   4.335   6.393  0.1253 -0.4329 -1.0770
  104CHL1   H7A13894   5.636   4.273   6.309 -1.7323 -3.3562  0.0921
  104CHL1   H7B13895   5.494   4.361   6.369  0.3721  0.2324 -1.4426
  104CHL1    C813896   5.664   4.477   6.395  0.0498 -0.1496 -0.2057
  104CHL1    H813897   5.773   4.459   6.389  0.3442  1.2215  0.4929
  104CHL1   C1413898   5.622   4.569   6.279 -0.3930 -0.4937  0.0481
  104CHL1   H1413899   5.514   4.594   6.280 -0.5326 -1.1026  0.5431
  104CHL1   C1513900   5.650   4.512   6.142  0.3618  0.0289  0.4631
  104CHL1  H15A13901   5.750   4.465   6.147 -0.2202 -1.4212 -0.8406
  104CHL1  H15B13902   5.573   4.436   6.118 -0.0939  1.1586 -1.8931
  104CHL1   C1613903   5.654   4.632   6.043  0.0594 -0.1588 -0.6912
  104CHL1  H16A13904   5.743   4.616   5.977  0.2317 -0.0918 -0.4737
  104CHL1  H16B13905   5.562   4.626   5.981 -0.5387  0.8699  0.0951
  104CHL1   C1713906   5.655   4.764   6.130 -0.0793  0.6395 -0.6750
  104CHL1   H1713907   5.546   4.785   6.129 -0.1967  0.0819 -1.9847
  104CHL1   C1313908   5.696   4.714   6.275 -0.2071  0.2054 -0.5859
  104CHL1   C1813909   5.849   4.699   6.288  0.0240  0.7168 -0.0470
  104CHL1  H18A13910   5.900   4.797   6.299  1.7779 -0.1812  0.2516
  104CHL1  H18B13911   5.875   4.632   6.373 -0.7821  0.4017 -0.0385
  104CHL1  H18C13912   5.883   4.641   6.199  0.7491  0.7440  0.2001
  104CHL1   C1213913   5.641   4.783   6.400  0.0289  0.2470 -0.0361
  104CHL1  H12A13914   5.676   4.887   6.411 -0.0150  0.3939 -1.1542
  104CHL1  H12B13915   5.532   4.788   6.378  0.1253 -0.2907 -0.6923
  104CHL1   C1113916   5.666   4.707   6.528  0.0062 -0.4083 -0.0096
  104CHL1  H11A13917   5.773   4.728   6.545  0.1404 -1.5149  0.6288
  104CHL1  H11B13918   5.605   4.756   6.607  0.3145 -1.5542  0.9841
  104CHL1    C913919   5.637   4.548   6.523 -0.6089 -0.5109  0.0479
  104CHL1    H913920   5.526   4.545   6.535 -0.5515  0.1147  0.8178
  104CHL1   C1013921   5.685   4.477   6.649  0.0139  0.6479  0.2119
  104CHL1   C1913922   5.842   4.484   6.667  0.4482  0.3731  0.6034
  104CHL1  H19A13923   5.866   4.441   6.766  1.0806  1.1833  0.8183
  104CHL1  H19B13924   5.901   4.440   6.583  0.2964  0.5306  0.4116
  104CHL1  H19C13925   5.866   4.593   6.668 -0.9835  0.7090  0.2935
  104CHL1    C113926   5.627   4.544   6.777 -0.0284 -0.0711 -0.1109
  104CHL1   H1A13927   5.678   4.642   6.787  0.4311 -0.2296 -0.7901
  104CHL1   H1B13928   5.520   4.566   6.755  0.8317  4.1138 -0.9906
  104CHL1    C213929   5.636   4.471   6.908 -1.2792  0.7358 -0.5518
  104CHL1   H2A13930   5.572   4.514   6.988 -1.2624 -0.1595 -0.0344
  104CHL1   H2B13931   5.741   4.476   6.947 -2.0560 -0.0546  1.8447
  104CHL1   C2013932   5.722   4.883   6.063 -0.3064 -0.1556 -0.2717
  104CHL1   H2013933   5.831   4.865   6.079  0.0921  0.4556 -2.0548
  104CHL1   C2113934   5.685   5.013   6.134  0.5109  0.3683 -0.3378
  104CHL1  H21A13935   5.741   5.099   6.092  0.2471  0.1348 -1.1854
  104CHL1  H21B13936   5.717   5.003   6.240 -1.8873 -1.6685  0.2809
  104CHL1  H21C13937   5.578   5.044   6.129  0.7348  1.9217  2.3211
  104CHL1   C2213938   5.690   4.896   5.912 -0.5701  0.4308  0.0900
  104CHL1  H22A13939   5.696   4.798   5.859  2.4615  1.2112 -1.2230
  104CHL1  H22B13940   5.586   4.929   5.895 -1.6453 -1.6311  2.0233
  104CHL1   C2313941   5.794   4.986   5.854 -0.7278  0.4811  0.0319
  104CHL1  H23A13942   5.768   5.085   5.897  1.0308  1.0779 -0.2137
  104CHL1  H23B13943   5.897   4.962   5.886 -1.1796  1.1575  2.1984
  104CHL1   C2413944   5.784   5.000   5.696 -0.0660 -0.4463 -0.1852
  104CHL1  H24A13945   5.802   4.898   5.654  1.7824 -0.3634  0.3275
  104CHL1  H24B13946   5.680   5.029   5.670  0.3003  0.5529 -0.5836
  104CHL1   C2513947   5.879   5.103   5.620 -0.5972 -0.1500 -0.0591
  104CHL1   H2513948   5.980   5.085   5.663 -0.0561 -2.1610 -1.9811
  104CHL1   C2613949   5.880   5.091   5.469 -0.2693 -0.3713 -0.2912
  104CHL1  H26A13950   5.924   5.175   5.411  0.5375 -0.5601  0.0338
  104CHL1  H26B13951   5.951   5.012   5.435  0.2567  0.4265 -1.1062
  104CHL1  H26C13952   5.780   5.052   5.437 -0.1067 -1.4518  0.4689
  104CHL1   C2713953   5.836   5.243   5.662  0.5096 -0.5270 -0.1312
  104CHL1  H27A13954   5.864   5.271   5.766  2.1570  1.7103 -1.0817
  104CHL1  H27B13955   5.901   5.313   5.605 -0.3388 -0.5188 -1.1258
  104CHL1  H27C13956   5.730   5.268   5.641  0.6193  1.3198  1.2684
  105CHL1    C313957   7.025   4.028   6.770 -0.1468 -0.2938  0.7367
  105CHL1    H313958   7.078   3.939   6.729  1.2993  0.9233 -0.1258
  105CHL1    O313959   7.086   4.056   6.895  0.0570 -0.5263 -0.2160
  105CHL1   H3'13960   7.172   4.092   6.871  0.0453 -1.8648 -2.5717
  105CHL1    C413961   7.035   4.146   6.670  0.2917  0.1565 -0.8032
  105CHL1   H4A13962   6.987   4.236   6.713  3.4573  0.9643  1.3371
  105CHL1   H4B13963   7.145   4.158   6.664  0.2659  0.8786  0.0008
  105CHL1    C513964   6.958   4.109   6.541  0.7204 -0.3202 -0.2847
  105CHL1    C613965   7.015   4.134   6.423  0.3014 -0.6759  0.8950
  105CHL1    H613966   7.117   4.175   6.428  0.9522 -1.7778 -1.7599
  105CHL1    C713967   6.948   4.117   6.290  0.4863 -0.1578 -0.2920
  105CHL1   H7A13968   6.955   4.206   6.224 -2.3946  0.8637  0.6574
  105CHL1   H7B13969   6.987   4.027   6.237  2.4084  0.8248 -0.6506
  105CHL1    C813970   6.800   4.092   6.298 -0.5262  0.2543  0.0210
  105CHL1    H813971   6.748   4.189   6.313 -3.0980 -1.2820  1.9138
  105CHL1   C1413972   6.750   4.040   6.171  0.6258 -0.0011  0.6601
  105CHL1   H1413973   6.798   3.942   6.152  0.8876  0.1585  0.4905
  105CHL1   C1513974   6.775   4.110   6.033 -0.3217 -0.6401 -0.3968
  105CHL1  H15A13975   6.767   4.220   6.047  2.3207 -0.5763  1.2634
  105CHL1  H15B13976   6.876   4.084   5.993 -1.0717 -1.1750 -2.0178
  105CHL1   C1613977   6.664   4.051   5.937  0.3881 -0.8171  0.4764
  105CHL1  H16A13978   6.592   4.134   5.918  1.9013  0.3524 -0.3722
  105CHL1  H16B13979   6.690   4.012   5.836  1.0571 -2.8659  1.3778
  105CHL1   C1713980   6.590   3.950   6.024  0.2348  0.5823  0.3272
  105CHL1   H1713981   6.652   3.858   6.018 -0.3223  0.1425  1.2062
  105CHL1   C1313982   6.602   4.004   6.170  0.3924  0.0156 -0.1505
  105CHL1   C1813983   6.514   4.128   6.196  0.3794  0.6053 -0.3556
  105CHL1  H18A13984   6.547   4.176   6.291 -0.9316 -0.1832  0.5314
  105CHL1  H18B13985   6.514   4.204   6.115 -0.5821 -1.0393 -1.9801
  105CHL1  H18C13986   6.410   4.101   6.222  0.1966 -0.3429 -1.9311
  105CHL1   C1213987   6.578   3.891   6.274 -0.5892 -0.8743  0.4331
  105CHL1  H12A13988   6.472   3.868   6.296 -0.8748  0.6010  0.7656
  105CHL1  H12B13989   6.626   3.806   6.221  0.3376  0.5280 -1.0723
  105CHL1   C1113990   6.628   3.925   6.414 -0.1475 -0.1966 -0.2594
  105CHL1  H11A13991   6.547   3.986   6.460  1.1194  0.1819  1.5617
  105CHL1  H11B13992   6.640   3.834   6.477 -2.8542  0.6928  1.7167
  105CHL1    C913993   6.768   3.997   6.415  0.4533  0.0266  0.0435
  105CHL1    H913994   6.834   3.908   6.406  2.2042  1.1299  1.2876
  105CHL1   C1013995   6.810   4.059   6.552 -0.0954  0.6292  0.5037
  105CHL1   C1913996   6.728   4.191   6.592 -0.6399 -0.0899 -0.3316
  105CHL1  H19A13997   6.742   4.278   6.525  2.1322  0.4520  0.8085
  105CHL1  H19B13998   6.620   4.166   6.588 -0.5470 -0.4917 -0.3807
  105CHL1  H19C13999   6.747   4.229   6.695  2.1384 -1.5117 -0.2038
  105CHL1    C114000   6.804   3.950   6.661 -1.0712  0.2550 -0.8878
  105CHL1   H1A14001   6.701   3.911   6.677 -0.9654 -0.5894 -2.1827
  105CHL1   H1B14002   6.850   3.861   6.616 -1.4360 -0.0784 -0.6123
  105CHL1    C214003   6.883   3.978   6.792  0.2538  0.1204 -0.3641
  105CHL1   H2A14004   6.884   3.881   6.846 -2.9244  0.0209 -0.3048
  105CHL1   H2B14005   6.830   4.053   6.856 -0.9125 -2.1117  1.4246
  105CHL1   C2014006   6.443   3.925   5.963  0.0169 -0.2547 -0.0263
  105CHL1   H2014007   6.388   4.021   5.951  0.6466  0.1539  0.3349
  105CHL1   C2114008   6.348   3.851   6.067 -0.1398 -0.1470  0.0277
  105CHL1  H21A14009   6.405   3.766   6.110 -0.4031 -2.0450 -3.0117
  105CHL1  H21B14010   6.257   3.815   6.014  2.8963 -3.1065 -3.9062
  105CHL1  H21C14011   6.316   3.927   6.141  0.2124  0.0752 -0.0438
  105CHL1   C2214012   6.442   3.837   5.837 -0.6464  0.0424 -0.7640
  105CHL1  H22A14013   6.522   3.882   5.774 -0.3522 -1.3901 -1.4592
  105CHL1  H22B14014   6.473   3.731   5.854 -0.1375  0.0457 -1.6161
  105CHL1   C2314015   6.309   3.851   5.747 -0.4907 -0.2009 -0.3457
  105CHL1  H23A14016   6.220   3.815   5.803 -0.8004 -3.1247 -2.4809
  105CHL1  H23B14017   6.301   3.961   5.734  1.7081  0.0066 -0.3473
  105CHL1   C2414018   6.310   3.773   5.609  0.3386  0.2628 -0.4135
  105CHL1  H24A14019   6.393   3.818   5.550  0.8951  0.8982  0.7991
  105CHL1  H24B14020   6.328   3.666   5.633 -0.5134  0.6561  2.3253
  105CHL1   C2514021   6.185   3.800   5.535 -1.1075 -0.1325  0.1443
  105CHL1   H2514022   6.100   3.768   5.600 -1.3640  1.6026  0.6967
  105CHL1   C2614023   6.162   3.951   5.513  0.3831 -0.7525  0.1636
  105CHL1  H26A14024   6.085   3.962   5.434 -0.8589 -0.6742  1.3558
  105CHL1  H26B14025   6.138   4.003   5.608  1.2562  0.5242 -0.2904
  105CHL1  H26C14026   6.257   3.996   5.477 -0.4482 -0.6402 -2.0406
  105CHL1   C2714027   6.189   3.725   5.396  0.1803 -0.7394 -0.6141
  105CHL1  H27A14028   6.217   3.620   5.419 -2.0155 -0.9282  1.4981
  105CHL1  H27B14029   6.089   3.728   5.348 -0.1847  0.4765  0.1735
  105CHL1  H27C14030   6.261   3.780   5.331 -0.2133  1.3353  0.6070
  106CHL1    C314031   1.426   2.656   6.781  0.4291  0.1369  0.1840
  106CHL1    H314032   1.320   2.627   6.800  0.3640 -0.9278 -1.5518
  106CHL1    O314033   1.496   2.629   6.898  0.0977 -0.7180  0.4609
  106CHL1   H3'14034   1.519   2.536   6.910  1.6556 -0.4652 -0.2265
  106CHL1    C414035   1.471   2.553   6.677  0.0557 -0.0746  0.2416
  106CHL1   H4A14036   1.580   2.559   6.658  0.1710  0.7103  1.1183
  106CHL1   H4B14037   1.461   2.452   6.722  0.6748 -0.0896  0.3521
  106CHL1    C514038   1.403   2.570   6.545  0.1056  0.5002 -0.2271
  106CHL1    C614039   1.335   2.467   6.493 -1.1172 -0.5601 -0.1592
  106CHL1    H614040   1.338   2.372   6.549  1.3128 -0.3350  0.1824
  106CHL1    C714041   1.260   2.472   6.368  0.3180 -0.7052 -0.3798
  106CHL1   H7A14042   1.278   2.380   6.308  0.1623  0.1789 -1.8501
  106CHL1   H7B14043   1.151   2.458   6.387  0.5987  0.1005  2.1132
  106CHL1    C814044   1.293   2.600   6.284  0.2733 -0.2159  0.2751
  106CHL1    H814045   1.395   2.582   6.245  0.9188  0.8986  1.3737
  106CHL1   C1414046   1.194   2.629   6.172  0.0450  0.2277  0.2925
  106CHL1   H1414047   1.094   2.658   6.212 -0.5755  0.0566 -1.0733
  106CHL1   C1514048   1.165   2.518   6.075  0.9346  0.3146  0.0908
  106CHL1  H15A14049   1.260   2.465   6.057  0.4333 -0.6080  0.0880
  106CHL1  H15B14050   1.098   2.441   6.119  2.9418 -2.1032 -0.8721
  106CHL1   C1614051   1.117   2.584   5.947 -0.0474 -0.2795 -0.1515
  106CHL1  H16A14052   1.186   2.546   5.868 -0.4278 -1.3182  0.0064
  106CHL1  H16B14053   1.017   2.555   5.909  0.4662 -1.2547 -0.8002
  106CHL1   C1714054   1.124   2.737   5.980 -0.6452  0.5219 -0.2588
  106CHL1   H1714055   1.034   2.769   6.036 -0.9790 -0.3106 -0.3234
  106CHL1   C1314056   1.231   2.749   6.086  0.2550 -0.0381  0.3886
  106CHL1   C1814057   1.370   2.722   6.018  0.3379  0.6312 -0.0626
  106CHL1  H18A14058   1.375   2.624   5.965  1.0439  0.5940  0.0655
  106CHL1  H18B14059   1.399   2.794   5.938 -0.2964  0.3583 -0.5568
  106CHL1  H18C14060   1.449   2.731   6.095 -0.7841  1.0002  1.0775
  106CHL1   C1214061   1.219   2.871   6.176 -0.3779 -1.0671 -0.0564
  106CHL1  H12A14062   1.250   2.969   6.135 -0.2628 -0.0506  2.3314
  106CHL1  H12B14063   1.111   2.876   6.202  0.1322  1.0051  1.9481
  106CHL1   C1114064   1.311   2.866   6.292 -0.2587  0.3061  0.0208
  106CHL1  H11A14065   1.409   2.873   6.240  0.8166 -0.5725  1.8364
  106CHL1  H11B14066   1.298   2.946   6.368 -1.3545  0.3618 -0.2091
  106CHL1    C914067   1.300   2.730   6.370  0.8383 -0.6958  0.0855
  106CHL1    H914068   1.197   2.734   6.409  1.0475  0.7070  0.5523
  106CHL1   C1014069   1.401   2.714   6.483 -0.1954 -0.2158 -0.4710
  106CHL1   C1914070   1.542   2.755   6.423 -0.8467  0.0088 -0.4714
  106CHL1  H19A14071   1.624   2.731   6.493 -0.7591 -1.3630 -1.0052
  106CHL1  H19B14072   1.567   2.716   6.322  0.9613  0.0734 -0.0852
  106CHL1  H19C14073   1.543   2.865   6.416 -0.3320 -0.0144 -0.7965
  106CHL1    C114074   1.361   2.811   6.598 -0.0167  0.2550 -0.9194
  106CHL1   H1A14075   1.369   2.917   6.566 -1.4691 -0.0570 -2.4857
  106CHL1   H1B14076   1.254   2.793   6.623  0.2477  0.2867  0.2906
  106CHL1    C214077   1.429   2.800   6.739  0.1600  0.0430  0.0152
  106CHL1   H2A14078   1.369   2.860   6.811 -1.5665 -1.6366  0.0634
  106CHL1   H2B14079   1.535   2.832   6.732  0.7883 -1.5298  1.5527
  106CHL1   C2014080   1.129   2.825   5.855 -0.2881 -0.1655 -0.0307
  106CHL1   H2014081   1.234   2.824   5.817 -0.0156 -2.1330  0.6754
  106CHL1   C2114082   1.095   2.966   5.883 -0.4236  0.0053 -0.0127
  106CHL1  H21A14083   0.986   2.970   5.907 -0.2494 -0.9793  1.0461
  106CHL1  H21B14084   1.102   3.029   5.792  1.8750 -0.4768 -0.2166
  106CHL1  H21C14085   1.155   3.009   5.965  0.2465  2.5530 -1.7452
  106CHL1   C2214086   1.046   2.774   5.730  0.2001  0.6531  0.8144
  106CHL1  H22A14087   1.090   2.819   5.639  1.5297 -1.9107  0.1085
  106CHL1  H22B14088   1.082   2.670   5.717  2.6816  1.4195  1.0287
  106CHL1   C2314089   0.894   2.788   5.738  0.4096  0.1417  0.0138
  106CHL1  H23A14090   0.855   2.718   5.815  0.7371 -0.9532 -0.7916
  106CHL1  H23B14091   0.856   2.891   5.757  1.1711  0.3858  0.2229
  106CHL1   C2414092   0.829   2.747   5.607  0.4404  0.1720  0.2653
  106CHL1  H24A14093   0.720   2.767   5.603  0.1312 -1.4613  0.0533
  106CHL1  H24B14094   0.866   2.816   5.528  1.6685  1.2287  1.6815
  106CHL1   C2514095   0.841   2.603   5.567  0.6663  0.2532  0.1707
  106CHL1   H2514096   0.941   2.559   5.587  0.5449 -0.8795 -1.4459
  106CHL1   C2614097   0.749   2.520   5.661 -0.1860  0.1707 -0.1819
  106CHL1  H26A14098   0.776   2.522   5.769 -0.7461  0.0954 -0.0376
  106CHL1  H26B14099   0.647   2.563   5.650 -0.9077 -2.0112 -3.0201
  106CHL1  H26C14100   0.747   2.418   5.618  0.8901 -0.4451  1.1397
  106CHL1   C2714101   0.803   2.580   5.419 -0.5064 -0.5174 -0.1124
  106CHL1  H27A14102   0.806   2.471   5.400 -0.9319 -0.6766  0.7054
  106CHL1  H27B14103   0.699   2.610   5.393 -0.2261 -0.4850 -1.2403
  106CHL1  H27C14104   0.874   2.638   5.357  1.7101 -0.5286  2.2432
  107CHL1    C314105   3.359   6.895   6.814 -0.4389  0.4525  0.6171
  107CHL1    H314106   3.469   6.897   6.829 -0.5486  1.1593  1.3903
  107CHL1    O314107   3.300   6.958   6.925  0.2282  0.3507  0.0500
  107CHL1   H3'14108   3.209   6.935   6.905  0.8514 -0.6832 -1.8637
  107CHL1    C414109   3.332   6.979   6.687  0.5336 -0.9493 -0.2411
  107CHL1   H4A14110   3.223   7.000   6.683  0.8124  0.9757  0.9582
  107CHL1   H4B14111   3.379   7.079   6.699  0.7210 -1.0277 -0.3164
  107CHL1    C514112   3.356   6.918   6.551  0.3116 -0.5930 -0.1036
  107CHL1    C614113   3.414   6.989   6.454 -0.0906 -0.9541  0.8168
  107CHL1    H614114   3.433   7.097   6.469 -0.3163 -0.7589 -0.2147
  107CHL1    C714115   3.449   6.941   6.316 -0.1236  0.0011  0.6454
  107CHL1   H7A14116   3.405   7.005   6.236  1.6021 -0.2749 -0.5801
  107CHL1   H7B14117   3.559   6.945   6.305 -0.0030 -2.3456  0.5902
  107CHL1    C814118   3.393   6.801   6.288  0.2222  0.5196 -0.0186
  107CHL1    H814119   3.285   6.810   6.265 -0.0483  1.3933  1.4589
  107CHL1   C1414120   3.464   6.738   6.169 -0.3987  0.3363  0.4382
  107CHL1   H1414121   3.573   6.736   6.192 -0.4996  1.3756  1.0796
  107CHL1   C1514122   3.440   6.809   6.029  0.3889  0.5062 -0.6456
  107CHL1  H15A14123   3.331   6.830   6.025 -0.9117 -4.4819  1.2345
  107CHL1  H15B14124   3.499   6.902   6.013  0.6142  0.3755 -0.5814
  107CHL1   C1614125   3.465   6.704   5.919 -0.4489  0.2665 -0.2002
  107CHL1  H16A14126   3.380   6.683   5.851 -0.2102 -0.2481 -0.3421
  107CHL1  H16B14127   3.555   6.731   5.859  0.7702  1.6569  2.0959
  107CHL1   C1714128   3.508   6.581   6.001  0.3262  0.2594  0.1658
  107CHL1   H1714129   3.615   6.572   6.029 -0.0918 -1.0601  1.4794
  107CHL1   C1314130   3.435   6.592   6.138  0.2704 -0.0055 -0.2044
  107CHL1   C1814131   3.286   6.547   6.115  0.1386  0.4998 -0.1276
  107CHL1  H18A14132   3.273   6.437   6.109  1.1144  0.3948 -0.4466
  107CHL1  H18B14133   3.224   6.568   6.204  0.4435 -3.0797  1.1050
  107CHL1  H18C14134   3.246   6.588   6.020 -0.7067  2.3283  0.9596
  107CHL1   C1214135   3.481   6.512   6.264 -0.1863 -0.7830  0.0613
  107CHL1  H12A14136   3.459   6.403   6.255 -1.9531 -0.5648  1.1813
  107CHL1  H12B14137   3.592   6.523   6.267 -0.2172 -0.5453  1.8875
  107CHL1   C1114138   3.415   6.560   6.395 -0.4904  0.3569 -0.1805
  107CHL1  H11A14139   3.308   6.528   6.396 -0.4709  0.2716 -0.6286
  107CHL1  H11B14140   3.457   6.500   6.478 -2.0353 -1.5025 -0.6625
  107CHL1    C914141   3.414   6.715   6.413  0.3639 -0.1829 -0.3218
  107CHL1    H914142   3.522   6.725   6.439  0.4635 -0.9711 -0.4156
  107CHL1   C1014143   3.326   6.763   6.539 -0.6659  0.0368  0.3213
  107CHL1   C1914144   3.176   6.732   6.518 -0.4960 -0.1448  0.4567
  107CHL1  H19A14145   3.157   6.623   6.512  0.3708 -0.2253 -2.8628
  107CHL1  H19B14146   3.122   6.778   6.603  3.6473  3.5099  1.4810
  107CHL1  H19C14147   3.139   6.783   6.426 -0.5064 -0.2771  0.3870
  107CHL1    C114148   3.368   6.687   6.670  0.0376  0.1334 -0.1090
  107CHL1   H1A14149   3.328   6.584   6.663  0.1124 -0.0293  1.5112
  107CHL1   H1B14150   3.479   6.687   6.675  0.0078  1.4188  3.0143
  107CHL1    C214151   3.309   6.750   6.802 -0.2836  0.2405 -0.2983
  107CHL1   H2A14152   3.330   6.700   6.899  0.8675 -0.3017 -0.8169
  107CHL1   H2B14153   3.198   6.746   6.806 -0.3390  0.6583 -1.2368
  107CHL1   C2014154   3.488   6.456   5.915 -0.0475 -0.0397 -0.3258
  107CHL1   H2014155   3.381   6.439   5.892  0.2506  2.0403 -4.0719
  107CHL1   C2114156   3.534   6.336   6.000  0.1126  0.6895 -0.1474
  107CHL1  H21A14157   3.635   6.347   6.043 -0.3647  0.4351  1.0589
  107CHL1  H21B14158   3.544   6.250   5.930  0.0876  0.8469 -0.3456
  107CHL1  H21C14159   3.462   6.308   6.080 -0.0949 -0.5134 -0.7255
  107CHL1   C2214160   3.557   6.448   5.777 -0.2077 -0.1597  0.1678
  107CHL1  H22A14161   3.546   6.346   5.734  1.4153 -0.0120 -0.6875
  107CHL1  H22B14162   3.522   6.529   5.710 -2.0897 -0.3405  0.8700
  107CHL1   C2314163   3.712   6.459   5.766  0.0873  1.1997  0.0707
  107CHL1  H23A14164   3.757   6.548   5.815  1.3505 -0.1986  1.5712
  107CHL1  H23B14165   3.758   6.376   5.824  0.2705  0.7879 -0.6491
  107CHL1   C2414166   3.762   6.453   5.619  0.3217  0.4386  0.3780
  107CHL1  H24A14167   3.691   6.382   5.569  1.4329 -1.1047  0.9079
  107CHL1  H24B14168   3.747   6.556   5.580 -0.5150  0.3137  0.3515
  107CHL1   C2514169   3.906   6.414   5.589 -0.4345  0.7036 -0.3629
  107CHL1   H2514170   3.973   6.479   5.650 -0.6244  1.2076 -0.6795
  107CHL1   C2614171   3.942   6.261   5.586 -0.1914 -0.3315 -0.7789
  107CHL1  H26A14172   3.922   6.218   5.686  2.4517 -2.2797 -0.9939
  107CHL1  H26B14173   3.881   6.202   5.515 -0.7519  1.7237 -2.1025
  107CHL1  H26C14174   4.050   6.238   5.571  0.1505  0.2287  0.6421
  107CHL1   C2714175   3.947   6.462   5.456  0.3014 -0.0911  0.0580
  107CHL1  H27A14176   3.937   6.571   5.435 -0.5703 -0.4107 -1.3574
  107CHL1  H27B14177   4.048   6.424   5.431  0.0351 -1.2118  0.6308
  107CHL1  H27C14178   3.887   6.407   5.380  0.3897  0.0771 -0.1343
  108CHL1    C314179   5.937   2.920   6.732  0.7807  0.2743 -0.3471
  108CHL1    H314180   6.029   2.877   6.687  0.2094 -2.1074  0.6077
  108CHL1    O314181   5.949   2.926   6.871  0.1891 -0.6078 -0.6946
  108CHL1   H3'14182   5.857   2.938   6.896 -0.3119 -1.2509 -2.1361
  108CHL1    C414183   5.896   3.056   6.655  0.0388  0.5199 -0.3663
  108CHL1   H4A14184   5.790   3.072   6.684 -0.5274 -1.9815 -0.7920
  108CHL1   H4B14185   5.961   3.138   6.694  2.4430 -0.8971 -1.1628
  108CHL1    C514186   5.894   3.050   6.505 -0.5642 -0.2952  0.0384
  108CHL1    C614187   5.983   3.119   6.435  0.1292  0.6891 -0.1678
  108CHL1    H614188   6.062   3.173   6.489  0.2213 -1.1319  1.6237
  108CHL1    C714189   5.998   3.125   6.286  0.4867  0.3792  0.0173
  108CHL1   H7A14190   6.001   3.235   6.274  0.3936  0.5475  1.3551
  108CHL1   H7B14191   6.089   3.076   6.247  0.0081  0.1484 -0.8324
  108CHL1    C814192   5.875   3.053   6.226 -1.1310 -0.2605  0.2516
  108CHL1    H814193   5.795   3.129   6.232 -0.4013  0.4666  0.8918
  108CHL1   C1414194   5.910   3.021   6.081 -0.0037  0.3083  0.3262
  108CHL1   H1414195   6.001   2.957   6.078 -0.1531  0.1070 -0.0301
  108CHL1   C1514196   5.942   3.147   5.994 -0.6121  0.7682  0.4237
  108CHL1  H15A14197   5.870   3.228   6.018 -0.8651  0.3691  1.0744
  108CHL1  H15B14198   6.045   3.179   6.018 -0.6130  0.2688  1.1608
  108CHL1   C1614199   5.936   3.085   5.855  0.2010  0.1996  0.8582
  108CHL1  H16A14200   5.876   3.158   5.796 -0.8878 -0.1036  1.5725
  108CHL1  H16B14201   6.033   3.070   5.803  0.6031  1.9818  1.0018
  108CHL1   C1714202   5.869   2.941   5.864  0.5782 -0.8275  0.3052
  108CHL1   H1714203   5.946   2.861   5.860 -0.6993 -2.0979  0.4857
  108CHL1   C1314204   5.805   2.941   6.009 -0.0402  0.1350  0.2894
  108CHL1   C1814205   5.677   3.034   5.999  0.0770 -0.3234 -0.0083
  108CHL1  H18A14206   5.627   3.046   6.098  0.9676 -1.1568  0.5686
  108CHL1  H18B14207   5.697   3.129   5.946 -2.0347 -0.3323 -0.9065
  108CHL1  H18C14208   5.596   2.984   5.941 -0.8290 -0.5083  1.3670
  108CHL1   C1214209   5.783   2.809   6.080  0.7674 -0.0029 -0.4113
  108CHL1  H12A14210   5.704   2.758   6.021  1.0976  0.4882 -1.3072
  108CHL1  H12B14211   5.879   2.753   6.073  0.1489 -1.0839 -0.3022
  108CHL1   C1114212   5.744   2.832   6.228 -0.1086 -0.2096 -0.6584
  108CHL1  H11A14213   5.641   2.872   6.215  0.5269  1.8409  0.2168
  108CHL1  H11B14214   5.739   2.733   6.278 -0.6916  0.0265 -0.2303
  108CHL1    C914215   5.839   2.926   6.302 -0.2342 -0.2297  0.1016
  108CHL1    H914216   5.931   2.866   6.314 -0.1474 -0.2035 -0.4247
  108CHL1   C1014217   5.802   2.947   6.451  0.2724 -0.2370  0.2682
  108CHL1   C1914218   5.654   2.984   6.462  0.2219  0.1947  0.0843
  108CHL1  H19A14219   5.638   3.088   6.425  0.3688  0.6534  1.2474
  108CHL1  H19B14220   5.583   2.917   6.410  1.9087 -1.1290 -0.5815
  108CHL1  H19C14221   5.621   2.985   6.569 -0.0335  0.6803  0.0075
  108CHL1    C114222   5.823   2.807   6.530 -0.0562 -1.0652 -0.1038
  108CHL1   H1A14223   5.739   2.738   6.508  0.4952 -1.4010 -1.2171
  108CHL1   H1B14224   5.911   2.756   6.485 -0.9524  0.3629 -3.8383
  108CHL1    C214225   5.830   2.821   6.679 -0.2300  0.2599 -0.0019
  108CHL1   H2A14226   5.842   2.724   6.731 -3.1355 -0.0730  0.2144
  108CHL1   H2B14227   5.731   2.850   6.719 -1.1145 -0.2437 -1.7227
  108CHL1   C2014228   5.780   2.917   5.749 -0.0252  0.4396  0.1671
  108CHL1   H2014229   5.705   2.997   5.731  0.8655  1.0882 -0.7446
  108CHL1   C2114230   5.706   2.781   5.765  0.3770 -0.7164  0.2203
  108CHL1  H21A14231   5.779   2.697   5.764 -0.3575 -1.5850  3.9066
  108CHL1  H21B14232   5.634   2.770   5.681 -0.7015 -0.0655  1.0377
  108CHL1  H21C14233   5.637   2.784   5.852  0.9271 -0.4142  0.6482
  108CHL1   C2214234   5.857   2.914   5.614  0.0512 -0.2853  1.0037
  108CHL1  H22A14235   5.918   3.006   5.600  0.4510 -0.7670 -0.6692
  108CHL1  H22B14236   5.932   2.832   5.615 -0.0876 -0.4223  0.6185
  108CHL1   C2314237   5.772   2.907   5.490 -1.0520  0.1701  0.0551
  108CHL1  H23A14238   5.732   2.803   5.482  1.7070 -0.8378 -2.2470
  108CHL1  H23B14239   5.693   2.986   5.491 -2.3209 -1.0645  0.9725
  108CHL1   C2414240   5.850   2.943   5.360  0.2691  0.0670 -0.0457
  108CHL1  H24A14241   5.915   3.033   5.373  1.6195 -0.7501 -0.8674
  108CHL1  H24B14242   5.922   2.861   5.341 -1.7251 -2.1469  1.4420
  108CHL1   C2514243   5.769   2.969   5.238 -0.3339 -0.7564  1.0266
  108CHL1   H2514244   5.696   3.048   5.262 -0.2573  0.0609 -1.1584
  108CHL1   C2614245   5.863   3.028   5.126  0.0601 -0.1275  0.1991
  108CHL1  H26A14246   5.950   2.961   5.110  1.8930  2.0317  0.5705
  108CHL1  H26B14247   5.806   3.043   5.032  0.9045 -1.2952 -0.5341
  108CHL1  H26C14248   5.908   3.125   5.156  1.4275 -0.8511  0.5996
  108CHL1   C2714249   5.705   2.847   5.178  0.5070  0.3084  0.1405
  108CHL1  H27A14250   5.649   2.794   5.258  0.0400  0.4111 -0.1113
  108CHL1  H27B14251   5.625   2.876   5.106 -1.2649 -0.6540  1.6333
  108CHL1  H27C14252   5.772   2.766   5.142 -1.9994 -3.0705  2.4788
  109CHL1    C314253   1.684   6.030   6.679 -0.2693  0.1211  0.2655
  109CHL1    H314254   1.589   6.064   6.632 -1.1828  0.4020  2.2154
  109CHL1    O314255   1.669   5.987   6.815 -0.1561 -0.5449 -0.6248
  109CHL1   H3'14256   1.683   6.065   6.869 -0.1519 -0.1845 -1.1347
  109CHL1    C414257   1.744   5.915   6.591  0.2369  0.1172 -0.8971
  109CHL1   H4A14258   1.841   5.901   6.643 -0.5919  2.2366  1.4474
  109CHL1   H4B14259   1.682   5.823   6.601 -0.1029  0.0009 -3.3964
  109CHL1    C514260   1.771   5.957   6.449  0.4604  0.2983  0.6940
  109CHL1    C614261   1.715   5.901   6.344  0.3128 -0.1252 -0.3346
  109CHL1    H614262   1.638   5.823   6.359  0.1893  0.1523  0.5515
  109CHL1    C714263   1.740   5.945   6.200 -0.5906 -0.3105 -0.1622
  109CHL1   H7A14264   1.761   5.855   6.139 -0.2301 -1.2620  1.2966
  109CHL1   H7B14265   1.663   6.013   6.158  1.0899  0.9942 -1.2355
  109CHL1    C814266   1.879   6.025   6.178 -0.1115 -0.1443  0.7975
  109CHL1    H814267   1.957   5.950   6.204 -1.5848 -1.1611  2.5299
  109CHL1   C1414268   1.896   6.079   6.036 -0.6326 -0.2481  0.2088
  109CHL1   H1414269   1.810   6.146   6.017  0.6061  1.1174 -0.7377
  109CHL1   C1514270   1.869   5.978   5.919 -0.2804  0.1194  0.8909
  109CHL1  H15A14271   1.921   5.881   5.936 -0.5449 -0.1191  0.3768
  109CHL1  H15B14272   1.766   5.941   5.903  0.3606 -0.4656 -2.8712
  109CHL1   C1614273   1.930   6.065   5.806  0.8509 -0.0488  0.2720
  109CHL1  H16A14274   2.001   6.011   5.740  3.7947  2.5055  1.1517
  109CHL1  H16B14275   1.842   6.105   5.751 -0.0122 -1.5263  0.5149
  109CHL1   C1714276   1.996   6.196   5.868 -1.1895 -0.4016  0.3590
  109CHL1   H1714277   1.918   6.274   5.877 -0.2897  0.2830  2.9733
  109CHL1   C1314278   2.028   6.161   6.012 -0.1002 -0.5828 -0.3046
  109CHL1   C1814279   2.152   6.071   6.018 -0.7645  0.5281 -0.2499
  109CHL1  H18A14280   2.243   6.131   5.997 -1.5786  2.0487  0.4340
  109CHL1  H18B14281   2.157   6.031   6.121  0.3064  0.6896 -0.2339
  109CHL1  H18C14282   2.145   5.991   5.941  0.1322 -0.8124  1.0081
  109CHL1   C1214283   2.021   6.271   6.118  0.0868  0.2885  0.4106
  109CHL1  H12A14284   2.098   6.351   6.112  1.5129 -1.0800 -0.6509
  109CHL1  H12B14285   1.922   6.317   6.102  0.1349  0.0244 -0.7417
  109CHL1   C1114286   2.014   6.227   6.267 -0.0573  0.1300  0.2005
  109CHL1  H11A14287   2.107   6.173   6.294  1.0143  1.6187 -0.3543
  109CHL1  H11B14288   2.011   6.326   6.319 -0.7951  2.0095 -3.1581
  109CHL1    C914289   1.888   6.136   6.290 -0.2563 -0.4773  0.0464
  109CHL1    H914290   1.805   6.207   6.272 -0.1052  0.1114  1.5521
  109CHL1   C1014291   1.873   6.080   6.435 -0.4204 -0.0009 -0.4807
  109CHL1   C1914292   2.018   6.038   6.487 -0.2141  0.0882  0.2999
  109CHL1  H19A14293   2.054   5.971   6.406  1.7084  1.8386 -0.3819
  109CHL1  H19B14294   2.081   6.129   6.484 -1.3033  0.8211 -1.1134
  109CHL1  H19C14295   2.022   5.983   6.584 -1.3517 -1.9170 -0.7280
  109CHL1    C114296   1.807   6.192   6.529  0.1362 -0.4837 -0.1024
  109CHL1   H1A14297   1.865   6.286   6.517  0.3767 -0.8365 -2.2437
  109CHL1   H1B14298   1.705   6.210   6.490 -0.2850 -1.9777  0.2337
  109CHL1    C214299   1.781   6.157   6.676  0.3963  0.8340  0.5760
  109CHL1   H2A14300   1.721   6.241   6.718 -1.2645 -1.0020  2.0283
  109CHL1   H2B14301   1.870   6.128   6.736  0.0384 -0.7202  0.3832
  109CHL1   C2014302   2.097   6.261   5.770 -0.7704  0.1228 -1.0000
  109CHL1   H2014303   2.183   6.191   5.768 -0.7635  0.0992 -0.1872
  109CHL1   C2114304   2.150   6.382   5.853  0.4028  0.7027  0.1746
  109CHL1  H21A14305   2.062   6.439   5.891  0.4572  0.9189 -0.0208
  109CHL1  H21B14306   2.217   6.446   5.792 -0.3175  0.7150 -0.6327
  109CHL1  H21C14307   2.214   6.337   5.932  2.1131 -1.2946 -2.2007
  109CHL1   C2214308   2.055   6.300   5.630 -0.3894 -0.2817 -0.0088
  109CHL1  H22A14309   2.145   6.344   5.582  0.9626 -2.6686  0.1664
  109CHL1  H22B14310   2.029   6.202   5.585 -2.2846  1.4987 -3.1459
  109CHL1   C2314311   1.941   6.396   5.614  0.6060  0.0515  0.2019
  109CHL1  H23A14312   1.846   6.357   5.656  0.0468  0.5768 -0.5537
  109CHL1  H23B14313   1.970   6.492   5.663  1.8037 -0.3307  0.2785
  109CHL1   C2414314   1.908   6.446   5.471 -0.3663  0.0425  0.1026
  109CHL1  H24A14315   1.992   6.510   5.437 -2.0722  2.2434 -0.1942
  109CHL1  H24B14316   1.909   6.358   5.403  2.4922  0.4848 -0.5728
  109CHL1   C2514317   1.779   6.526   5.451  0.1948 -0.1087 -0.0478
  109CHL1   H2514318   1.772   6.601   5.532  1.2362 -0.1345  0.0728
  109CHL1   C2614319   1.775   6.604   5.312  0.0156 -0.2162 -0.0405
  109CHL1  H26A14320   1.789   6.536   5.224  3.9875  0.2675  0.0246
  109CHL1  H26B14321   1.673   6.647   5.317  0.2263  0.1930  0.9465
  109CHL1  H26C14322   1.843   6.689   5.291 -0.1516 -0.2164 -0.6107
  109CHL1   C2714323   1.645   6.453   5.482 -0.5481 -0.5817 -0.1688
  109CHL1  H27A14324   1.656   6.367   5.552  0.2525  0.2223  0.7260
  109CHL1  H27B14325   1.569   6.521   5.524  0.8742  2.0012 -1.5021
  109CHL1  H27C14326   1.623   6.398   5.388 -1.7743  0.2277 -0.3694
  110CHL1    C314327   0.214   6.008   6.701  0.1431  0.2569 -0.0026
  110CHL1    H314328   0.178   5.903   6.689  0.2743  0.2677 -0.4907
  110CHL1    O314329   0.205   6.041   6.839 -0.4065 -0.2970 -0.2199
  110CHL1   H3'14330   0.288   6.005   6.869  0.5841  1.1426 -1.1096
  110CHL1    C414331   0.353   6.025   6.632  0.6034 -0.0909  0.7374
  110CHL1   H4A14332   0.380   6.133   6.634  1.1313 -0.1682 -0.8753
  110CHL1   H4B14333   0.429   5.969   6.689  1.8582  1.4720  0.6736
  110CHL1    C514334   0.357   5.979   6.484  0.6133 -0.3467  0.2278
  110CHL1    C614335   0.443   5.892   6.434  0.6897  0.5189  0.1954
  110CHL1    H614336   0.518   5.843   6.498  1.0730  1.0845  0.1884
  110CHL1    C714337   0.450   5.841   6.292  0.0087  0.1510  0.5595
  110CHL1   H7A14338   0.555   5.838   6.257  0.0822 -1.1603  0.8157
  110CHL1   H7B14339   0.403   5.740   6.290  1.6097 -0.6133  0.1487
  110CHL1    C814340   0.374   5.932   6.195  0.5927  1.0253  0.2261
  110CHL1    H814341   0.436   6.020   6.169  1.9254  0.0110 -0.1928
  110CHL1   C1414342   0.346   5.870   6.064 -0.2082  0.0953  0.0570
  110CHL1   H1414343   0.275   5.786   6.075  1.4255 -1.7276 -2.1927
  110CHL1   C1514344   0.470   5.819   5.983 -0.1221  0.8374 -0.1101
  110CHL1  H15A14345   0.562   5.880   5.999  0.7015 -0.2474 -0.6272
  110CHL1  H15B14346   0.487   5.714   6.013 -1.1649  0.1434 -1.7837
  110CHL1   C1614347   0.413   5.811   5.841 -0.0071 -0.0224  0.3793
  110CHL1  H16A14348   0.479   5.876   5.780 -0.5997 -1.5451 -1.9739
  110CHL1  H16B14349   0.407   5.706   5.807  0.7388 -1.0686  3.1488
  110CHL1   C1714350   0.264   5.866   5.845  0.0927  0.0130 -0.5801
  110CHL1   H1714351   0.194   5.784   5.870 -3.3771  3.3586  1.8324
  110CHL1   C1314352   0.269   5.959   5.969 -0.0535 -0.4353  0.0544
  110CHL1   C1814353   0.351   6.090   5.935  0.0552  0.1946 -0.4979
  110CHL1  H18A14354   0.310   6.132   5.841  0.5110  0.1514 -0.7215
  110CHL1  H18B14355   0.350   6.167   6.015  0.5263 -0.7177  0.4045
  110CHL1  H18C14356   0.453   6.053   5.913 -0.4717 -2.7893  1.4538
  110CHL1   C1214357   0.131   5.984   6.033  0.3328 -0.2677  0.7959
  110CHL1  H12A14358   0.063   6.049   5.974 -1.1147 -1.0906  1.4981
  110CHL1  H12B14359   0.078   5.886   6.038  0.3328 -0.2506  1.1581
  110CHL1   C1114360   0.144   6.052   6.171 -0.3087 -0.0888 -0.1586
  110CHL1  H11A14361   0.182   6.155   6.155 -2.2752  0.6413 -0.3876
  110CHL1  H11B14362   0.040   6.060   6.207 -0.6586  0.8745 -1.3319
  110CHL1    C914363   0.238   5.977   6.261  1.1269  0.4761 -0.4153
  110CHL1    H914364   0.177   5.886   6.280 -2.6949  2.9698  0.2778
  110CHL1   C1014365   0.246   6.049   6.399  0.0163  0.3653  0.1454
  110CHL1   C1914366   0.297   6.197   6.369 -0.4234  0.2080  0.0518
  110CHL1  H19A14367   0.370   6.193   6.286  1.7522 -0.7066  1.8983
  110CHL1  H19B14368   0.205   6.255   6.348 -1.4376 -1.3246  0.0571
  110CHL1  H19C14369   0.336   6.245   6.461 -0.4453 -0.3102  0.3345
  110CHL1    C114370   0.111   6.056   6.474  0.0207  0.2712  0.8178
  110CHL1   H1A14371   0.041   6.121   6.418 -1.0481  0.1550  1.9779
  110CHL1   H1B14372   0.066   5.954   6.479  0.6547 -0.1247 -0.8775
  110CHL1    C214373   0.114   6.099   6.619 -0.4183  0.0064 -0.0772
  110CHL1   H2A14374   0.013   6.089   6.664 -0.9907  0.7849 -1.1465
  110CHL1   H2B14375   0.152   6.202   6.627  3.0450 -1.2861  2.3142
  110CHL1   C2014376   0.221   5.915   5.708  0.0270 -0.0591  0.0039
  110CHL1   H2014377   0.303   5.978   5.668 -0.2865  0.3452 -0.0136
  110CHL1   C2114378   0.092   5.996   5.707 -0.2086  0.3855 -0.2168
  110CHL1  H21A14379   0.004   5.935   5.735  0.4065  0.5586  2.4021
  110CHL1  H21B14380   0.075   6.045   5.608  1.6391  1.6598  0.0404
  110CHL1  H21C14381   0.102   6.083   5.776  2.2923  0.2705 -0.3462
  110CHL1   C2214382   0.216   5.799   5.601 -0.2211  1.1282  0.3875
  110CHL1  H22A14383   0.315   5.749   5.596 -0.3225  1.0595 -1.7196
  110CHL1  H22B14384   0.134   5.732   5.634  0.5246  0.4753  0.9445
  110CHL1   C2314385   0.187   5.838   5.453 -0.3886 -1.2418 -0.3407
  110CHL1  H23A14386   0.082   5.868   5.434 -0.1752 -0.4087 -0.2516
  110CHL1  H23B14387   0.251   5.918   5.410 -0.9170 -2.5406 -3.9414
  110CHL1   C2414388   0.217   5.714   5.369 -0.3044  0.1345  1.0975
  110CHL1  H24A14389   0.324   5.682   5.373  0.5735  2.5324 -0.8653
  110CHL1  H24B14390   0.155   5.631   5.410  0.6512 -0.9006  0.5258
  110CHL1   C2514391   0.182   5.735   5.223 -0.1927 -0.7409  0.2736
  110CHL1   H2514392   0.088   5.795   5.221  0.7659  0.8085 -0.1064
  110CHL1   C2614393   0.300   5.809   5.156 -0.5249 -0.6252  0.3548
  110CHL1  H26A14394   0.386   5.740   5.173  0.9312  1.1658  0.5176
  110CHL1  H26B14395   0.289   5.835   5.049 -0.3350  1.0109  0.7045
  110CHL1  H26C14396   0.318   5.900   5.218 -0.7447 -0.3864  0.0664
  110CHL1   C2714397   0.152   5.605   5.150  0.1071 -0.5771 -0.0788
  110CHL1  H27A14398   0.243   5.543   5.161  1.0148  0.7130 -0.0159
  110CHL1  H27B14399   0.077   5.545   5.206  1.0526 -0.2050  1.6659
  110CHL1  H27C14400   0.124   5.612   5.043 -1.2501  0.7410  0.3294
  111CHL1    C314401   3.761   1.537   6.861 -0.2623  0.2554 -0.4167
  111CHL1    H314402   3.662   1.567   6.901 -0.7423 -1.4291 -0.2540
  111CHL1    O314403   3.855   1.568   6.958 -0.3713 -0.5083 -0.4323
  111CHL1   H3'14404   3.934   1.521   6.928 -0.2633 -0.7028  0.1357
  111CHL1    C414405   3.744   1.385   6.842 -0.4040 -0.8929  0.4463
  111CHL1   H4A14406   3.844   1.340   6.820  0.6971  1.6588 -0.1266
  111CHL1   H4B14407   3.708   1.333   6.933  3.0512 -4.1637  0.2420
  111CHL1    C514408   3.659   1.362   6.722  0.4656 -0.5224 -0.6476
  111CHL1    C614409   3.547   1.283   6.727 -0.4346  0.0436 -0.8534
  111CHL1    H614410   3.517   1.239   6.823  2.9102 -0.7495 -0.0333
  111CHL1    C714411   3.465   1.240   6.604 -0.6433  0.0019 -0.1421
  111CHL1   H7A14412   3.453   1.129   6.608  0.2135 -0.1256 -0.8942
  111CHL1   H7B14413   3.365   1.286   6.586 -1.2790 -0.2675  2.3344
  111CHL1    C814414   3.537   1.254   6.472  0.1417  0.2114  0.0546
  111CHL1    H814415   3.623   1.183   6.472  0.8048  0.9812  1.0388
  111CHL1   C1414416   3.446   1.225   6.355  0.4459 -0.2716  0.0352
  111CHL1   H1414417   3.363   1.297   6.371  0.8052  0.2768 -0.5134
  111CHL1   C1514418   3.361   1.091   6.353 -0.2251  0.9309 -0.5810
  111CHL1  H15A14419   3.435   1.008   6.359 -0.0527  1.1182  0.0129
  111CHL1  H15B14420   3.276   1.089   6.425 -0.5905 -1.4197 -1.0040
  111CHL1   C1614421   3.319   1.074   6.205  0.1149  0.1027  0.9251
  111CHL1  H16A14422   3.363   0.986   6.154 -3.1993  0.4898 -3.1219
  111CHL1  H16B14423   3.208   1.072   6.200 -0.0497 -2.0173  3.2984
  111CHL1   C1714424   3.375   1.193   6.129 -0.2670 -0.3882  0.4044
  111CHL1   H1714425   3.304   1.276   6.151  0.6682  0.6120 -0.2103
  111CHL1   C1314426   3.500   1.249   6.222  0.6453 -0.1328  0.1669
  111CHL1   C1814427   3.623   1.164   6.190  0.0920 -0.1368  0.1522
  111CHL1  H18A14428   3.667   1.196   6.093  2.2228  0.0486  1.1122
  111CHL1  H18B14429   3.702   1.172   6.268 -0.9465  2.2586  1.0548
  111CHL1  H18C14430   3.591   1.058   6.182 -1.0472  0.1642  0.6114
  111CHL1   C1214431   3.530   1.402   6.215  0.8993  0.8338  0.6881
  111CHL1  H12A14432   3.573   1.428   6.116 -0.3729 -0.3455 -0.2006
  111CHL1  H12B14433   3.436   1.456   6.237  0.6687  0.5827  0.3334
  111CHL1   C1114434   3.625   1.441   6.326 -1.1588 -1.1157 -0.5600
  111CHL1  H11A14435   3.726   1.405   6.295 -0.3874  1.4699 -1.3713
  111CHL1  H11B14436   3.629   1.552   6.332 -2.8960 -1.1136  1.2790
  111CHL1    C914437   3.590   1.397   6.471 -0.6935 -0.0092  0.2859
  111CHL1    H914438   3.508   1.460   6.514 -0.3989 -0.7456  2.0153
  111CHL1   C1014439   3.696   1.423   6.587 -0.5456 -0.4394 -0.3076
  111CHL1   C1914440   3.830   1.375   6.528  0.2057  0.1186 -0.0010
  111CHL1  H19A14441   3.865   1.429   6.438  0.1280 -0.5557 -0.4416
  111CHL1  H19B14442   3.913   1.407   6.595  0.0564  1.8323 -0.6023
  111CHL1  H19C14443   3.830   1.265   6.511 -0.2817  0.1321 -0.0837
  111CHL1    C114444   3.705   1.571   6.614 -0.0468 -0.0217  0.0464
  111CHL1   H1A14445   3.733   1.628   6.524  1.2684 -1.3887 -0.4531
  111CHL1   H1B14446   3.601   1.595   6.645 -0.2051  0.5748 -0.9340
  111CHL1    C214447   3.797   1.612   6.737  0.1845  0.2179  0.0500
  111CHL1   H2A14448   3.791   1.722   6.750  0.4769  0.4535 -1.5775
  111CHL1   H2B14449   3.903   1.589   6.711  0.2511  2.7061 -2.2085
  111CHL1   C2014450   3.398   1.167   5.980 -0.0636  0.2991 -0.0335
  111CHL1   H2014451   3.480   1.092   5.969 -0.4025 -0.1845  0.6291
  111CHL1   C2114452   3.445   1.300   5.914 -0.5877  0.0270  0.7744
  111CHL1  H21A14453   3.553   1.316   5.932 -0.0520 -3.2774  1.1356
  111CHL1  H21B14454   3.374   1.377   5.950 -1.0959 -0.1890  0.2577
  111CHL1  H21C14455   3.435   1.291   5.803  0.6494  0.1262  0.6473
  111CHL1   C2214456   3.275   1.105   5.906  0.2654  0.6400 -0.1996
  111CHL1  H22A14457   3.177   1.153   5.923  0.2367  0.7911 -0.7495
  111CHL1  H22B14458   3.297   1.136   5.801 -0.2215 -1.9729 -1.1363
  111CHL1   C2314459   3.265   0.947   5.901  0.0527  0.3953  0.1899
  111CHL1  H23A14460   3.231   0.912   6.001  1.6237  2.1463  1.4283
  111CHL1  H23B14461   3.178   0.926   5.836 -0.3843 -0.5616  1.0522
  111CHL1   C2414462   3.387   0.879   5.850  0.5306  0.2642 -0.4663
  111CHL1  H24A14463   3.414   0.917   5.749  1.3108 -0.5094 -0.5642
  111CHL1  H24B14464   3.472   0.894   5.920  0.2134  2.1436 -0.4250
  111CHL1   C2514465   3.375   0.729   5.837 -0.0886 -0.4956 -0.2554
  111CHL1   H2514466   3.282   0.707   5.780 -1.2235  2.5841  0.1957
  111CHL1   C2614467   3.481   0.664   5.759 -0.1009  0.2479 -0.1429
  111CHL1  H26A14468   3.583   0.696   5.790  0.0179  2.0579 -2.1517
  111CHL1  H26B14469   3.466   0.555   5.768 -0.3630  0.3490  0.7175
  111CHL1  H26C14470   3.474   0.691   5.652  1.7068  0.8183 -0.1600
  111CHL1   C2714471   3.369   0.667   5.973 -0.1418 -0.3149 -0.9576
  111CHL1  H27A14472   3.460   0.686   6.034 -2.5367 -1.5357  3.4786
  111CHL1  H27B14473   3.277   0.699   6.027  0.0903 -0.8166 -0.2469
  111CHL1  H27C14474   3.365   0.556   5.971 -0.2096 -0.3071 -1.1905
  112CHL1    C314475   5.116   1.582   6.826  0.5873 -0.0097 -0.0594
  112CHL1    H314476   5.025   1.617   6.878  0.0973  0.4474 -1.1856
  112CHL1    O314477   5.205   1.511   6.915 -0.5006  0.2201  0.5534
  112CHL1   H3'14478   5.232   1.589   6.965  2.3672 -0.3121  0.0175
  112CHL1    C414479   5.059   1.483   6.725  0.3984  0.2485  0.4898
  112CHL1   H4A14480   5.143   1.440   6.667 -0.1606  0.7969 -0.7689
  112CHL1   H4B14481   5.008   1.399   6.778  0.4306 -1.1385 -1.5312
  112CHL1    C514482   4.966   1.537   6.609 -0.0119 -0.5247 -0.3001
  112CHL1    C614483   4.847   1.488   6.585 -0.4892  0.0546  0.4482
  112CHL1    H614484   4.802   1.406   6.642 -1.6414  0.3202 -0.0452
  112CHL1    C714485   4.767   1.541   6.467  0.0550  0.6385 -0.7900
  112CHL1   H7A14486   4.731   1.453   6.411 -1.1540  0.1802  0.6352
  112CHL1   H7B14487   4.676   1.590   6.508 -2.7811 -2.9747 -2.2739
  112CHL1    C814488   4.844   1.638   6.377  0.8085 -0.0929 -0.0911
  112CHL1    H814489   4.904   1.572   6.311 -2.3384 -0.6311 -2.7123
  112CHL1   C1414490   4.754   1.720   6.286  0.7064  0.1823 -0.2137
  112CHL1   H1414491   4.685   1.771   6.356 -0.1975 -0.0758 -0.8958
  112CHL1   C1514492   4.667   1.631   6.193  0.8225  0.4656  0.4157
  112CHL1  H15A14493   4.724   1.543   6.158 -1.7975 -1.2984  0.3605
  112CHL1  H15B14494   4.591   1.579   6.255  1.0646 -1.8461 -1.1383
  112CHL1   C1614495   4.617   1.724   6.090 -0.3054 -0.1278 -0.5176
  112CHL1  H16A14496   4.609   1.664   5.996 -3.0669  0.3981 -0.7033
  112CHL1  H16B14497   4.510   1.746   6.107 -0.0881 -0.4528  1.4474
  112CHL1   C1714498   4.699   1.857   6.106 -0.6426  0.2957  0.1050
  112CHL1   H1714499   4.630   1.913   6.172 -0.8364 -1.5565  1.5221
  112CHL1   C1314500   4.823   1.814   6.191 -0.5197  0.3721  0.9236
  112CHL1   C1814501   4.929   1.743   6.099 -0.1988 -0.4350  0.9021
  112CHL1  H18A14502   4.973   1.811   6.024 -0.8805  1.2930  2.0126
  112CHL1  H18B14503   5.012   1.691   6.153 -0.9664 -3.2184 -0.4285
  112CHL1  H18C14504   4.888   1.658   6.041  0.0748  0.7852 -1.1701
  112CHL1   C1214505   4.887   1.924   6.281 -0.5679 -0.4931 -0.2444
  112CHL1  H12A14506   4.934   2.004   6.221  0.0195 -1.9604 -1.8289
  112CHL1  H12B14507   4.796   1.964   6.331 -1.2444 -2.6650  0.3730
  112CHL1   C1114508   4.983   1.856   6.379 -0.6225 -0.7072  0.3249
  112CHL1  H11A14509   5.068   1.824   6.315  0.7952 -1.7059  2.5819
  112CHL1  H11B14510   5.021   1.934   6.448 -0.8263  0.4911 -0.8644
  112CHL1    C914511   4.928   1.735   6.452 -0.4876 -0.1361 -0.9385
  112CHL1    H914512   4.865   1.785   6.529  1.0286  0.4901 -0.0531
  112CHL1   C1014513   5.035   1.658   6.540  0.1541 -0.7596 -0.4869
  112CHL1   C1914514   5.149   1.618   6.447 -0.2974 -0.4166 -0.2184
  112CHL1  H19A14515   5.195   1.522   6.479 -0.5791 -0.3800  0.3097
  112CHL1  H19B14516   5.119   1.595   6.343 -3.1936  1.3219  0.1071
  112CHL1  H19C14517   5.233   1.690   6.455 -0.5396 -0.1434 -0.0831
  112CHL1    C114518   5.084   1.759   6.654  0.6152  0.6950  0.2155
  112CHL1   H1A14519   5.128   1.851   6.609  0.0586  0.9288  0.1391
  112CHL1   H1B14520   4.995   1.785   6.714  1.6447  2.3371  1.1197
  112CHL1    C214521   5.188   1.693   6.755  0.1329  0.0485  0.0106
  112CHL1   H2A14522   5.210   1.777   6.825 -2.1443 -0.5129  1.4950
  112CHL1   H2B14523   5.279   1.659   6.700  0.5758  1.8278 -0.4385
  112CHL1   C2014524   4.717   1.930   5.981 -0.1937 -0.7346  0.1843
  112CHL1   H2014525   4.784   1.879   5.909  0.4154 -0.5405  0.6056
  112CHL1   C2114526   4.767   2.073   6.008 -0.5081 -0.4038 -0.2135
  112CHL1  H21A14527   4.716   2.126   6.092  2.1335  1.3281  0.4188
  112CHL1  H21B14528   4.750   2.136   5.918 -0.3240  0.0950  0.0950
  112CHL1  H21C14529   4.877   2.070   6.023 -0.7174 -0.5857  1.5098
  112CHL1   C2214530   4.593   1.942   5.901  0.0541  0.0312  0.5102
  112CHL1  H22A14531   4.543   1.843   5.888 -0.9666  0.8172 -2.1057
  112CHL1  H22B14532   4.521   2.009   5.953 -1.5689 -2.3190  1.4720
  112CHL1   C2314533   4.604   1.989   5.754  0.5730 -0.1407 -0.2242
  112CHL1  H23A14534   4.666   2.081   5.744  0.7400 -0.4650 -3.6252
  112CHL1  H23B14535   4.647   1.913   5.684 -0.7932  0.3059 -1.6169
  112CHL1   C2414536   4.469   2.040   5.696  0.3907 -0.0235  0.5554
  112CHL1  H24A14537   4.392   1.960   5.696 -0.8392  1.1139 -0.8780
  112CHL1  H24B14538   4.427   2.109   5.773 -1.5473 -0.6388  0.1014
  112CHL1   C2514539   4.487   2.097   5.557  0.1198  0.1457  0.4521
  112CHL1   H2514540   4.562   2.179   5.554 -1.5934  1.7576 -1.1706
  112CHL1   C2614541   4.523   1.981   5.461 -0.2199 -0.0321  0.9802
  112CHL1  H26A14542   4.456   1.894   5.481 -0.0291 -0.7364 -1.1518
  112CHL1  H26B14543   4.519   2.015   5.355 -2.9873 -2.1438  0.3013
  112CHL1  H26C14544   4.625   1.944   5.486 -1.0718 -2.9900  0.4874
  112CHL1   C2714545   4.355   2.165   5.516 -0.2843 -0.1804 -0.1227
  112CHL1  H27A14546   4.358   2.193   5.408  0.7510  4.6046  0.8828
  112CHL1  H27B14547   4.267   2.098   5.526  1.0132 -1.9306 -0.1204
  112CHL1  H27C14548   4.331   2.252   5.582 -1.4501  0.2402 -1.0420
  113CHL1    C314549   7.223   5.203   6.697  1.0489  0.7186 -0.9050
  113CHL1    H314550   7.333   5.193   6.712  0.7708  0.4738  1.4070
  113CHL1    O314551   7.161   5.225   6.825  0.1940 -0.1072 -0.1454
  113CHL1   H3'14552   7.227   5.277   6.872  1.7442 -0.7737 -1.5007
  113CHL1    C414553   7.193   5.322   6.603  0.9465 -0.1932  0.0884
  113CHL1   H4A14554   7.085   5.346   6.619  0.5195 -2.4918  1.0708
  113CHL1   H4B14555   7.265   5.401   6.633  1.1553 -0.2284 -0.3171
  113CHL1    C514556   7.216   5.275   6.458 -0.4740  0.3381 -0.1569
  113CHL1    C614557   7.287   5.348   6.364  0.3278  1.0219 -0.4158
  113CHL1    H614558   7.317   5.448   6.397  0.9074 -0.5615  4.7621
  113CHL1    C714559   7.317   5.306   6.221 -0.5822 -0.2355 -0.2666
  113CHL1   H7A14560   7.311   5.388   6.146  1.5037 -0.5239 -0.8198
  113CHL1   H7B14561   7.422   5.271   6.218 -0.0584  1.1555  0.7150
  113CHL1    C814562   7.219   5.194   6.174 -0.1377  0.2863 -0.4225
  113CHL1    H814563   7.120   5.245   6.165 -0.9493 -0.9808  0.8555
  113CHL1   C1414564   7.260   5.128   6.045  0.6572 -0.0043 -0.1173
  113CHL1   H1414565   7.343   5.056   6.063 -0.5832 -1.0608  1.7701
  113CHL1   C1514566   7.319   5.222   5.941  0.1036 -0.0916 -0.5011
  113CHL1  H15A14567   7.266   5.317   5.921  0.6955  0.6857  1.3839
  113CHL1  H15B14568   7.422   5.249   5.974 -0.0889  1.2807 -0.9580
  113CHL1   C1614569   7.316   5.143   5.808  0.2613 -0.3320 -1.0295
  113CHL1  H16A14570   7.265   5.201   5.729 -0.9541 -1.3064 -1.0032
  113CHL1  H16B14571   7.416   5.103   5.781  0.2306 -1.8506  0.8866
  113CHL1   C1714572   7.229   5.013   5.843 -0.0010  0.0698  0.0570
  113CHL1   H1714573   7.305   4.935   5.863  0.7577  0.6079 -0.6541
  113CHL1   C1314574   7.155   5.042   5.976 -0.4732  0.1623  0.5881
  113CHL1   C1814575   7.031   5.123   5.938 -0.5943  0.0542  0.4202
  113CHL1  H18A14576   6.969   5.039   5.900  2.3067 -1.4566 -1.2617
  113CHL1  H18B14577   6.978   5.178   6.019  0.7974  1.1957  0.5913
  113CHL1  H18C14578   7.049   5.191   5.852 -0.8137 -1.2619 -0.6963
  113CHL1   C1214579   7.133   4.926   6.078 -0.0360 -0.2641  0.8797
  113CHL1  H12A14580   7.048   4.870   6.033 -0.2960  1.1367 -0.4460
  113CHL1  H12B14581   7.225   4.867   6.100  0.9258  1.3054  1.2367
  113CHL1   C1114582   7.085   4.981   6.210  0.0541 -0.5034 -0.5073
  113CHL1  H11A14583   6.980   5.012   6.189 -0.7199 -1.9171  1.0105
  113CHL1  H11B14584   7.071   4.898   6.282 -1.1148  1.2819  1.4473
  113CHL1    C914585   7.186   5.089   6.279  0.1622  0.3012 -0.6464
  113CHL1    H914586   7.283   5.038   6.294  1.0173  1.5815 -1.5936
  113CHL1   C1014587   7.147   5.142   6.421 -0.1201  0.3444 -0.0313
  113CHL1   C1914588   6.989   5.171   6.415 -0.2225 -0.1571  0.7600
  113CHL1  H19A14589   6.958   5.254   6.349 -0.0189  1.4535  2.6174
  113CHL1  H19B14590   6.939   5.075   6.388 -0.9369 -0.0811  1.7489
  113CHL1  H19C14591   6.959   5.204   6.517 -0.2280  2.3470  0.0010
  113CHL1    C114592   7.191   5.027   6.519  0.1028  0.0311 -0.2281
  113CHL1   H1A14593   7.148   4.927   6.495  0.5416 -0.4256  0.8141
  113CHL1   H1B14594   7.301   5.012   6.517  0.1844 -0.0557  2.2015
  113CHL1    C214595   7.163   5.060   6.662 -1.1137 -0.7780  0.4542
  113CHL1   H2A14596   7.206   4.985   6.732  1.0526 -0.9699 -0.9796
  113CHL1   H2B14597   7.056   5.072   6.690 -1.7973 -1.0798 -1.7957
  113CHL1   C2014598   7.149   4.958   5.724  0.7951  0.0715 -0.6563
  113CHL1   H2014599   7.066   5.029   5.701 -1.1631 -1.6481  0.6847
  113CHL1   C2114600   7.083   4.824   5.739 -0.0308  0.9497 -0.1657
  113CHL1  H21A14601   7.006   4.829   5.819 -1.8451 -2.3565 -1.5163
  113CHL1  H21B14602   7.163   4.753   5.770  0.8230  2.6990  1.8974
  113CHL1  H21C14603   7.024   4.784   5.655 -0.3827 -0.1659  0.5911
  113CHL1   C2214604   7.226   4.947   5.585  0.1424 -0.3183  0.2904
  113CHL1  H22A14605   7.267   5.050   5.575 -1.3451  0.3337  0.6054
  113CHL1  H22B14606   7.307   4.872   5.581  0.2972 -0.1033 -3.3389
  113CHL1   C2314607   7.147   4.921   5.454  0.0026  0.7957  0.4519
  113CHL1  H23A14608   7.148   4.815   5.420 -2.2589  0.3361  1.6153
  113CHL1  H23B14609   7.043   4.948   5.483 -1.2625 -1.6966 -1.3311
  113CHL1   C2414610   7.206   5.014   5.344  0.3377 -0.5104 -0.0768
  113CHL1  H24A14611   7.202   5.119   5.380  2.4239 -1.1878  2.4534
  113CHL1  H24B14612   7.312   4.999   5.316  0.1596  1.8568 -2.3586
  113CHL1   C2514613   7.126   5.003   5.210  0.4474  0.2330  0.3723
  113CHL1   H2514614   7.019   5.014   5.240  0.4999  0.9607  0.3109
  113CHL1   C2614615   7.155   5.118   5.113  0.0743 -0.0720 -0.9943
  113CHL1  H26A14616   7.128   5.216   5.158 -1.3475 -1.5066  1.4927
  113CHL1  H26B14617   7.263   5.109   5.088  1.2121  4.3492  1.2033
  113CHL1  H26C14618   7.098   5.111   5.017 -0.4576  2.2185 -0.9204
  113CHL1   C2714619   7.135   4.864   5.144 -0.2941 -0.3636  0.1254
  113CHL1  H27A14620   7.239   4.849   5.108  0.3865  1.2403  1.2862
  113CHL1  H27B14621   7.103   4.777   5.206  0.8012 -1.8707 -1.3482
  113CHL1  H27C14622   7.063   4.861   5.059  0.2859 -0.4250 -0.3636
  114CHL1    C314623   5.969   1.415   6.761 -0.3225 -0.0409 -0.0469
  114CHL1    H314624   5.979   1.523   6.739  2.0906 -0.0219  0.8154
  114CHL1    O314625   6.028   1.389   6.887 -0.2439  0.0997  0.3565
  114CHL1   H3'14626   6.120   1.386   6.862 -0.9452  0.6668 -2.6951
  114CHL1    C414627   5.818   1.379   6.773 -0.2647 -0.2327  0.2253
  114CHL1   H4A14628   5.810   1.273   6.805 -2.2161 -0.4154 -0.7016
  114CHL1   H4B14629   5.775   1.447   6.850  0.7429 -0.9044  1.4087
  114CHL1    C514630   5.748   1.394   6.638  0.1714  0.0785 -0.1285
  114CHL1    C614631   5.648   1.482   6.631  0.0940 -0.6254 -0.5525
  114CHL1    H614632   5.606   1.528   6.722 -0.8403 -1.1416 -0.7042
  114CHL1    C714633   5.579   1.507   6.499  0.3059 -0.2988  0.1639
  114CHL1   H7A14634   5.469   1.507   6.515  0.4693  0.5027  1.5235
  114CHL1   H7B14635   5.617   1.602   6.455 -1.8660 -0.0325 -1.2849
  114CHL1    C814636   5.602   1.394   6.389 -0.4703  0.0696  0.7775
  114CHL1    H814637   5.550   1.301   6.422 -0.9760  0.4169  0.9569
  114CHL1   C1414638   5.566   1.448   6.261  0.6963 -0.1578 -0.4456
  114CHL1   H1414639   5.634   1.531   6.233  0.5735 -0.2207 -0.9352
  114CHL1   C1514640   5.431   1.512   6.250 -0.4684  0.4540  0.1242
  114CHL1  H15A14641   5.348   1.451   6.292 -0.2594 -0.8011 -1.1905
  114CHL1  H15B14642   5.419   1.613   6.295 -0.1209 -0.0566  1.4016
  114CHL1   C1614643   5.398   1.524   6.100 -0.5589  0.1275 -0.9520
  114CHL1  H16A14644   5.299   1.503   6.055 -1.2295  0.6344  0.2297
  114CHL1  H16B14645   5.423   1.630   6.080 -0.2304  0.1891 -0.2560
  114CHL1   C1714646   5.513   1.436   6.022  0.1318  0.5010 -0.0544
  114CHL1   H1714647   5.596   1.505   6.001  0.4122  1.2466  2.9997
  114CHL1   C1314648   5.570   1.348   6.139 -0.4874 -0.0678 -0.2894
  114CHL1   C1814649   5.465   1.229   6.167 -0.1509 -0.4671  0.4646
  114CHL1  H18A14650   5.358   1.259   6.159 -0.4704 -1.8660 -1.1991
  114CHL1  H18B14651   5.486   1.152   6.090 -2.6934 -1.3824  0.5752
  114CHL1  H18C14652   5.483   1.179   6.265  1.0305  1.8070  1.4764
  114CHL1   C1214653   5.719   1.298   6.126 -0.5873  0.7585 -0.4351
  114CHL1  H12A14654   5.723   1.218   6.049  1.2598  0.2195  0.1762
  114CHL1  H12B14655   5.774   1.385   6.085  0.1585 -0.2937 -1.7618
  114CHL1   C1114656   5.775   1.256   6.260 -0.4274  0.0744 -1.0077
  114CHL1  H11A14657   5.730   1.157   6.279 -0.7848  0.4324  0.1311
  114CHL1  H11B14658   5.883   1.234   6.246 -0.4118  1.7746 -4.7795
  114CHL1    C914659   5.749   1.356   6.379 -0.1399 -0.1256  0.3649
  114CHL1    H914660   5.787   1.455   6.345  0.5967 -0.9506 -1.3513
  114CHL1   C1014661   5.809   1.323   6.508 -0.1021  0.5524  0.2642
  114CHL1   C1914662   5.794   1.171   6.531 -0.1611 -0.3379  0.0776
  114CHL1  H19A14663   5.866   1.122   6.463 -0.3184 -1.9482  1.0357
  114CHL1  H19B14664   5.816   1.146   6.637 -0.8598  1.4477  0.6979
  114CHL1  H19C14665   5.694   1.132   6.505 -0.4009 -1.1364  1.9964
  114CHL1    C114666   5.968   1.366   6.517  0.0293 -0.4312 -0.3559
  114CHL1   H1A14667   6.010   1.294   6.443 -0.6155 -2.9567  1.5902
  114CHL1   H1B14668   5.974   1.474   6.493 -3.0356  0.6567  2.8317
  114CHL1    C214669   6.032   1.329   6.651 -0.6877  0.4125  0.1957
  114CHL1   H2A14670   6.139   1.357   6.641 -0.5887 -0.3359 -0.9435
  114CHL1   H2B14671   6.029   1.222   6.680  1.5528  0.2196 -0.1150
  114CHL1   C2014672   5.465   1.363   5.893 -0.5997  0.4840  0.1988
  114CHL1   H2014673   5.392   1.281   5.911  1.2269 -1.9902 -2.7653
  114CHL1   C2114674   5.581   1.293   5.816 -0.2137  0.9902  0.3508
  114CHL1  H21A14675   5.564   1.296   5.706  0.8954  0.2462  0.1435
  114CHL1  H21B14676   5.593   1.185   5.841 -0.2086  1.2549  1.5392
  114CHL1  H21C14677   5.677   1.347   5.826  1.4141 -1.1179 -2.3689
  114CHL1   C2214678   5.397   1.463   5.795 -1.0250  0.1432  0.1783
  114CHL1  H22A14679   5.389   1.415   5.695  1.1248  1.4573 -0.6749
  114CHL1  H22B14680   5.295   1.499   5.818 -0.2482  1.8616  1.0935
  114CHL1   C2314681   5.482   1.597   5.762  0.6539 -0.2502 -0.5362
  114CHL1  H23A14682   5.494   1.652   5.857  0.8605  1.3150 -1.4265
  114CHL1  H23B14683   5.580   1.568   5.719  1.2274  1.2704 -0.2891
  114CHL1   C2414684   5.397   1.703   5.681 -0.2371  0.2040 -0.3519
  114CHL1  H24A14685   5.378   1.646   5.587  0.3403  2.0649 -1.6451
  114CHL1  H24B14686   5.306   1.724   5.741  0.6677  1.0160  0.7895
  114CHL1   C2514687   5.461   1.840   5.651 -0.0784  0.1929 -0.1647
  114CHL1   H2514688   5.456   1.891   5.750  0.5301  0.0528 -0.0581
  114CHL1   C2614689   5.608   1.825   5.610  0.0469 -0.1151  0.7704
  114CHL1  H26A14690   5.663   1.782   5.696  0.8371 -1.4809 -0.3775
  114CHL1  H26B14691   5.622   1.762   5.520  4.4224  0.7152  0.6812
  114CHL1  H26C14692   5.657   1.923   5.595 -1.8437  1.1613  2.3872
  114CHL1   C2714693   5.378   1.909   5.549  0.4614 -0.1343  0.4584
  114CHL1  H27A14694   5.425   1.995   5.497  1.5214 -1.1785 -0.3781
  114CHL1  H27B14695   5.352   1.836   5.469  1.8115 -0.8828  0.6680
  114CHL1  H27C14696   5.275   1.930   5.587 -1.1185 -1.1487 -2.8950
  115CHL1    C314697   1.443   0.130   6.735  0.0423 -0.2510 -0.1126
  115CHL1    H314698   1.518   0.049   6.718  0.3446 -0.1092  0.5182
  115CHL1    O314699   1.418   0.144   6.871 -0.4098  0.3066  0.2300
  115CHL1   H3'14700   1.347   0.209   6.874 -1.8097 -1.1863  2.3051
  115CHL1    C414701   1.513   0.255   6.689  0.1222  0.2536 -0.0985
  115CHL1   H4A14702   1.468   0.347   6.732 -1.1627 -0.5521  0.3415
  115CHL1   H4B14703   1.610   0.264   6.742 -1.0163 -0.7459  2.2764
  115CHL1    C514704   1.528   0.257   6.540 -0.2631 -1.1257  0.2085
  115CHL1    C614705   1.648   0.281   6.486 -0.4316  0.2146  0.6664
  115CHL1    H614706   1.734   0.286   6.556 -0.6220  1.4490  0.8209
  115CHL1    C714707   1.671   0.296   6.341 -0.2776 -0.2572  0.3343
  115CHL1   H7A14708   1.728   0.390   6.324 -0.7058 -0.4399 -2.6929
  115CHL1   H7B14709   1.734   0.214   6.301  2.7363  0.9916  2.1926
  115CHL1    C814710   1.534   0.323   6.267  0.9192  0.0602  0.3851
  115CHL1    H814711   1.505   0.426   6.297 -1.7846 -0.7405  0.7643
  115CHL1   C1414712   1.549   0.308   6.117  0.1432  0.0991  0.8363
  115CHL1   H1414713   1.576   0.201   6.101 -2.3529 -0.6593  1.2401
  115CHL1   C1514714   1.661   0.382   6.048  0.6592  0.2311  0.3959
  115CHL1  H15A14715   1.661   0.481   6.099  0.6937 -1.3925  3.8136
  115CHL1  H15B14716   1.760   0.333   6.058 -0.0119 -0.8255  2.4034
  115CHL1   C1614717   1.617   0.387   5.904  0.1766  0.7354  0.5476
  115CHL1  H16A14718   1.618   0.488   5.858  1.5157  1.5993  2.3294
  115CHL1  H16B14719   1.674   0.313   5.844  0.3205 -0.1581  1.7351
  115CHL1   C1714720   1.470   0.318   5.890 -0.4179 -0.0442  0.0283
  115CHL1   H1714721   1.475   0.208   5.876 -0.2664 -0.1039  0.5171
  115CHL1   C1314722   1.422   0.328   6.037 -0.5278  0.3448  0.8129
  115CHL1   C1814723   1.359   0.463   6.065 -0.3409 -0.3390 -0.0613
  115CHL1  H18A14724   1.336   0.486   6.171 -2.6993 -1.5198 -0.2668
  115CHL1  H18B14725   1.421   0.548   6.028 -0.7324  0.2482  0.6133
  115CHL1  H18C14726   1.268   0.479   6.003  0.4762  0.9951 -0.9846
  115CHL1   C1214727   1.334   0.208   6.074 -0.3803 -0.1120 -1.0200
  115CHL1  H12A14728   1.240   0.204   6.015 -0.7511 -0.9532 -0.4046
  115CHL1  H12B14729   1.390   0.116   6.048  2.1529  1.2560 -0.7161
  115CHL1   C1114730   1.295   0.216   6.223 -0.4007  0.2560 -0.1375
  115CHL1  H11A14731   1.221   0.298   6.229 -0.1630  0.5289 -0.8223
  115CHL1  H11B14732   1.242   0.128   6.264 -1.8696  0.9269 -0.5316
  115CHL1    C914733   1.420   0.234   6.319  1.0198 -0.1783 -0.1155
  115CHL1    H914734   1.462   0.131   6.315  0.4284 -0.5780  2.5403
  115CHL1   C1014735   1.399   0.237   6.471  0.5709  0.7484 -0.3514
  115CHL1   C1914736   1.315   0.366   6.488 -0.5796  0.9858 -0.4860
  115CHL1  H19A14737   1.214   0.373   6.442 -0.5047  0.9594 -0.6532
  115CHL1  H19B14738   1.300   0.376   6.598 -1.7577 -3.3089 -0.0539
  115CHL1  H19C14739   1.362   0.458   6.449  2.3695  0.3886  1.3566
  115CHL1    C114740   1.324   0.106   6.522 -0.4760 -0.4201  0.1191
  115CHL1   H1A14741   1.222   0.100   6.480 -0.2709  0.8805 -0.6239
  115CHL1   H1B14742   1.381   0.016   6.489 -1.8195 -0.9553 -0.8132
  115CHL1    C214743   1.311   0.102   6.667  0.3662  0.4627  0.0008
  115CHL1   H2A14744   1.279   0.003   6.704 -1.6176  0.9480 -0.2747
  115CHL1   H2B14745   1.237   0.179   6.699  2.2360  2.5449 -0.4496
  115CHL1   C2014746   1.388   0.384   5.772 -0.3431 -0.2147  0.3506
  115CHL1   H2014747   1.387   0.493   5.793 -0.4840 -0.2668  0.6179
  115CHL1   C2114748   1.244   0.327   5.758 -0.3107 -0.0990  0.4822
  115CHL1  H21A14749   1.184   0.339   5.851  0.8890 -0.1004  1.2715
  115CHL1  H21B14750   1.243   0.219   5.734 -0.2855  0.7126 -4.1618
  115CHL1  H21C14751   1.190   0.385   5.681  2.9565 -0.1145 -2.0475
  115CHL1   C2214752   1.463   0.368   5.633  0.1196 -0.0255  0.6673
  115CHL1  H22A14753   1.403   0.418   5.554  0.6506 -0.6000 -0.1149
  115CHL1  H22B14754   1.562   0.416   5.647 -0.9142  2.6856 -0.7062
  115CHL1   C2314755   1.492   0.222   5.574 -0.2868  0.0134 -0.2487
  115CHL1  H23A14756   1.521   0.162   5.662 -0.5205  1.1290  0.6089
  115CHL1  H23B14757   1.403   0.171   5.529  0.2920  1.0785 -2.7752
  115CHL1   C2414758   1.618   0.214   5.487  0.0073 -0.1913  0.1360
  115CHL1  H24A14759   1.616   0.121   5.426  0.1446 -0.6518  0.8241
  115CHL1  H24B14760   1.620   0.288   5.404  0.6004  0.4598  0.7167
  115CHL1   C2514761   1.752   0.231   5.555  0.1125 -0.3478  0.0374
  115CHL1   H2514762   1.742   0.321   5.621 -1.5121 -1.1177  0.8944
  115CHL1   C2614763   1.787   0.105   5.637 -0.2318 -0.0606 -0.3257
  115CHL1  H26A14764   1.788   0.022   5.563 -2.1037  1.3364 -2.0328
  115CHL1  H26B14765   1.890   0.105   5.678 -0.2814  1.5973 -0.1477
  115CHL1  H26C14766   1.722   0.084   5.725 -0.6679  3.1224  0.2253
  115CHL1   C2714767   1.863   0.253   5.455 -0.2213 -0.8128  0.6674
  115CHL1  H27A14768   1.962   0.259   5.505  1.6492  0.2109 -2.8232
  115CHL1  H27B14769   1.877   0.176   5.377  0.3660  0.8183 -0.9249
  115CHL1  H27C14770   1.849   0.350   5.402  0.1917 -0.4563  1.1961
  116CHL1    C314771   2.847   1.382   6.731  0.2508  0.1688 -0.6941
  116CHL1    H314772   2.835   1.489   6.702 -0.2600  0.3411  0.1168
  116CHL1    O314773   2.842   1.381   6.875 -0.9296 -0.1217  0.1478
  116CHL1   H3'14774   2.751   1.405   6.894 -0.3860  1.8008  0.6034
  116CHL1    C414775   2.732   1.288   6.684  0.2583 -0.5514  0.1075
  116CHL1   H4A14776   2.745   1.185   6.722 -1.0407 -0.2004  1.5884
  116CHL1   H4B14777   2.631   1.321   6.714 -0.3050 -0.5104 -1.6905
  116CHL1    C514778   2.734   1.295   6.531 -0.1427 -0.3121 -0.4798
  116CHL1    C614779   2.629   1.346   6.459  0.5144 -0.7250 -0.3411
  116CHL1    H614780   2.541   1.382   6.514 -0.5400 -0.1234 -2.3308
  116CHL1    C714781   2.618   1.345   6.312 -0.2106 -0.2227  0.3667
  116CHL1   H7A14782   2.527   1.296   6.272 -0.6579  0.7811  0.1319
  116CHL1   H7B14783   2.620   1.448   6.272 -2.0915  0.2417  1.3474
  116CHL1    C814784   2.732   1.264   6.245  0.6262 -0.0917  0.2926
  116CHL1    H814785   2.713   1.156   6.259 -1.2773  0.1680 -0.0601
  116CHL1   C1414786   2.732   1.296   6.093 -0.2752  0.6860 -0.8623
  116CHL1   H1414787   2.752   1.405   6.098  1.2908  0.3869  0.5114
  116CHL1   C1514788   2.604   1.268   6.009  0.6066 -0.5637 -0.2210
  116CHL1  H15A14789   2.560   1.169   6.032 -1.1064  0.2332  0.0820
  116CHL1  H15B14790   2.520   1.338   6.026  1.2185  0.5224 -1.4670
  116CHL1   C1614791   2.666   1.264   5.867  0.0972 -0.4930 -0.0567
  116CHL1  H16A14792   2.648   1.164   5.823 -0.1073  0.1590 -1.5047
  116CHL1  H16B14793   2.611   1.324   5.791  0.1790  0.6625  0.7637
  116CHL1   C1714794   2.820   1.293   5.884  0.4839  0.3914  0.3056
  116CHL1   H1714795   2.822   1.403   5.894 -2.9761  0.5852  0.1592
  116CHL1   C1314796   2.858   1.241   6.022  0.0804 -0.1949 -0.1941
  116CHL1   C1814797   2.846   1.086   6.022  0.6374 -0.1627  0.4657
  116CHL1  H18A14798   2.807   1.047   6.118 -2.0191  2.3768  0.5475
  116CHL1  H18B14799   2.763   1.055   5.955 -0.1256  2.1282  0.2677
  116CHL1  H18C14800   2.941   1.038   5.988 -0.8633 -1.9763 -1.4419
  116CHL1   C1214801   2.981   1.302   6.086  0.2353  0.5805  0.3228
  116CHL1  H12A14802   3.083   1.287   6.047  0.9273 -0.2524  2.3300
  116CHL1  H12B14803   2.978   1.413   6.088 -0.4409  0.5633  1.6897
  116CHL1   C1114804   2.993   1.249   6.231  0.6022 -0.3126  1.0806
  116CHL1  H11A14805   3.008   1.140   6.224  1.7959 -0.2464  2.2434
  116CHL1  H11B14806   3.084   1.296   6.274 -0.7693  1.6235  2.0760
  116CHL1    C914807   2.866   1.295   6.314 -0.6058 -0.4563  0.1372
  116CHL1    H914808   2.861   1.406   6.313 -3.2237 -0.3995  3.0540
  116CHL1   C1014809   2.866   1.262   6.462 -0.0695  0.1481 -1.1742
  116CHL1   C1914810   2.898   1.114   6.483  0.4204  0.3956  0.4819
  116CHL1  H19A14811   3.000   1.096   6.442  0.0142  1.0328 -0.8596
  116CHL1  H19B14812   2.913   1.091   6.591  0.1271 -0.9077  0.2631
  116CHL1  H19C14813   2.828   1.042   6.436 -1.6085  2.6300 -0.0830
  116CHL1    C114814   2.974   1.347   6.531 -0.4769 -0.1859  0.3925
  116CHL1   H1A14815   3.071   1.320   6.485 -0.9595  0.6308 -1.1860
  116CHL1   H1B14816   2.957   1.455   6.508  0.8756 -0.0692 -0.1755
  116CHL1    C214817   2.983   1.336   6.682 -0.3203  0.1485  0.2760
  116CHL1   H2A14818   3.054   1.413   6.720 -0.5976  0.3993  0.2867
  116CHL1   H2B14819   3.020   1.239   6.719  2.7406  0.2395 -2.0759
  116CHL1   C2014820   2.908   1.262   5.762 -0.1537 -0.3178  0.6228
  116CHL1   H2014821   2.963   1.172   5.798 -0.3940 -0.7321 -0.0282
  116CHL1   C2114822   3.003   1.385   5.755 -0.8913 -0.1746 -0.7872
  116CHL1  H21A14823   2.954   1.479   5.723 -2.0946 -1.0040 -1.4210
  116CHL1  H21B14824   3.091   1.359   5.692 -1.2889 -0.0428 -1.4032
  116CHL1  H21C14825   3.039   1.405   5.858 -0.4746 -1.9556 -0.5633
  116CHL1   C2214826   2.842   1.230   5.627 -0.1147  0.0713  0.6128
  116CHL1  H22A14827   2.763   1.153   5.635 -0.0936 -0.2271 -1.5209
  116CHL1  H22B14828   2.789   1.323   5.594 -0.0603 -0.6961 -1.8178
  116CHL1   C2314829   2.945   1.187   5.519 -0.1181 -0.1405  0.1547
  116CHL1  H23A14830   2.886   1.182   5.424  0.0757  0.6872 -0.0175
  116CHL1  H23B14831   3.024   1.265   5.511 -0.4340  0.7421  3.7813
  116CHL1   C2414832   3.020   1.057   5.559  0.0085 -0.7237 -0.0356
  116CHL1  H24A14833   3.100   1.082   5.633 -1.5594 -1.9028  2.1821
  116CHL1  H24B14834   2.952   0.986   5.610 -0.6941 -0.1408 -0.1478
  116CHL1   C2514835   3.071   0.981   5.439  0.0005  0.0704  0.3884
  116CHL1   H2514836   3.007   1.012   5.354  1.4988  0.4264 -0.6570
  116CHL1   C2614837   3.210   1.036   5.411 -0.3358 -0.0096  0.1609
  116CHL1  H26A14838   3.264   0.982   5.330  0.9328  0.7955  0.4421
  116CHL1  H26B14839   3.231   1.144   5.395  2.3945 -0.3816  0.7513
  116CHL1  H26C14840   3.271   1.004   5.497 -2.5615 -0.3144  1.7127
  116CHL1   C2714841   3.075   0.837   5.456 -0.6160  0.0251  0.4233
  116CHL1  H27A14842   2.970   0.803   5.444 -0.5687  0.3896 -1.2892
  116CHL1  H27B14843   3.134   0.783   5.378 -1.6435 -0.4166 -0.0714
  116CHL1  H27C14844   3.116   0.807   5.555  1.3743  0.1846 -0.2954
  117CHL1    C314845   6.234   0.800   6.682 -0.1148  0.2278 -0.2034
  117CHL1    H314846   6.329   0.793   6.626 -0.1344 -0.3751 -0.1684
  117CHL1    O314847   6.248   0.805   6.824 -0.2546 -0.2608 -0.2664
  117CHL1   H3'14848   6.171   0.856   6.849 -2.1497  0.0710 -5.6021
  117CHL1    C414849   6.158   0.928   6.643 -0.0367 -0.7954  0.1497
  117CHL1   H4A14850   6.059   0.928   6.694  0.3105 -0.0096  0.8590
  117CHL1   H4B14851   6.217   1.012   6.686 -1.4864 -0.1094  0.8744
  117CHL1    C514852   6.134   0.940   6.493  0.2166  0.5864  0.0984
  117CHL1    C614853   6.173   1.044   6.426 -0.2601 -0.2824 -0.1017
  117CHL1    H614854   6.227   1.125   6.478  0.1883  1.6110 -3.2805
  117CHL1    C714855   6.151   1.074   6.276 -0.2806  0.3369 -0.4868
  117CHL1   H7A14856   6.097   1.171   6.278  1.0083  1.0908  1.3058
  117CHL1   H7B14857   6.240   1.080   6.210  0.8370 -1.4427  0.7766
  117CHL1    C814858   6.056   0.971   6.210 -0.6807 -1.1109  0.1268
  117CHL1    H814859   5.950   0.995   6.231 -0.9758 -0.6321 -1.7330
  117CHL1   C1414860   6.077   0.973   6.059 -0.0409 -0.0556 -0.1790
  117CHL1   H1414861   6.172   0.923   6.032  0.2393 -0.1778  0.9653
  117CHL1   C1514862   6.059   1.107   5.985 -0.0956 -0.4272 -0.6928
  117CHL1  H15A14863   5.968   1.157   6.024  0.3839 -1.3941  1.8714
  117CHL1  H15B14864   6.136   1.187   5.995 -1.4646  0.6929  1.8960
  117CHL1   C1614865   6.039   1.062   5.835  0.3451  0.1187 -0.4969
  117CHL1  H16A14866   5.956   1.116   5.784  1.8356  1.2803 -1.8002
  117CHL1  H16B14867   6.136   1.082   5.784  1.6299  1.8812  2.3592
  117CHL1   C1714868   6.002   0.913   5.839  0.2304 -0.5372 -0.4885
  117CHL1   H1714869   6.093   0.854   5.815  0.9063  0.7905 -1.2993
  117CHL1   C1314870   5.977   0.878   5.992  0.6740  0.6610 -0.2174
  117CHL1   C1814871   5.834   0.897   6.018  1.0476 -0.3631  0.8148
  117CHL1  H18A14872   5.803   0.992   5.970  2.9717  0.8440  1.8661
  117CHL1  H18B14873   5.769   0.813   5.986  1.1930 -0.7895  1.5933
  117CHL1  H18C14874   5.804   0.911   6.124 -0.2375  0.3624  0.3843
  117CHL1   C1214875   6.015   0.736   6.037 -0.0058 -0.0796  0.8502
  117CHL1  H12A14876   5.945   0.669   5.982 -0.9833  1.9208 -0.4674
  117CHL1  H12B14877   6.118   0.703   6.013 -0.7602 -1.0661 -1.3136
  117CHL1   C1114878   6.006   0.717   6.187  0.2920  0.6498  0.4265
  117CHL1  H11A14879   5.900   0.727   6.218 -0.7310  0.7342 -2.7231
  117CHL1  H11B14880   6.061   0.624   6.214 -2.2491 -0.5717  1.7763
  117CHL1    C914881   6.082   0.835   6.265 -0.6720  0.5415 -0.0827
  117CHL1    H914882   6.188   0.822   6.234 -0.5348  0.4150  0.4289
  117CHL1   C1014883   6.062   0.821   6.421  0.5029  0.0080 -0.1918
  117CHL1   C1914884   5.905   0.832   6.454  0.1731 -0.2632  0.6707
  117CHL1  H19A14885   5.876   0.726   6.438 -0.4149 -0.3151  1.9806
  117CHL1  H19B14886   5.887   0.851   6.562 -0.0937 -2.0916  0.9735
  117CHL1  H19C14887   5.852   0.903   6.387 -0.2224  1.3759  2.6189
  117CHL1    C114888   6.124   0.687   6.479 -0.3752 -0.0190  0.1092
  117CHL1   H1A14889   6.070   0.603   6.432  2.3255 -0.9415 -1.5000
  117CHL1   H1B14890   6.224   0.667   6.436 -1.2383 -2.5909 -0.8577
  117CHL1    C214891   6.142   0.681   6.638  0.3878  0.2334 -0.0297
  117CHL1   H2A14892   6.181   0.580   6.660 -0.3207 -0.5238 -2.0235
  117CHL1   H2B14893   6.041   0.696   6.683 -0.9367 -1.7704 -2.1125
  117CHL1   C2014894   5.895   0.885   5.731 -0.1797  0.2605 -0.3985
  117CHL1   H2014895   5.796   0.931   5.755 -1.9283 -2.3336 -2.1188
  117CHL1   C2114896   5.857   0.732   5.721 -0.4572  0.0809 -0.4919
  117CHL1  H21A14897   5.944   0.663   5.712 -0.6948 -0.0835 -1.7826
  117CHL1  H21B14898   5.778   0.706   5.648 -0.4694 -0.6267 -0.2369
  117CHL1  H21C14899   5.806   0.711   5.817  1.8270 -0.3591  0.6868
  117CHL1   C2214900   5.940   0.932   5.591  0.6326  0.2242  0.2933
  117CHL1  H22A14901   5.961   1.041   5.590 -0.7900  0.5386  1.3629
  117CHL1  H22B14902   6.040   0.896   5.558  0.6414  1.2286 -0.8377
  117CHL1   C2314903   5.844   0.910   5.474 -0.4187 -0.3585  0.5414
  117CHL1  H23A14904   5.899   0.941   5.382  0.0570 -1.5083  0.4232
  117CHL1  H23B14905   5.826   0.803   5.450 -0.7630  0.1047 -1.4790
  117CHL1   C2414906   5.711   0.978   5.489  0.4072 -0.6754  0.3889
  117CHL1  H24A14907   5.650   0.971   5.582  1.6689 -0.3367  1.2626
  117CHL1  H24B14908   5.725   1.087   5.502 -1.2058 -0.3687 -0.2268
  117CHL1   C2514909   5.614   0.955   5.370 -0.1878  0.6427  0.1211
  117CHL1   H2514910   5.626   0.850   5.336  0.1284  0.8415 -0.4071
  117CHL1   C2614911   5.464   0.981   5.407  0.4678 -0.3320 -0.0447
  117CHL1  H26A14912   5.452   1.085   5.445  1.7135  0.3726 -1.4773
  117CHL1  H26B14913   5.404   0.982   5.314  1.6073 -2.2135 -0.8461
  117CHL1  H26C14914   5.425   0.908   5.481  2.0972 -0.5704  0.6236
  117CHL1   C2714915   5.656   1.042   5.249 -0.4821  0.8557  0.1234
  117CHL1  H27A14916   5.572   1.015   5.183  0.1039  0.0247 -0.2974
  117CHL1  H27B14917   5.647   1.152   5.265  0.3355  0.9460 -0.0135
  117CHL1  H27C14918   5.756   1.023   5.205 -0.1088  1.1180  0.8313
  118CHL1    C314919   7.387   1.655   6.772  0.0179  0.2944 -0.5212
  118CHL1    H314920   7.498   1.649   6.773  0.0260 -0.5179 -2.0396
  118CHL1    O314921   7.347   1.655   6.911  0.3724 -0.0275  0.0091
  118CHL1   H3'14922   7.265   1.605   6.907 -0.4062  1.1058  1.2639
  118CHL1    C414923   7.336   1.781   6.703  0.2830 -0.6045  0.4873
  118CHL1   H4A14924   7.225   1.789   6.701  0.2650 -0.7050 -1.3999
  118CHL1   H4B14925   7.363   1.871   6.762 -2.2548 -0.2694  1.2355
  118CHL1    C514926   7.387   1.784   6.558  0.6254 -0.0533  0.6131
  118CHL1    C614927   7.465   1.881   6.502  0.1465 -0.5252 -0.0568
  118CHL1    H614928   7.502   1.967   6.560 -1.0874  0.5543 -0.8134
  118CHL1    C714929   7.510   1.886   6.360  0.1353 -0.5267  0.1177
  118CHL1   H7A14930   7.516   1.985   6.310 -0.1766 -1.2425 -1.4264
  118CHL1   H7B14931   7.610   1.838   6.354 -0.3096 -1.3355 -1.8330
  118CHL1    C814932   7.415   1.800   6.264  0.5747  0.3946 -0.1219
  118CHL1    H814933   7.317   1.849   6.247 -0.0132 -0.2218  1.3420
  118CHL1   C1414934   7.480   1.782   6.128 -0.3490  0.6338 -0.1809
  118CHL1   H1414935   7.573   1.724   6.145 -1.2549 -1.4243 -1.7076
  118CHL1   C1514936   7.521   1.906   6.050  0.4795  0.0433 -0.5814
  118CHL1  H15A14937   7.438   1.979   6.061  0.2809 -0.4526  1.6172
  118CHL1  H15B14938   7.601   1.963   6.102  0.8400 -0.1655 -0.9035
  118CHL1   C1614939   7.545   1.855   5.907  0.7387 -0.5477 -0.0523
  118CHL1  H16A14940   7.486   1.918   5.837  1.9183  1.4822  0.6777
  118CHL1  H16B14941   7.652   1.869   5.881  0.0894  1.4942 -1.9245
  118CHL1   C1714942   7.489   1.708   5.907 -0.2730 -0.1212  0.5129
  118CHL1   H1714943   7.578   1.645   5.924 -0.0165  0.1847  0.3229
  118CHL1   C1314944   7.404   1.696   6.030  1.0104  0.4920  0.1941
  118CHL1   C1814945   7.263   1.749   6.001 -0.1258 -0.4288  0.3466
  118CHL1  H18A14946   7.202   1.760   6.092 -1.7585 -0.4856 -0.7019
  118CHL1  H18B14947   7.277   1.840   5.938 -0.8334 -1.4325 -1.3255
  118CHL1  H18C14948   7.203   1.690   5.928 -0.9915  1.5000 -0.5719
  118CHL1   C1214949   7.390   1.555   6.090  0.5054 -0.5055 -0.1224
  118CHL1  H12A14950   7.335   1.482   6.027  1.1802 -0.8575 -0.3141
  118CHL1  H12B14951   7.495   1.520   6.101  0.9366  0.5844 -0.6023
  118CHL1   C1114952   7.315   1.562   6.228  0.0852  0.5292 -0.5564
  118CHL1  H11A14953   7.210   1.596   6.213  0.4287  1.4651 -0.8653
  118CHL1  H11B14954   7.321   1.457   6.264  0.1944  0.0860 -1.8225
  118CHL1    C914955   7.387   1.659   6.327  0.0450 -0.3545 -0.2476
  118CHL1    H914956   7.488   1.615   6.338 -0.5279 -2.4685 -2.5728
  118CHL1   C1014957   7.328   1.668   6.473 -0.0118 -0.0763  0.4719
  118CHL1   C1914958   7.176   1.692   6.452  0.7730 -0.5499  0.5275
  118CHL1  H19A14959   7.119   1.605   6.414 -0.7168  0.6884 -0.1725
  118CHL1  H19B14960   7.117   1.713   6.544 -0.7450 -1.5069 -0.1801
  118CHL1  H19C14961   7.164   1.784   6.391  0.2714  0.9097  2.7341
  118CHL1    C114962   7.351   1.534   6.545 -0.0210 -0.2281  0.0265
  118CHL1   H1A14963   7.288   1.453   6.502 -0.1680  0.2367 -0.6383
  118CHL1   H1B14964   7.458   1.512   6.527  0.5847  0.2550  2.6262
  118CHL1    C214965   7.323   1.538   6.694 -0.1686  0.1365  0.0088
  118CHL1   H2A14966   7.369   1.453   6.747  1.3842  1.9545  1.7292
  118CHL1   H2B14967   7.213   1.534   6.713 -0.0149  1.2524  1.2616
  118CHL1   C2014968   7.428   1.683   5.762 -0.3345  0.4780  0.9710
  118CHL1   H2014969   7.342   1.752   5.756 -0.0380  1.1271  3.2165
  118CHL1   C2114970   7.380   1.538   5.750 -0.1951  0.0230 -0.6474
  118CHL1  H21A14971   7.302   1.514   5.826 -0.8918  0.1373 -1.3109
  118CHL1  H21B14972   7.463   1.465   5.764 -0.7079 -0.3490  0.5926
  118CHL1  H21C14973   7.328   1.520   5.653 -3.3808  0.2814  0.8874
  118CHL1   C2214974   7.527   1.726   5.647  0.2601  0.3867  0.1711
  118CHL1  H22A14975   7.572   1.828   5.652 -0.0566  0.5004  0.9254
  118CHL1  H22B14976   7.613   1.656   5.644  0.7728  0.9973  0.2964
  118CHL1   C2314977   7.457   1.712   5.512  0.2689  0.3947 -1.1149
  118CHL1  H23A14978   7.528   1.745   5.433 -0.1250 -1.5461 -2.3271
  118CHL1  H23B14979   7.444   1.603   5.501 -0.4432  0.5565 -1.9371
  118CHL1   C2414980   7.330   1.792   5.490 -0.0929  0.1202 -0.7122
  118CHL1  H24A14981   7.259   1.781   5.575  0.6971  3.7680  0.5893
  118CHL1  H24B14982   7.346   1.902   5.482 -0.6725  0.1716 -1.2804
  118CHL1   C2514983   7.239   1.744   5.367  0.3964 -0.0409 -0.2291
  118CHL1   H2514984   7.226   1.634   5.378  1.5027 -0.6037 -3.3812
  118CHL1   C2614985   7.106   1.819   5.371 -0.2336  0.1705  0.9597
  118CHL1  H26A14986   7.044   1.808   5.463 -1.3186  0.2234  0.2658
  118CHL1  H26B14987   7.136   1.926   5.378 -0.0285  0.4484 -2.4617
  118CHL1  H26C14988   7.050   1.799   5.276  0.2513 -0.5539  0.8188
  118CHL1   C2714989   7.301   1.758   5.228 -0.2237 -0.1259 -0.0780
  118CHL1  H27A14990   7.404   1.716   5.231 -0.2340 -0.3810 -2.0426
  118CHL1  H27B14991   7.240   1.700   5.156 -0.0776 -1.0867  0.5697
  118CHL1  H27C14992   7.320   1.866   5.206  1.9678 -0.6948 -1.2511
  119CHL1    C314993   1.847   7.557   6.799  0.2167 -0.2055  0.2364
  119CHL1    H314994   1.749   7.610   6.802 -0.6673 -1.5309 -2.2481
  119CHL1    O314995   1.899   7.543   6.929  0.5155 -0.1199  0.3175
  119CHL1   H3'14996   1.990   7.513   6.926  0.2377 -0.8956 -1.2004
  119CHL1    C414997   1.822   7.418   6.740 -0.2849  0.4451  0.0943
  119CHL1   H4A14998   1.920   7.364   6.738  0.1389  1.2342 -1.0229
  119CHL1   H4B14999   1.767   7.356   6.814 -0.0176  0.6719  0.4911
  119CHL1    C515000   1.759   7.412   6.609  0.2285  0.4554  0.4804
  119CHL1    C615001   1.638   7.358   6.582 -0.2827  0.2576 -0.4767
  119CHL1    H615002   1.582   7.310   6.663  2.1261 -0.5744  0.7842
  119CHL1    C715003   1.570   7.357   6.449  0.3295  0.4840  0.4791
  119CHL1   H7A15004   1.539   7.252   6.426 -0.8395  0.3202  2.5598
  119CHL1   H7B15005   1.478   7.419   6.451  1.1981  1.8242 -0.1207
  119CHL1    C815006   1.663   7.391   6.335 -0.1291 -0.4251 -0.2505
  119CHL1    H815007   1.731   7.304   6.323  1.4075  0.5975  0.6718
  119CHL1   C1415008   1.579   7.413   6.209  0.3588  0.2357 -0.1143
  119CHL1   H1415009   1.505   7.488   6.245  0.4403  0.6641 -0.8012
  119CHL1   C1515010   1.487   7.298   6.167  0.3064 -0.1172 -0.4442
  119CHL1  H15A15011   1.546   7.209   6.195 -2.1129 -2.4288 -2.2021
  119CHL1  H15B15012   1.392   7.287   6.222  0.5219  0.3587  0.0302
  119CHL1   C1615013   1.476   7.312   6.014  0.1533 -0.2287  0.7570
  119CHL1  H16A15014   1.525   7.219   5.976 -3.1599 -1.8006 -0.0552
  119CHL1  H16B15015   1.369   7.297   5.989  0.7827 -1.3007 -1.5946
  119CHL1   C1715016   1.543   7.447   5.982  0.4909 -0.0915  0.0736
  119CHL1   H1715017   1.469   7.527   6.003  0.6262 -0.1575  0.8291
  119CHL1   C1315018   1.657   7.455   6.088  0.5361 -0.2340 -0.6052
  119CHL1   C1815019   1.770   7.353   6.066 -0.2078  0.6190  0.1807
  119CHL1  H18A15020   1.833   7.399   5.987 -2.6614 -1.4892 -3.3331
  119CHL1  H18B15021   1.834   7.341   6.156  1.8235  1.2548 -1.1155
  119CHL1  H18C15022   1.746   7.252   6.024  0.9316 -0.2059  1.4251
  119CHL1   C1215023   1.720   7.594   6.123 -1.0997  0.2702 -0.1949
  119CHL1  H12A15024   1.786   7.621   6.037  0.6870 -2.1776  0.2882
  119CHL1  H12B15025   1.649   7.678   6.139 -2.3372 -0.8092  0.1093
  119CHL1   C1115026   1.818   7.586   6.245  0.0097  0.7223 -0.0926
  119CHL1  H11A15027   1.911   7.532   6.219 -0.1726  0.6573 -0.6327
  119CHL1  H11B15028   1.835   7.691   6.278 -0.6898  0.4698  1.1249
  119CHL1    C915029   1.751   7.515   6.373 -0.0191 -0.3215 -0.0420
  119CHL1    H915030   1.669   7.585   6.402  0.2121 -0.0700  0.0102
  119CHL1   C1015031   1.832   7.499   6.502 -1.0449 -0.1077  0.7546
  119CHL1   C1915032   1.948   7.402   6.452 -0.6436  0.0488 -0.0914
  119CHL1  H19A15033   1.908   7.307   6.410  2.2109 -0.7626 -1.2478
  119CHL1  H19B15034   2.014   7.448   6.376 -0.2216 -2.4930 -1.3876
  119CHL1  H19C15035   2.014   7.376   6.538 -1.8341  0.0164  0.8290
  119CHL1    C115036   1.881   7.638   6.558 -0.5504  0.0341  0.1092
  119CHL1   H1A15037   1.952   7.685   6.487  2.3516  0.0139  2.7763
  119CHL1   H1B15038   1.799   7.710   6.536 -1.4055 -1.2908 -1.1781
  119CHL1    C215039   1.933   7.642   6.704 -0.2357 -0.5420  0.0153
  119CHL1   H2A15040   1.947   7.743   6.748 -1.0377 -0.2990 -0.2782
  119CHL1   H2B15041   2.032   7.590   6.700 -0.8904 -1.8939  0.6996
  119CHL1   C2015042   1.587   7.473   5.833 -0.7937  0.6510  0.1443
  119CHL1   H2015043   1.671   7.545   5.842  0.6178 -1.0318  1.1630
  119CHL1   C2115044   1.482   7.552   5.757  0.1041  0.5882 -0.4842
  119CHL1  H21A15045   1.481   7.519   5.651 -2.4742 -1.9807  0.2251
  119CHL1  H21B15046   1.498   7.661   5.772  0.9329  0.5452 -1.0084
  119CHL1  H21C15047   1.386   7.522   5.804  0.7595  1.2911  1.3765
  119CHL1   C2215048   1.656   7.358   5.755  0.0245 -0.7779  0.2095
  119CHL1  H22A15049   1.697   7.276   5.818  1.1372 -2.9023 -3.0541
  119CHL1  H22B15050   1.575   7.317   5.691 -0.6829  1.3894 -0.3815
  119CHL1   C2315051   1.772   7.417   5.671  0.4433  0.0324  0.8649
  119CHL1  H23A15052   1.744   7.519   5.640  2.2922  0.1752 -0.4761
  119CHL1  H23B15053   1.857   7.437   5.739 -0.6046  1.0481  1.9248
  119CHL1   C2415054   1.807   7.327   5.557  0.2536  0.3997  0.0525
  119CHL1  H24A15055   1.853   7.236   5.602 -0.0953  0.9541  1.5933
  119CHL1  H24B15056   1.717   7.310   5.496  0.2053 -0.2962  0.3126
  119CHL1   C2515057   1.908   7.379   5.452 -0.1557  0.2452  0.1463
  119CHL1   H2515058   1.994   7.414   5.514  0.9940 -0.0830 -1.2022
  119CHL1   C2615059   1.962   7.257   5.367 -0.2300 -0.4907 -0.0447
  119CHL1  H26A15060   1.873   7.201   5.333  0.1525 -0.8061 -0.5356
  119CHL1  H26B15061   2.032   7.284   5.285 -1.3507 -1.2294 -1.2743
  119CHL1  H26C15062   2.026   7.196   5.435  0.0495  0.4280  0.5339
  119CHL1   C2715063   1.858   7.485   5.352 -0.2057 -0.1635  0.1699
  119CHL1  H27A15064   1.772   7.442   5.297  0.6104 -2.2792  0.4562
  119CHL1  H27B15065   1.812   7.576   5.396 -2.0915 -0.4192 -1.1201
  119CHL1  H27C15066   1.930   7.512   5.271  0.2525 -1.8618 -0.0215
  120CHL1    C315067   7.378   0.785   6.734 -0.3329  0.6405  0.5331
  120CHL1    H315068   7.412   0.891   6.724 -0.7896  0.8906  1.5490
  120CHL1    O315069   7.316   0.759   6.859 -0.1189  0.1256  0.5843
  120CHL1   H3'15070   7.249   0.694   6.836  0.3847 -0.8766  1.8165
  120CHL1    C415071   7.274   0.746   6.631  0.0438 -0.0162  0.5679
  120CHL1   H4A15072   7.216   0.654   6.654 -0.6562 -0.3505 -2.1635
  120CHL1   H4B15073   7.193   0.822   6.622 -0.1320 -0.3673 -1.2211
  120CHL1    C515074   7.335   0.729   6.490  0.7668 -0.4925 -0.5178
  120CHL1    C615075   7.286   0.798   6.387 -0.1336  0.1895  0.0907
  120CHL1    H615076   7.184   0.839   6.397 -1.1923 -1.8955 -1.3502
  120CHL1    C715077   7.341   0.785   6.247  0.6207  0.1607 -1.0257
  120CHL1   H7A15078   7.265   0.744   6.177 -1.6495 -0.0763  1.4042
  120CHL1   H7B15079   7.381   0.878   6.201  1.9959  0.7611  1.1768
  120CHL1    C815080   7.444   0.671   6.236  0.0531  0.0928 -0.0380
  120CHL1    H815081   7.389   0.574   6.237 -0.6839  0.5074 -0.0877
  120CHL1   C1415082   7.523   0.689   6.102 -0.7263  0.1790  0.0479
  120CHL1   H1415083   7.563   0.789   6.129 -2.2562  0.4587  1.4871
  120CHL1   C1515084   7.450   0.709   5.973  0.7183 -0.0256  0.3336
  120CHL1  H15A15085   7.371   0.632   5.969 -0.0554  0.7598  0.2233
  120CHL1  H15B15086   7.402   0.809   5.962 -0.5806 -0.8592 -2.3700
  120CHL1   C1615087   7.552   0.674   5.858 -0.6406 -0.4623  0.5844
  120CHL1  H16A15088   7.510   0.586   5.805 -2.1893  0.5179  0.1222
  120CHL1  H16B15089   7.564   0.747   5.776 -1.0681 -1.6589 -0.5805
  120CHL1   C1715090   7.682   0.652   5.944  0.4726  0.2011 -0.3350
  120CHL1   H1715091   7.727   0.751   5.966  1.3859  0.3677 -2.6957
  120CHL1   C1315092   7.636   0.594   6.077 -1.0041  0.1965 -0.3975
  120CHL1   C1815093   7.571   0.449   6.066  0.0091 -0.0428 -0.4802
  120CHL1  H18A15094   7.531   0.438   5.963  1.4827  1.7192 -1.2956
  120CHL1  H18B15095   7.660   0.383   6.079 -0.0161  0.2814  1.6126
  120CHL1  H18C15096   7.502   0.419   6.147 -1.9377  1.9569 -1.3117
  120CHL1   C1215097   7.735   0.590   6.190  0.0037  0.3287 -0.4773
  120CHL1  H12A15098   7.821   0.521   6.176  2.1709  2.5927  0.7594
  120CHL1  H12B15099   7.776   0.694   6.191 -0.2148  0.4294 -1.2351
  120CHL1   C1115100   7.662   0.565   6.327  0.0718  0.7459  0.2862
  120CHL1  H11A15101   7.626   0.459   6.327 -0.2246  0.8167  1.9180
  120CHL1  H11B15102   7.735   0.575   6.409 -0.1459 -0.8987  0.7198
  120CHL1    C915103   7.539   0.663   6.351  0.0276 -0.0858  0.1707
  120CHL1    H915104   7.585   0.764   6.355 -0.2184  0.0823 -0.8035
  120CHL1   C1015105   7.469   0.645   6.487 -0.2534  0.1047  0.1117
  120CHL1   C1915106   7.438   0.497   6.505  0.3521 -1.3544  0.0711
  120CHL1  H19A15107   7.404   0.452   6.409 -0.3886 -0.1951 -0.2262
  120CHL1  H19B15108   7.529   0.435   6.521  2.2178  0.9706 -0.9912
  120CHL1  H19C15109   7.361   0.478   6.583  1.1498  2.9414  2.1864
  120CHL1    C115110   7.565   0.688   6.597  0.3137 -0.7879 -0.5725
  120CHL1   H1A15111   7.657   0.626   6.607  1.4317  0.7153 -1.2294
  120CHL1   H1B15112   7.600   0.793   6.588  0.5739 -0.5342  2.3646
  120CHL1    C215113   7.494   0.692   6.732  0.1565 -0.4680 -0.6688
  120CHL1   H2A15114   7.566   0.721   6.811  0.0155  0.1462 -0.7631
  120CHL1   H2B15115   7.459   0.589   6.751  0.3454 -0.3942  0.0995
  120CHL1   C2015116   7.783   0.572   5.865 -0.0897  0.1568 -0.3692
  120CHL1   H2015117   7.756   0.464   5.867 -0.3963  0.2002 -1.5225
  120CHL1   C2115118   7.923   0.578   5.923 -0.3888  0.6629 -0.0646
  120CHL1  H21A15119   7.999   0.535   5.855  0.1066 -0.5393  1.1795
  120CHL1  H21B15120   7.931   0.522   6.019 -0.5300 -1.1657 -1.0606
  120CHL1  H21C15121   7.954   0.682   5.944  0.7809  0.0930  1.1991
  120CHL1   C2215122   7.794   0.606   5.711 -0.3377  0.0160  0.3546
  120CHL1  H22A15123   7.848   0.527   5.654 -4.1297 -0.1656 -3.5329
  120CHL1  H22B15124   7.695   0.605   5.661 -0.5930  0.9729  0.8268
  120CHL1   C2315125   7.860   0.740   5.675  0.4999 -0.5948  0.3736
  120CHL1  H23A15126   7.794   0.815   5.724  0.6939 -0.1041 -0.1043
  120CHL1  H23B15127   7.967   0.739   5.705  1.4068  1.6170 -2.3658
  120CHL1   C2415128   7.857   0.772   5.527 -0.4474  0.2026  0.0874
  120CHL1  H24A15129   7.937   0.709   5.483 -1.8441 -0.9104 -0.9458
  120CHL1  H24B15130   7.761   0.734   5.485 -0.5796 -0.8759  1.3376
  120CHL1   C2515131   7.877   0.915   5.486 -0.4412  0.4020  0.0803
  120CHL1   H2515132   7.813   0.992   5.534  0.5229  1.4268 -0.2079
  120CHL1   C2615133   8.018   0.960   5.527  0.0315 -0.4187  0.3985
  120CHL1  H26A15134   8.094   0.902   5.470  0.5909  0.6689  0.0282
  120CHL1  H26B15135   8.022   1.066   5.494 -1.3814 -0.8289 -1.2199
  120CHL1  H26C15136   8.040   0.959   5.636 -1.4506 -0.5041  0.7214
  120CHL1   C2715137   7.861   0.917   5.336  0.8085  0.8536  0.0760
  120CHL1  H27A15138   7.934   0.844   5.295  1.1521  0.6309  1.0459
  120CHL1  H27B15139   7.757   0.884   5.317  0.3951  0.8182  2.1395
  120CHL1  H27C15140   7.882   1.016   5.290 -1.2635 -0.3220 -3.7943
  121CHL1    C315141   3.415   1.972   3.168  0.4137 -0.6799 -0.3550
  121CHL1    H315142   3.438   2.081   3.159  0.3717 -0.6651 -0.2868
  121CHL1    O315143   3.386   1.927   3.039 -0.1515 -0.5540 -0.0038
  121CHL1   H3'15144   3.293   1.944   3.021 -0.2936  0.7725  1.7420
  121CHL1    C415145   3.538   1.894   3.214  0.2482 -0.1098 -0.2371
  121CHL1   H4A15146   3.507   1.789   3.199  1.0538 -0.2224 -1.2119
  121CHL1   H4B15147   3.627   1.905   3.149 -0.2674 -0.1927 -0.9748
  121CHL1    C515148   3.573   1.928   3.362  0.2275  1.0933 -0.6251
  121CHL1    C615149   3.694   1.982   3.395  0.0819  0.2531  0.9097
  121CHL1    H615150   3.766   1.996   3.313  2.1245 -0.8567  2.4336
  121CHL1    C715151   3.734   2.004   3.534 -0.1042 -0.7678 -0.2923
  121CHL1   H7A15152   3.832   1.953   3.545 -0.0635 -0.7718 -0.6610
  121CHL1   H7B15153   3.760   2.108   3.562  3.4814 -0.8355 -2.6740
  121CHL1    C815154   3.631   1.950   3.646 -0.2676 -0.4433 -0.1446
  121CHL1    H815155   3.643   1.840   3.654 -1.0462 -0.5396 -0.2309
  121CHL1   C1415156   3.659   2.028   3.777  0.3268 -0.2773 -0.0982
  121CHL1   H1415157   3.628   2.133   3.759  0.6232  0.2124  2.0152
  121CHL1   C1515158   3.804   2.036   3.828 -0.5565 -0.1738 -0.0210
  121CHL1  H15A15159   3.850   1.936   3.813  0.3891  0.1863  0.3889
  121CHL1  H15B15160   3.875   2.113   3.791 -1.3545  0.1858 -0.8499
  121CHL1   C1615161   3.793   2.059   3.978 -0.4056  0.1035 -0.2033
  121CHL1  H16A15162   3.831   1.970   4.031 -0.7204  0.6096  0.9128
  121CHL1  H16B15163   3.844   2.153   4.009  2.3889 -1.3308 -0.1296
  121CHL1   C1715164   3.640   2.071   4.005  0.4338  0.3362 -0.6599
  121CHL1   H1715165   3.628   2.180   3.986 -0.0630  0.2840 -0.6654
  121CHL1   C1315166   3.563   1.993   3.894  0.5904  0.3580  0.2720
  121CHL1   C1815167   3.577   1.839   3.926 -0.1993  0.0305  0.0615
  121CHL1  H18A15168   3.685   1.816   3.914  0.1805  2.3885 -1.6732
  121CHL1  H18B15169   3.552   1.800   4.028  1.6783  1.5212  1.1580
  121CHL1  H18C15170   3.531   1.780   3.844 -0.6105  1.4153 -0.7273
  121CHL1   C1215171   3.416   2.032   3.844  0.2174  0.4381 -0.2634
  121CHL1  H12A15172   3.343   1.994   3.918 -0.3394  1.1656 -0.4323
  121CHL1  H12B15173   3.406   2.143   3.838 -1.2075  0.4299  1.2741
  121CHL1   C1115174   3.380   1.954   3.713 -0.2454 -0.3087 -0.4371
  121CHL1  H11A15175   3.376   1.847   3.739 -0.6300 -0.2300 -0.1592
  121CHL1  H11B15176   3.278   1.982   3.677 -1.0659 -2.1484  0.3385
  121CHL1    C915177   3.490   1.980   3.599 -0.6001 -0.1977  0.0031
  121CHL1    H915178   3.480   2.089   3.581 -1.8682 -0.5681 -1.8193
  121CHL1   C1015179   3.456   1.913   3.464  0.7004 -0.1289  0.1635
  121CHL1   C1915180   3.426   1.765   3.469 -0.1228 -0.3126  0.0081
  121CHL1  H19A15181   3.513   1.725   3.525  2.2423  1.0295 -2.4540
  121CHL1  H19B15182   3.336   1.736   3.526  0.6391  0.3103  1.6077
  121CHL1  H19C15183   3.429   1.721   3.367  0.9004  1.1830 -0.6531
  121CHL1    C115184   3.335   1.985   3.408  0.4008 -0.2683 -0.1291
  121CHL1   H1A15185   3.251   1.978   3.480  0.3176  0.6120 -0.1231
  121CHL1   H1B15186   3.341   2.096   3.415  2.1821 -0.2373 -1.5467
  121CHL1    C215187   3.295   1.956   3.257  0.1717  0.2105 -0.6391
  121CHL1   H2A15188   3.198   2.002   3.228 -1.2984 -0.4947  2.7072
  121CHL1   H2B15189   3.282   1.845   3.256 -1.0971  0.3276  0.2145
  121CHL1   C2015190   3.601   2.047   4.153  0.0732 -0.3441  0.3911
  121CHL1   H2015191   3.605   1.938   4.170 -1.3823 -1.3982 -4.4764
  121CHL1   C2115192   3.454   2.097   4.168  0.0517 -0.1899 -0.0734
  121CHL1  H21A15193   3.430   2.099   4.276 -1.9324 -1.5162 -0.4406
  121CHL1  H21B15194   3.388   2.025   4.115 -1.0812 -0.3367  1.4726
  121CHL1  H21C15195   3.452   2.196   4.119  2.1047 -0.0210  0.0921
  121CHL1   C2215196   3.689   2.118   4.265 -0.1302  0.1399  0.7754
  121CHL1  H22A15197   3.794   2.092   4.239 -0.8360 -1.6773 -0.4420
  121CHL1  H22B15198   3.669   2.227   4.250 -1.4830 -0.4480 -2.5163
  121CHL1   C2315199   3.652   2.081   4.410  0.6191 -0.1736 -0.3949
  121CHL1  H23A15200   3.543   2.090   4.431  0.1995 -0.3060 -2.3403
  121CHL1  H23B15201   3.671   1.972   4.421 -0.9936 -0.2813  2.1221
  121CHL1   C2415202   3.744   2.143   4.513  0.6166  0.2521 -0.6319
  121CHL1  H24A15203   3.852   2.126   4.492  0.8203  1.6667 -0.8339
  121CHL1  H24B15204   3.742   2.254   4.515  1.5767  0.2687  1.4376
  121CHL1   C2515205   3.706   2.091   4.659 -0.2593  0.7388  0.5505
  121CHL1   H2515206   3.599   2.112   4.679 -0.2629  0.7041  0.5674
  121CHL1   C2615207   3.730   1.940   4.684  0.1087  0.5884 -0.1900
  121CHL1  H26A15208   3.658   1.874   4.632  1.1256  0.0138 -0.9160
  121CHL1  H26B15209   3.834   1.916   4.652 -0.5079 -2.2374 -0.2941
  121CHL1  H26C15210   3.730   1.910   4.791 -1.8141 -2.5915 -0.9620
  121CHL1   C2715211   3.782   2.175   4.761 -0.3235  0.3902 -0.1610
  121CHL1  H27A15212   3.751   2.281   4.749 -0.2147  0.6386  1.5383
  121CHL1  H27B15213   3.750   2.151   4.865 -0.3974  3.3918  0.6001
  121CHL1  H27C15214   3.891   2.161   4.743 -0.7996 -0.4755 -2.8539
  122CHL1    C315215   2.129   3.765   3.275 -0.0259 -0.1100  0.1640
  122CHL1    H315216   2.203   3.848   3.273  0.0312 -0.1683 -1.0109
  122CHL1    O315217   2.067   3.745   3.154 -0.3240 -0.3724 -0.5741
  122CHL1   H3'15218   1.973   3.759   3.169 -0.0790  1.7160 -0.7142
  122CHL1    C415219   2.194   3.634   3.322 -0.3499 -0.7626 -0.8353
  122CHL1   H4A15220   2.130   3.542   3.325 -2.3616  0.5629 -1.0949
  122CHL1   H4B15221   2.266   3.614   3.240  2.9811  0.5785  1.5747
  122CHL1    C515222   2.261   3.641   3.456 -0.4970  0.6837 -1.4656
  122CHL1    C615223   2.393   3.632   3.484 -0.0343 -0.2539 -0.1707
  122CHL1    H615224   2.467   3.614   3.406 -0.0250 -0.2889 -0.1537
  122CHL1    C715225   2.455   3.635   3.617 -0.0076 -0.2845  0.4531
  122CHL1   H7A15226   2.513   3.540   3.627  2.6580  1.4275  2.7434
  122CHL1   H7B15227   2.526   3.720   3.617  0.7834 -0.7946 -3.0668
  122CHL1    C815228   2.353   3.650   3.734 -0.4745  0.3412 -0.2515
  122CHL1    H815229   2.316   3.549   3.760 -1.0926  0.8987  1.1338
  122CHL1   C1415230   2.419   3.713   3.850  0.1846  0.1408  0.4388
  122CHL1   H1415231   2.443   3.819   3.827  1.0795 -0.0982  0.2658
  122CHL1   C1515232   2.550   3.655   3.898  0.2436 -0.1717 -0.1100
  122CHL1  H15A15233   2.554   3.545   3.893 -1.4320 -0.3875  2.0659
  122CHL1  H15B15234   2.634   3.687   3.831  0.9542 -1.5174  0.1157
  122CHL1   C1615235   2.569   3.723   4.036  0.0273  1.2868  0.0093
  122CHL1  H16A15236   2.609   3.641   4.100  0.2925  1.2134 -0.2471
  122CHL1  H16B15237   2.645   3.803   4.028  0.5284  0.7242 -1.1657
  122CHL1   C1715238   2.435   3.785   4.083  0.9696 -0.2081 -0.0442
  122CHL1   H1715239   2.437   3.891   4.048 -1.4804  0.1284  0.6610
  122CHL1   C1315240   2.330   3.726   3.975  0.3287 -0.1372  1.2807
  122CHL1   C1815241   2.309   3.584   4.027  0.0898 -0.0717  0.3294
  122CHL1  H18A15242   2.257   3.529   3.945 -0.2087  2.3923 -1.2258
  122CHL1  H18B15243   2.405   3.533   4.052  0.6730  0.3284 -0.9837
  122CHL1  H18C15244   2.244   3.600   4.115 -1.2867  1.4638 -0.9007
  122CHL1   C1215245   2.203   3.801   3.939  0.3790 -0.9550 -0.6744
  122CHL1  H12A15246   2.129   3.780   4.019  1.3264 -2.2169 -0.0864
  122CHL1  H12B15247   2.228   3.909   3.939  1.6085 -1.2026  1.0074
  122CHL1   C1115248   2.128   3.762   3.807 -0.0717 -0.4458 -0.2315
  122CHL1  H11A15249   2.062   3.679   3.839 -0.2412 -0.4415 -0.5634
  122CHL1  H11B15250   2.060   3.846   3.780  0.7623  0.3411  0.0535
  122CHL1    C915251   2.227   3.722   3.694 -0.0366  0.1198  0.0232
  122CHL1    H915252   2.274   3.818   3.663  0.0477  0.6591  1.7314
  122CHL1   C1015253   2.156   3.680   3.562  0.3806 -0.4083  0.6449
  122CHL1   C1915254   2.070   3.558   3.589  0.1300  0.6483  0.0306
  122CHL1  H19A15255   2.023   3.524   3.494 -0.6431 -1.0166  0.9820
  122CHL1  H19B15256   2.132   3.486   3.647 -0.3668  1.0503  1.0881
  122CHL1  H19C15257   1.990   3.580   3.663  0.6154  0.0536  0.7463
  122CHL1    C115258   2.074   3.806   3.512  0.2751  0.5739 -0.4527
  122CHL1   H1A15259   1.993   3.831   3.583  0.1072 -1.1048 -0.0116
  122CHL1   H1B15260   2.136   3.897   3.527 -1.1715  1.3634  1.0740
  122CHL1    C215261   2.019   3.794   3.374  0.0924 -0.0240  0.4676
  122CHL1   H2A15262   1.967   3.887   3.340  1.1894  0.2369 -0.5538
  122CHL1   H2B15263   1.948   3.708   3.373 -0.7004  0.6148 -0.7946
  122CHL1   C2015264   2.422   3.775   4.235  0.4027 -0.2424  0.7672
  122CHL1   H2015265   2.411   3.669   4.267 -0.6760 -0.4647 -0.2775
  122CHL1   C2115266   2.299   3.859   4.274 -0.2709 -0.0973 -0.6156
  122CHL1  H21A15267   2.304   3.865   4.385  0.0094  1.8683 -0.6957
  122CHL1  H21B15268   2.207   3.813   4.233 -0.6067  0.4012 -0.4402
  122CHL1  H21C15269   2.304   3.961   4.228 -2.2724 -0.0373 -0.7796
  122CHL1   C2215270   2.552   3.822   4.304 -0.4099  0.3971 -0.9378
  122CHL1  H22A15271   2.649   3.776   4.272  0.0679  0.9858 -0.3573
  122CHL1  H22B15272   2.552   3.929   4.276  0.3545  1.4947  2.7891
  122CHL1   C2315273   2.559   3.829   4.452 -0.4341 -0.5295 -0.8664
  122CHL1  H23A15274   2.470   3.887   4.485  1.4502  2.6405 -0.9894
  122CHL1  H23B15275   2.554   3.725   4.491  0.4227 -0.2648 -0.0148
  122CHL1   C2415276   2.689   3.896   4.495 -0.1068  0.7693 -0.4886
  122CHL1  H24A15277   2.774   3.848   4.442  0.7280  2.4390 -0.7198
  122CHL1  H24B15278   2.692   4.001   4.459  0.0761  0.8724 -0.1815
  122CHL1   C2515279   2.712   3.888   4.641  0.1629  0.5637 -0.7419
  122CHL1   H2515280   2.705   3.780   4.669  0.9197  1.2527  2.5952
  122CHL1   C2615281   2.845   3.945   4.689  0.4683  0.3278 -0.0891
  122CHL1  H26A15282   2.855   3.944   4.800  1.0898  0.1780 -0.1432
  122CHL1  H26B15283   2.927   3.894   4.633  0.2333  1.0188 -1.0938
  122CHL1  H26C15284   2.849   4.049   4.650  2.1759  0.4063  0.2134
  122CHL1   C2715285   2.597   3.941   4.727  1.1176 -0.3360 -0.1654
  122CHL1  H27A15286   2.606   3.913   4.834 -0.0851 -2.2857 -0.5308
  122CHL1  H27B15287   2.584   4.050   4.710 -1.8028 -0.8781 -2.0659
  122CHL1  H27C15288   2.498   3.897   4.702 -0.3387  2.0177  1.1175
  123CHL1    C315289   6.177   3.478   3.292  0.4430 -0.6938 -0.0304
  123CHL1    H315290   6.106   3.444   3.213  0.5188  3.0210 -1.9442
  123CHL1    O315291   6.309   3.487   3.238 -0.3882 -0.1851 -0.0857
  123CHL1   H3'15292   6.366   3.497   3.315  0.9678  0.2573 -1.1173
  123CHL1    C415293   6.118   3.617   3.335 -0.4921 -0.4453  0.1997
  123CHL1   H4A15294   6.191   3.669   3.401 -1.8620  0.2812  1.1802
  123CHL1   H4B15295   6.119   3.684   3.246  0.5122  2.3289  2.1519
  123CHL1    C515296   5.981   3.604   3.395  0.0790 -0.2756  0.3645
  123CHL1    C615297   5.878   3.677   3.338 -0.9567 -0.2707  0.4861
  123CHL1    H615298   5.892   3.738   3.248  1.9318  0.0952  1.0632
  123CHL1    C715299   5.740   3.678   3.398 -0.2498  0.5820  0.2522
  123CHL1   H7A15300   5.704   3.783   3.409 -0.7357  0.2145  2.7217
  123CHL1   H7B15301   5.676   3.612   3.335  0.9591 -0.7443  0.3858
  123CHL1    C815302   5.740   3.607   3.544 -0.8002  0.1320  0.3693
  123CHL1    H815303   5.783   3.681   3.616 -1.2660 -0.3436  1.1449
  123CHL1   C1415304   5.600   3.576   3.577  0.4162 -0.3724 -0.2488
  123CHL1   H1415305   5.556   3.497   3.512  1.5874 -0.8291 -0.5042
  123CHL1   C1515306   5.500   3.693   3.571  1.2068 -0.8373 -0.0510
  123CHL1  H15A15307   5.563   3.779   3.602  1.9412 -0.9150 -1.3094
  123CHL1  H15B15308   5.457   3.704   3.470 -1.2602 -1.7024  0.8163
  123CHL1   C1615309   5.388   3.655   3.673  0.7160 -0.7548 -0.0370
  123CHL1  H16A15310   5.391   3.730   3.755  1.3835 -0.6475 -0.1495
  123CHL1  H16B15311   5.290   3.667   3.623  0.5226 -0.2542  0.4567
  123CHL1   C1715312   5.420   3.511   3.725 -0.6020  0.6330  0.6083
  123CHL1   H1715313   5.380   3.442   3.648 -2.5876  2.1943  0.1539
  123CHL1   C1315314   5.575   3.512   3.713 -0.6252  0.2267 -0.0770
  123CHL1   C1815315   5.630   3.603   3.830  0.3435 -0.4600 -0.3323
  123CHL1  H18A15316   5.620   3.539   3.921  1.2882  0.1985  0.2545
  123CHL1  H18B15317   5.740   3.618   3.825  0.4678 -0.7633  0.9777
  123CHL1  H18C15318   5.584   3.703   3.842 -0.2647 -0.7109 -0.5569
  123CHL1   C1215319   5.651   3.376   3.709  0.9633 -0.3185  0.3956
  123CHL1  H12A15320   5.636   3.325   3.807  0.4334 -0.8239  0.0562
  123CHL1  H12B15321   5.606   3.311   3.631  0.3097 -0.3155  0.7642
  123CHL1   C1115322   5.805   3.390   3.679  0.2101  0.3038  0.7144
  123CHL1  H11A15323   5.853   3.449   3.760 -0.6480  0.9693  0.7462
  123CHL1  H11B15324   5.857   3.292   3.671  0.3459  0.5398 -2.0140
  123CHL1    C915325   5.820   3.482   3.551 -0.3809 -0.3439 -0.2008
  123CHL1    H915326   5.779   3.410   3.476  0.0066 -0.0572 -0.6985
  123CHL1   C1015327   5.974   3.504   3.508 -0.1582 -0.5111  0.3174
  123CHL1   C1915328   6.045   3.564   3.635 -0.2407  0.3486 -0.2091
  123CHL1  H19A15329   6.052   3.491   3.718 -0.9395  0.6198  0.0969
  123CHL1  H19B15330   6.151   3.585   3.611 -0.0030 -0.6418 -0.0642
  123CHL1  H19C15331   5.987   3.649   3.677 -1.6422 -0.3207 -0.7057
  123CHL1    C115332   6.042   3.366   3.473 -0.8867 -0.1759 -0.1131
  123CHL1   H1A15333   6.064   3.310   3.566 -0.6906 -0.2484 -0.2027
  123CHL1   H1B15334   5.979   3.299   3.410 -2.0815  0.3482  0.4845
  123CHL1    C215335   6.179   3.383   3.411 -0.2606 -0.3564  0.0878
  123CHL1   H2A15336   6.212   3.284   3.373 -2.6059 -0.4393 -2.0043
  123CHL1   H2B15337   6.253   3.426   3.481 -0.0774  1.4046 -1.1287
  123CHL1   C2015338   5.362   3.479   3.867 -0.0506  0.7074  0.2761
  123CHL1   H2015339   5.440   3.491   3.946  0.8044  0.1186 -0.4605
  123CHL1   C2115340   5.325   3.330   3.883 -0.1070 -0.3716 -0.5797
  123CHL1  H21A15341   5.253   3.287   3.810  0.4588 -0.9520 -0.8003
  123CHL1  H21B15342   5.296   3.312   3.989  2.6746  0.9910  0.5125
  123CHL1  H21C15343   5.417   3.269   3.870 -0.1498 -0.3176 -1.1574
  123CHL1   C2215344   5.236   3.560   3.915 -0.1959  0.0046  0.0940
  123CHL1  H22A15345   5.202   3.531   4.017 -0.2429 -1.1568 -0.2308
  123CHL1  H22B15346   5.272   3.665   3.921  1.2762 -0.5036  0.8581
  123CHL1   C2315347   5.114   3.545   3.834 -0.4282  0.3939 -0.6302
  123CHL1  H23A15348   5.137   3.584   3.733  0.6417 -1.2975 -1.0811
  123CHL1  H23B15349   5.077   3.440   3.837 -0.7028  0.5110  0.3885
  123CHL1   C2415350   4.999   3.623   3.891  0.8514  0.2669 -0.6007
  123CHL1  H24A15351   4.902   3.598   3.845 -0.9961  1.1102  2.4950
  123CHL1  H24B15352   4.990   3.586   3.996  0.8490 -0.9729 -1.0266
  123CHL1   C2515353   5.015   3.779   3.893  0.6465  0.2126  0.8089
  123CHL1   H2515354   5.106   3.811   3.947 -0.1636  0.9787  1.7633
  123CHL1   C2615355   5.022   3.838   3.748  0.3263 -0.2048  0.1549
  123CHL1  H26A15356   4.940   3.799   3.684 -0.1110  0.9865 -0.0373
  123CHL1  H26B15357   5.023   3.949   3.742 -2.3724 -0.1016  0.5928
  123CHL1  H26C15358   5.119   3.808   3.703  0.4361 -1.0344  0.9025
  123CHL1   C2715359   4.886   3.840   3.954  0.2837 -0.5597 -0.4609
  123CHL1  H27A15360   4.790   3.802   3.913  0.1149 -1.9469  1.1051
  123CHL1  H27B15361   4.883   3.826   4.064  0.4360 -1.2118 -0.5369
  123CHL1  H27C15362   4.879   3.949   3.938 -0.7751 -0.3961  0.9065
  124CHL1    C315363   1.820   4.300   3.326  0.1722  0.1018 -0.1901
  124CHL1    H315364   1.902   4.337   3.261 -0.0064 -1.8755 -1.6489
  124CHL1    O315365   1.719   4.269   3.237 -0.0349 -1.2794 -0.6498
  124CHL1   H3'15366   1.715   4.173   3.241  0.8763 -1.3044  0.0100
  124CHL1    C415367   1.874   4.172   3.391 -0.2464  0.3038 -0.6451
  124CHL1   H4A15368   1.788   4.121   3.439  0.8873 -0.7569  0.3222
  124CHL1   H4B15369   1.913   4.102   3.314 -0.8740  0.7249 -1.3724
  124CHL1    C515370   1.969   4.212   3.499 -0.5065  0.2713  0.1987
  124CHL1    C615371   2.099   4.174   3.487  0.0953 -0.3965 -0.0389
  124CHL1    H615372   2.126   4.110   3.401 -0.5634 -0.0986 -0.4783
  124CHL1    C715373   2.203   4.198   3.585  0.0080 -0.0713 -0.2551
  124CHL1   H7A15374   2.272   4.112   3.595 -0.2887 -0.3100 -0.2415
  124CHL1   H7B15375   2.265   4.286   3.558 -1.3921  0.4970 -1.8182
  124CHL1    C815376   2.140   4.233   3.726 -0.2547  0.0553  0.2402
  124CHL1    H815377   2.095   4.139   3.764 -3.8308  1.8645  0.8901
  124CHL1   C1415378   2.247   4.270   3.830  0.7234 -0.3006  0.0270
  124CHL1   H1415379   2.289   4.367   3.796 -0.7190  0.3233 -0.0482
  124CHL1   C1515380   2.369   4.176   3.843  0.4666 -0.5175  0.2114
  124CHL1  H15A15381   2.351   4.070   3.815 -0.0264 -0.8372  1.6644
  124CHL1  H15B15382   2.456   4.209   3.782  2.3200 -2.9781  1.3501
  124CHL1   C1615383   2.413   4.209   3.988 -0.3560  0.7010  0.4602
  124CHL1  H16A15384   2.399   4.117   4.050 -0.2987  0.4560  0.1111
  124CHL1  H16B15385   2.517   4.242   4.010 -0.9108  1.3648  2.3169
  124CHL1   C1715386   2.320   4.319   4.046 -0.2475  0.0801 -0.3314
  124CHL1   H1715387   2.367   4.413   4.011 -1.1838  0.3005 -1.0242
  124CHL1   C1315388   2.192   4.299   3.968 -0.2714 -0.2756 -0.4296
  124CHL1   C1815389   2.118   4.176   4.031  0.1207 -0.4810 -0.1153
  124CHL1  H18A15390   2.089   4.206   4.134  2.1304  1.1093  0.0628
  124CHL1  H18B15391   2.034   4.150   3.964  1.6958  0.1653 -2.4612
  124CHL1  H18C15392   2.175   4.081   4.029 -1.6999 -1.6014 -1.0742
  124CHL1   C1215393   2.102   4.423   3.942 -0.1036 -0.2934 -0.1934
  124CHL1  H12A15394   2.062   4.457   4.040  2.5933  1.8628  0.2711
  124CHL1  H12B15395   2.166   4.504   3.902  0.6215 -1.1874 -0.8852
  124CHL1   C1115396   1.977   4.383   3.852 -0.3800 -0.4648 -0.0261
  124CHL1  H11A15397   1.920   4.299   3.897 -3.8724  1.1966 -0.9923
  124CHL1  H11B15398   1.904   4.466   3.846 -1.1116 -0.9932  1.1536
  124CHL1    C915399   2.031   4.342   3.712 -0.1413  0.5316  0.3144
  124CHL1    H915400   2.082   4.430   3.669  0.8016 -0.3774 -0.5068
  124CHL1   C1015401   1.923   4.302   3.617  0.5154 -0.0166 -0.4921
  124CHL1   C1915402   1.806   4.230   3.690 -0.5108 -0.1213 -0.0510
  124CHL1  H19A15403   1.758   4.284   3.774  0.4349  0.5311  0.0950
  124CHL1  H19B15404   1.726   4.202   3.618  0.9204  0.3973 -1.9584
  124CHL1  H19C15405   1.850   4.133   3.724 -1.9153 -1.3288 -1.5172
  124CHL1    C115406   1.864   4.429   3.544  0.2976 -0.2412 -0.0402
  124CHL1   H1A15407   1.812   4.483   3.626  1.7574 -0.3373  1.0041
  124CHL1   H1B15408   1.944   4.498   3.510 -1.2576  1.1033 -1.0952
  124CHL1    C215409   1.764   4.407   3.428  0.1911 -0.2525  0.5415
  124CHL1   H2A15410   1.755   4.496   3.362 -0.0033 -2.0543 -2.0589
  124CHL1   H2B15411   1.665   4.381   3.471  0.2971 -1.8909 -0.1086
  124CHL1   C2015412   2.309   4.339   4.200 -0.8230 -0.3727 -0.7940
  124CHL1   H2015413   2.275   4.246   4.250 -2.4009  0.7254  0.2895
  124CHL1   C2115414   2.199   4.444   4.241 -0.4218 -0.2733 -0.4738
  124CHL1  H21A15415   2.191   4.528   4.169  0.9203 -0.3539 -0.7354
  124CHL1  H21B15416   2.229   4.467   4.346  0.4125 -2.2967 -0.2212
  124CHL1  H21C15417   2.099   4.396   4.248 -0.4113 -0.3972 -1.1130
  124CHL1   C2215418   2.453   4.380   4.249  0.2251  0.0978 -0.4240
  124CHL1  H22A15419   2.536   4.345   4.183  1.2172  2.8263 -0.7336
  124CHL1  H22B15420   2.467   4.490   4.246 -0.5418  0.1875 -2.4076
  124CHL1   C2315421   2.471   4.336   4.399 -0.5450  0.3623 -0.3587
  124CHL1  H23A15422   2.390   4.379   4.461 -0.4883 -0.5793  0.3808
  124CHL1  H23B15423   2.481   4.227   4.413 -0.0972  0.1141 -2.3397
  124CHL1   C2415424   2.609   4.386   4.448 -0.0097 -0.0027  0.3199
  124CHL1  H24A15425   2.686   4.345   4.378 -1.0653  1.0879 -1.5824
  124CHL1  H24B15426   2.600   4.496   4.437 -0.8707 -0.1227 -0.2551
  124CHL1   C2515427   2.643   4.357   4.596 -0.5642 -0.1092  0.5023
  124CHL1   H2515428   2.640   4.246   4.601  1.0776 -0.2851 -1.2536
  124CHL1   C2615429   2.788   4.397   4.635  0.3057  0.2369 -0.3973
  124CHL1  H26A15430   2.798   4.506   4.622  2.5587  0.0906 -0.2487
  124CHL1  H26B15431   2.801   4.363   4.740 -0.9922  0.8693 -0.0103
  124CHL1  H26C15432   2.872   4.344   4.586 -1.4283 -2.3188 -0.8586
  124CHL1   C2715433   2.543   4.427   4.696  0.2779  0.0652  0.2836
  124CHL1  H27A15434   2.434   4.405   4.691 -0.0330  1.6353 -0.3931
  124CHL1  H27B15435   2.579   4.403   4.798  0.8809  0.8152  0.2571
  124CHL1  H27C15436   2.560   4.535   4.681 -0.3186  0.2356  0.7648
  125CHL1    C315437   5.311   6.888   3.207  0.5778 -0.0392 -0.1884
  125CHL1    H315438   5.202   6.884   3.187  0.7523 -2.8478 -1.0306
  125CHL1    O315439   5.380   6.909   3.086  0.3584 -0.6353 -0.3824
  125CHL1   H3'15440   5.460   6.949   3.121 -1.0139  1.1775  0.9080
  125CHL1    C415441   5.346   7.002   3.303 -0.2744  0.3173 -0.4830
  125CHL1   H4A15442   5.455   7.024   3.306 -0.3108  0.5225  2.4342
  125CHL1   H4B15443   5.305   7.101   3.271  2.2179  1.6565  0.2184
  125CHL1    C515444   5.304   6.966   3.444  1.0525  0.4863  0.0619
  125CHL1    C615445   5.226   7.052   3.515 -0.2093  0.5133  0.1815
  125CHL1    H615446   5.192   7.148   3.472 -2.1816 -1.2399 -2.5180
  125CHL1    C715447   5.184   7.025   3.659 -0.1602 -0.1200 -0.0450
  125CHL1   H7A15448   5.202   7.117   3.719  0.0611  1.2720 -2.1591
  125CHL1   H7B15449   5.074   7.011   3.655 -0.5152  2.0100  0.6220
  125CHL1    C815450   5.248   6.909   3.732  0.6553  0.2074 -0.8655
  125CHL1    H815451   5.350   6.943   3.759  0.8545 -0.8559 -0.2075
  125CHL1   C1415452   5.169   6.869   3.858  0.2317 -0.5459  0.5916
  125CHL1   H1415453   5.072   6.838   3.814  0.4522  2.6783 -2.6699
  125CHL1   C1515454   5.160   6.970   3.972  0.3962  0.9314 -0.1609
  125CHL1  H15A15455   5.259   7.018   3.984  1.1011  0.4404 -3.1627
  125CHL1  H15B15456   5.078   7.043   3.952  1.5824  2.0980 -0.8617
  125CHL1   C1615457   5.139   6.889   4.101  0.2040 -0.3529 -0.6184
  125CHL1  H16A15458   5.211   6.926   4.177  0.4079 -0.0543 -0.9516
  125CHL1  H16B15459   5.042   6.900   4.154 -0.4559 -0.9338 -1.6678
  125CHL1   C1715460   5.150   6.741   4.055  0.3742  1.1270 -0.4319
  125CHL1   H1715461   5.049   6.721   4.014 -0.3520  0.6449  1.5337
  125CHL1   C1315462   5.236   6.745   3.927  0.6072 -0.3466  0.6566
  125CHL1   C1815463   5.385   6.763   3.961  0.2350 -0.4778  0.5640
  125CHL1  H18A15464   5.434   6.680   4.016  0.5117 -0.2424  0.6733
  125CHL1  H18B15465   5.445   6.787   3.870 -0.9773  0.2061 -0.0855
  125CHL1  H18C15466   5.396   6.859   4.014 -0.5721  0.0781 -0.2308
  125CHL1   C1215467   5.220   6.628   3.830  0.2445 -0.1283  0.2141
  125CHL1  H12A15468   5.231   6.530   3.883 -0.5606 -0.0767  0.4902
  125CHL1  H12B15469   5.116   6.625   3.793 -0.0948  1.5426  0.9391
  125CHL1   C1115470   5.291   6.656   3.700 -0.1571  0.0548 -0.3025
  125CHL1  H11A15471   5.400   6.635   3.690 -0.7713 -2.5823 -2.7813
  125CHL1  H11B15472   5.248   6.573   3.639  0.4531 -1.7933  1.6560
  125CHL1    C915473   5.253   6.795   3.635  0.3423 -0.2031 -0.7252
  125CHL1    H915474   5.155   6.768   3.591  1.5406 -2.1445 -2.4096
  125CHL1   C1015475   5.342   6.830   3.503 -0.0534 -0.2111 -0.3406
  125CHL1   C1915476   5.491   6.835   3.539  0.5311  0.5612 -0.2224
  125CHL1  H19A15477   5.554   6.864   3.452  1.5736  1.9706  0.9538
  125CHL1  H19B15478   5.506   6.912   3.617 -1.8568  0.3732  0.4875
  125CHL1  H19C15479   5.529   6.742   3.587  1.5573  1.3506  0.5373
  125CHL1    C115480   5.319   6.726   3.394  0.5274  0.5101 -0.1776
  125CHL1   H1A15481   5.374   6.639   3.436 -1.0995 -0.4001  0.1515
  125CHL1   H1B15482   5.210   6.702   3.389  0.1974  1.8824  0.0759
  125CHL1    C215483   5.368   6.764   3.256 -0.0133 -0.3314 -0.3434
  125CHL1   H2A15484   5.349   6.683   3.182  1.2503 -0.9608 -0.0146
  125CHL1   H2B15485   5.478   6.772   3.271  0.0824 -1.8018 -0.1032
  125CHL1   C2015486   5.180   6.633   4.155 -0.3041  0.1785 -0.7335
  125CHL1   H2015487   5.230   6.556   4.093  1.7431  0.4402  0.4902
  125CHL1   C2115488   5.047   6.576   4.207 -0.2990 -0.1370  0.2747
  125CHL1  H21A15489   4.976   6.555   4.125  0.0305 -2.8921  0.6097
  125CHL1  H21B15490   5.007   6.650   4.281  0.1443 -1.1292  1.5458
  125CHL1  H21C15491   5.068   6.478   4.255  0.7245  0.4434  1.0738
  125CHL1   C2215492   5.268   6.677   4.276 -0.2451  0.3114  0.2968
  125CHL1  H22A15493   5.370   6.714   4.254  1.0209 -1.1951  3.1069
  125CHL1  H22B15494   5.214   6.759   4.327 -1.7794 -1.0238  0.9049
  125CHL1   C2315495   5.295   6.569   4.387  0.7187 -0.0598  0.2523
  125CHL1  H23A15496   5.202   6.539   4.439  0.6130  0.9020  0.6379
  125CHL1  H23B15497   5.340   6.478   4.343  1.5699  0.0442  0.8812
  125CHL1   C2415498   5.394   6.611   4.500  0.1435 -0.3816  0.4324
  125CHL1  H24A15499   5.487   6.637   4.446  0.6351 -1.3923  0.7547
  125CHL1  H24B15500   5.370   6.705   4.554 -1.1739 -0.6841  0.4015
  125CHL1   C2515501   5.426   6.497   4.598 -0.4360 -0.0184  0.2659
  125CHL1   H2515502   5.489   6.548   4.674  2.2796 -0.2046 -1.6910
  125CHL1   C2615503   5.305   6.444   4.674  0.5826 -0.0415 -1.1411
  125CHL1  H26A15504   5.332   6.354   4.733 -1.5236 -0.5928 -0.9481
  125CHL1  H26B15505   5.264   6.524   4.739  0.7608  0.3142 -1.4656
  125CHL1  H26C15506   5.217   6.420   4.610 -1.0647  0.7613  0.7331
  125CHL1   C2715507   5.513   6.380   4.540  0.3060  0.9169  0.9955
  125CHL1  H27A15508   5.554   6.317   4.622  2.6401  0.3845 -0.5039
  125CHL1  H27B15509   5.444   6.319   4.478  2.3342  0.6164 -1.0905
  125CHL1  H27C15510   5.604   6.408   4.483  1.2921 -0.4016  1.8648
  126CHL1    C315511   2.140   4.579   3.136  0.4834 -0.1693 -0.4630
  126CHL1    H315512   2.085   4.487   3.165 -2.1655  1.5347  0.3514
  126CHL1    O315513   2.067   4.618   3.023  0.2806 -0.3480  0.2363
  126CHL1   H3'15514   1.982   4.638   3.063 -0.8178  1.6798 -2.7545
  126CHL1    C415515   2.135   4.691   3.243  0.6242 -0.4103 -0.2587
  126CHL1   H4A15516   2.161   4.792   3.204  1.4998 -1.1196 -1.5727
  126CHL1   H4B15517   2.027   4.698   3.269  0.1906  0.7188 -2.1735
  126CHL1    C515518   2.221   4.654   3.360 -0.0381 -0.4193  0.0638
  126CHL1    C615519   2.177   4.656   3.487 -0.3263  0.8938 -0.2178
  126CHL1    H615520   2.069   4.679   3.489 -0.1549  2.0781 -2.1186
  126CHL1    C715521   2.257   4.636   3.606  0.1256 -0.1974  0.4606
  126CHL1   H7A15522   2.233   4.709   3.686  2.4080  0.5875  0.4912
  126CHL1   H7B15523   2.244   4.532   3.645 -1.5881 -0.5067 -0.8168
  126CHL1    C815524   2.411   4.645   3.582  0.5406 -0.0954 -0.0774
  126CHL1    H815525   2.431   4.753   3.561 -0.2084  0.5553  2.2927
  126CHL1   C1415526   2.485   4.595   3.697  1.2496 -0.4391 -0.2689
  126CHL1   H1415527   2.450   4.490   3.706 -0.8065  0.3127  1.3702
  126CHL1   C1515528   2.456   4.653   3.843 -0.8009  0.1874  0.4830
  126CHL1  H15A15529   2.463   4.764   3.834 -2.0645  0.2157 -0.4646
  126CHL1  H15B15530   2.356   4.623   3.881 -1.3594  1.3843  0.0405
  126CHL1   C1615531   2.576   4.606   3.919 -0.0533  0.6325  0.5482
  126CHL1  H16A15532   2.621   4.691   3.976  0.3801  0.6484  0.1867
  126CHL1  H16B15533   2.551   4.527   3.993 -1.8694  1.3628  0.7691
  126CHL1   C1715534   2.687   4.557   3.817 -0.8259 -1.0522  1.2056
  126CHL1   H1715535   2.671   4.447   3.823 -2.2162 -0.9444  0.0648
  126CHL1   C1315536   2.638   4.602   3.675  1.3358  1.2440  0.2929
  126CHL1   C1815537   2.693   4.738   3.650 -0.2315  0.3873  0.8275
  126CHL1  H18A15538   2.680   4.794   3.745 -1.0570 -3.6383  3.3562
  126CHL1  H18B15539   2.800   4.735   3.620  0.3955 -1.7266  2.9231
  126CHL1  H18C15540   2.643   4.791   3.566 -0.7637  0.4288  1.1621
  126CHL1   C1215541   2.664   4.507   3.558  0.0532 -0.0497 -0.5437
  126CHL1  H12A15542   2.773   4.488   3.551  0.2402 -0.6215  2.3614
  126CHL1  H12B15543   2.617   4.409   3.582  1.6692 -0.4791  1.1193
  126CHL1   C1115544   2.602   4.555   3.429  1.0633 -0.4373  0.7466
  126CHL1  H11A15545   2.659   4.648   3.404  1.2266 -0.5018  0.8736
  126CHL1  H11B15546   2.625   4.488   3.343  0.7194  1.0798 -0.5793
  126CHL1    C915547   2.441   4.570   3.448 -0.4066  0.0528  0.4759
  126CHL1    H915548   2.407   4.467   3.471 -1.2958  0.3637  0.5716
  126CHL1   C1015549   2.365   4.619   3.323 -0.1739  0.3233  0.1302
  126CHL1   C1915550   2.431   4.753   3.270  0.5525 -0.5595 -0.0732
  126CHL1  H19A15551   2.421   4.843   3.334  2.8987  1.6738 -2.5787
  126CHL1  H19B15552   2.535   4.728   3.241  0.6471  0.9215 -1.1271
  126CHL1  H19C15553   2.388   4.801   3.179  0.2386 -0.5620  0.0731
  126CHL1    C115554   2.365   4.509   3.212  0.4689 -0.1276  0.1910
  126CHL1   H1A15555   2.470   4.493   3.180  0.1124 -1.1157 -0.5367
  126CHL1   H1B15556   2.321   4.415   3.254  0.0529 -0.6482 -1.3409
  126CHL1    C215557   2.283   4.553   3.090  0.1970  0.3625 -0.2363
  126CHL1   H2A15558   2.289   4.471   3.015  1.1623  1.0941 -0.9760
  126CHL1   H2B15559   2.329   4.644   3.047  2.3515 -0.4241  0.2540
  126CHL1   C2015560   2.826   4.591   3.873 -1.1656  0.6098  0.1279
  126CHL1   H2015561   2.833   4.702   3.876 -0.8753  0.5755  1.2364
  126CHL1   C2115562   2.946   4.550   3.781  0.4482 -0.1928  0.0161
  126CHL1  H21A15563   2.946   4.615   3.690  1.2561  0.5817  0.5494
  126CHL1  H21B15564   2.947   4.444   3.748  0.2565 -0.5269  1.0638
  126CHL1  H21C15565   3.043   4.578   3.828  0.1359  0.4190  0.3198
  126CHL1   C2215566   2.862   4.536   4.011  0.0994 -0.1359 -0.2410
  126CHL1  H22A15567   2.954   4.592   4.038 -1.4332  1.1482  2.8000
  126CHL1  H22B15568   2.793   4.557   4.095  1.8957  0.7392  1.0594
  126CHL1   C2315569   2.867   4.384   4.015 -0.0932  0.9730 -0.6799
  126CHL1  H23A15570   2.770   4.334   3.993  0.9164 -1.5101  0.1780
  126CHL1  H23B15571   2.937   4.343   3.939 -2.0028  0.1887 -2.1403
  126CHL1   C2415572   2.910   4.316   4.157  0.0581 -0.4626  0.4947
  126CHL1  H24A15573   3.010   4.363   4.170 -0.8329  1.6384  0.1075
  126CHL1  H24B15574   2.838   4.333   4.239 -0.5392 -0.7433  0.0405
  126CHL1   C2515575   2.923   4.156   4.153 -0.4370 -0.2121 -0.0866
  126CHL1   H2515576   2.998   4.135   4.074 -1.1122  0.1997 -0.8628
  126CHL1   C2615577   2.960   4.105   4.292  0.0214  0.1233 -0.1550
  126CHL1  H26A15578   2.881   4.113   4.369  0.7380 -2.8376  1.0046
  126CHL1  H26B15579   2.987   3.997   4.287  1.9831  0.5300  0.7827
  126CHL1  H26C15580   3.051   4.161   4.323  1.1190 -1.0184 -1.1729
  126CHL1   C2715581   2.801   4.070   4.107  0.5856 -0.5964  0.4428
  126CHL1  H27A15582   2.750   4.104   4.014 -2.7520 -0.9457  1.9803
  126CHL1  H27B15583   2.819   3.963   4.086  0.4902 -0.7741  1.2417
  126CHL1  H27C15584   2.712   4.073   4.174 -2.5811 -2.3597 -3.2463
  127CHL1    C315585   2.619   6.014   3.192  0.4727  0.1295 -0.8625
  127CHL1    H315586   2.577   5.928   3.248 -2.3235  2.0079  0.1438
  127CHL1    O315587   2.555   6.014   3.067 -0.0992  0.2845 -0.1874
  127CHL1   H3'15588   2.588   6.093   3.023 -2.7775  2.1771  0.9601
  127CHL1    C415589   2.569   6.128   3.280  0.1311 -0.4263 -0.1216
  127CHL1   H4A15590   2.599   6.222   3.228 -3.0300  0.8479  0.1144
  127CHL1   H4B15591   2.458   6.125   3.280  0.1122 -0.1754  0.8940
  127CHL1    C515592   2.633   6.134   3.418  0.1088 -0.5050 -0.1013
  127CHL1    C615593   2.563   6.122   3.532 -0.1652  0.1532 -1.0825
  127CHL1    H615594   2.453   6.126   3.531 -0.3538 -0.3493  2.6067
  127CHL1    C715595   2.618   6.145   3.667 -0.2739 -0.1512 -0.6334
  127CHL1   H7A15596   2.562   6.212   3.736  0.0979 -0.2173 -0.2569
  127CHL1   H7B15597   2.615   6.046   3.718  0.4102  0.5742  0.9132
  127CHL1    C815598   2.769   6.187   3.668  0.1244  0.3901 -0.0295
  127CHL1    H815599   2.770   6.295   3.643 -2.2560  0.3698 -0.4246
  127CHL1   C1415600   2.828   6.153   3.804  0.3567  0.2586  0.1702
  127CHL1   H1415601   2.838   6.043   3.791 -0.6061 -0.0713  1.9257
  127CHL1   C1515602   2.750   6.183   3.933  0.0128 -0.6379  0.0265
  127CHL1  H15A15603   2.693   6.277   3.916  0.5768 -0.2042  0.5232
  127CHL1  H15B15604   2.670   6.108   3.952 -1.4247  0.5537 -0.9901
  127CHL1   C1615605   2.859   6.203   4.038 -0.1075  0.5036 -0.1899
  127CHL1  H16A15606   2.862   6.309   4.072 -0.2939  0.4985 -0.1601
  127CHL1  H16B15607   2.846   6.137   4.127 -0.0789  0.3592 -0.2928
  127CHL1   C1715608   2.989   6.157   3.976 -0.2320  0.2193 -0.2182
  127CHL1   H1715609   2.990   6.045   3.976 -1.0967  0.1623  1.6280
  127CHL1   C1315610   2.972   6.198   3.825 -0.7827 -1.3716  0.6641
  127CHL1   C1815611   2.988   6.355   3.820 -0.6182 -0.0633  0.3336
  127CHL1  H18A15612   2.933   6.412   3.897 -0.9495 -2.2622  1.8380
  127CHL1  H18B15613   3.092   6.376   3.852  0.6380 -0.1925 -3.2043
  127CHL1  H18C15614   2.978   6.401   3.720 -2.8829  0.7958  0.9029
  127CHL1   C1215615   3.060   6.134   3.709 -0.2470 -0.8321  0.5415
  127CHL1  H12A15616   3.163   6.174   3.705 -0.5043 -0.2437 -1.1178
  127CHL1  H12B15617   3.063   6.023   3.720 -0.3519 -1.1716 -2.1070
  127CHL1   C1115618   3.000   6.152   3.563  0.0521  0.4318 -0.2085
  127CHL1  H11A15619   3.009   6.263   3.557 -0.6743  0.4904 -0.2652
  127CHL1  H11B15620   3.068   6.094   3.497  0.4591 -0.6863  1.1492
  127CHL1    C915621   2.853   6.114   3.555 -0.0132 -0.0799  0.2175
  127CHL1    H915622   2.849   6.008   3.587  2.4655 -0.0698  0.7623
  127CHL1   C1015623   2.788   6.134   3.416  0.8073 -0.0955  0.6842
  127CHL1   C1915624   2.847   6.273   3.360  0.2251 -0.5932 -0.3212
  127CHL1  H19A15625   2.957   6.278   3.351  0.4326  0.4384  2.0945
  127CHL1  H19B15626   2.811   6.295   3.257 -0.9585  1.9126  0.5524
  127CHL1  H19C15627   2.815   6.356   3.426  0.1134 -1.6659  1.0216
  127CHL1    C115628   2.837   6.020   3.326 -0.2900  0.0455  0.1439
  127CHL1   H1A15629   2.947   6.034   3.317 -0.1264 -1.7575 -1.2686
  127CHL1   H1B15630   2.827   5.929   3.389  0.2402  0.9137  1.5293
  127CHL1    C215631   2.772   6.006   3.186 -0.8979  0.3773 -0.6604
  127CHL1   H2A15632   2.813   5.914   3.140  1.7758  0.4787  1.2491
  127CHL1   H2B15633   2.806   6.094   3.128  0.0112 -1.2835 -2.8020
  127CHL1   C2015634   3.113   6.204   4.050  0.2095 -0.4783 -0.2230
  127CHL1   H2015635   3.115   6.315   4.046 -0.7182 -0.3508  1.5508
  127CHL1   C2115636   3.249   6.161   3.981 -0.0380 -0.5936 -0.3093
  127CHL1  H21A15637   3.250   6.055   3.950 -0.8073 -0.7300  0.1155
  127CHL1  H21B15638   3.331   6.180   4.054  0.1136 -1.3580 -0.2761
  127CHL1  H21C15639   3.267   6.225   3.892  0.6978  2.3944  1.7969
  127CHL1   C2215640   3.114   6.168   4.199  0.1035 -0.0591  0.3341
  127CHL1  H22A15641   3.213   6.205   4.234  0.4363 -0.1218 -0.5164
  127CHL1  H22B15642   3.043   6.237   4.250  1.0014  1.9059 -0.9398
  127CHL1   C2315643   3.100   6.014   4.232  0.1303  0.0619 -0.2472
  127CHL1  H23A15644   3.015   5.966   4.178  0.9152 -0.5433 -0.9603
  127CHL1  H23B15645   3.195   5.977   4.189 -0.1126  2.3553 -3.1382
  127CHL1   C2415646   3.090   5.996   4.387 -0.5325 -0.2329  0.2447
  127CHL1  H24A15647   3.167   6.064   4.430 -1.2154 -0.5932  2.1268
  127CHL1  H24B15648   2.994   6.026   4.434 -0.5471 -1.5498  1.1208
  127CHL1   C2515649   3.121   5.852   4.433  0.0362  0.1939  0.9662
  127CHL1   H2515650   3.082   5.852   4.537 -2.5732 -2.7190  0.1793
  127CHL1   C2615651   3.029   5.745   4.355  0.0685  0.4205  0.0233
  127CHL1  H26A15652   2.922   5.771   4.375 -0.0716 -1.1034  1.4613
  127CHL1  H26B15653   3.056   5.728   4.249  0.7331 -1.9346  0.5118
  127CHL1  H26C15654   3.050   5.658   4.421  2.5156  2.8795  2.8063
  127CHL1   C2715655   3.269   5.803   4.427 -0.0559 -0.8177 -0.5668
  127CHL1  H27A15656   3.325   5.850   4.510 -1.4811  0.6634 -0.3964
  127CHL1  H27B15657   3.271   5.692   4.441 -3.2013 -0.6828  2.2891
  127CHL1  H27C15658   3.311   5.828   4.328  2.2425  1.5436  0.8713
  128CHL1    C315659   1.843   1.975   3.198  1.0179 -0.0157 -0.6319
  128CHL1    H315660   1.742   1.958   3.240  1.9993  1.9007  2.9261
  128CHL1    O315661   1.832   2.019   3.069  0.5017 -0.0066 -0.4399
  128CHL1   H3'15662   1.781   2.100   3.076 -1.5712 -1.2124 -0.8525
  128CHL1    C415663   1.903   2.084   3.287  0.3649 -0.1795 -0.2388
  128CHL1   H4A15664   2.002   2.109   3.242 -0.1363  0.3479 -1.0645
  128CHL1   H4B15665   1.836   2.171   3.269 -0.0406 -0.8987 -2.4585
  128CHL1    C515666   1.913   2.036   3.433  0.5147  0.2026  0.8102
  128CHL1    C615667   1.845   2.099   3.532 -0.3126  0.0203  0.5455
  128CHL1    H615668   1.787   2.191   3.517 -0.7868 -0.1717  1.1655
  128CHL1    C715669   1.850   2.052   3.672 -0.2945  0.1386 -0.5785
  128CHL1   H7A15670   1.854   2.144   3.734  0.1949 -0.3087  0.0584
  128CHL1   H7B15671   1.757   2.001   3.702 -1.1770  1.5804 -0.7758
  128CHL1    C815672   1.982   1.971   3.696 -0.2284 -0.0183 -0.0492
  128CHL1    H815673   2.068   2.038   3.675 -0.1054 -0.8240 -2.4141
  128CHL1   C1415674   1.985   1.902   3.830  0.1499 -0.7621 -0.4301
  128CHL1   H1415675   1.898   1.834   3.819  1.0690 -2.4460  1.8523
  128CHL1   C1515676   1.954   1.994   3.950 -0.6179 -0.6038  0.1963
  128CHL1  H15A15677   2.018   2.084   3.959 -0.4633 -0.6694 -0.1938
  128CHL1  H15B15678   1.844   2.010   3.955 -0.6895 -1.1533  0.4533
  128CHL1   C1615679   1.988   1.902   4.069  0.3319  0.2758  0.8152
  128CHL1  H16A15680   2.037   1.959   4.151 -0.4840  0.3940  1.2300
  128CHL1  H16B15681   1.896   1.859   4.114  1.5626 -2.0160  1.3037
  128CHL1   C1715682   2.080   1.787   4.006 -0.0466 -0.3341  0.9275
  128CHL1   H1715683   2.021   1.693   4.005 -1.6508  0.6368  1.3970
  128CHL1   C1315684   2.111   1.822   3.862 -0.2473 -0.4167  0.1652
  128CHL1   C1815685   2.238   1.906   3.854 -0.2794 -0.1875 -0.3705
  128CHL1  H18A15686   2.225   1.995   3.919 -0.0979 -1.0007  0.8124
  128CHL1  H18B15687   2.324   1.845   3.890 -1.5278 -2.1957 -0.6088
  128CHL1  H18C15688   2.257   1.937   3.749 -1.2819 -0.1316 -0.5389
  128CHL1   C1215689   2.103   1.704   3.763 -0.2567 -0.0415  0.2731
  128CHL1  H12A15690   2.191   1.639   3.780 -1.0724 -1.3859 -0.4911
  128CHL1  H12B15691   2.012   1.641   3.778 -0.1983 -0.3534 -0.6136
  128CHL1   C1115692   2.106   1.750   3.618  0.0969 -0.4654  0.2336
  128CHL1  H11A15693   2.210   1.784   3.597  1.3838 -3.1285  1.6931
  128CHL1  H11B15694   2.093   1.661   3.553  0.8871  0.3335 -1.0547
  128CHL1    C915695   1.998   1.858   3.585  0.4639 -0.0702  0.5417
  128CHL1    H915696   1.907   1.798   3.607 -1.0160  2.4773  1.8898
  128CHL1   C1015697   1.996   1.915   3.443  0.0219 -0.2907  0.8357
  128CHL1   C1915698   2.150   1.935   3.405  0.0108 -0.0064 -0.1461
  128CHL1  H19A15699   2.195   1.837   3.380 -1.0551 -0.3919 -0.6383
  128CHL1  H19B15700   2.167   1.998   3.315 -1.5528  0.9888  0.2048
  128CHL1  H19C15701   2.214   1.974   3.487  0.1641 -1.1160  0.2737
  128CHL1    C115702   1.942   1.804   3.352 -0.4152 -0.6635  0.3146
  128CHL1   H1A15703   2.006   1.714   3.346  1.1129  0.4678 -1.9466
  128CHL1   H1B15704   1.838   1.784   3.386 -0.3434 -0.7077  0.5071
  128CHL1    C215705   1.934   1.853   3.208 -0.7609  0.4490  0.3124
  128CHL1   H2A15706   1.898   1.773   3.140  0.1057  0.3300 -0.0185
  128CHL1   H2B15707   2.029   1.879   3.156 -0.1207 -2.0568  0.0956
  128CHL1   C2015708   2.191   1.743   4.106  0.1598  0.8645  0.1883
  128CHL1   H2015709   2.260   1.830   4.104 -0.0762  1.0506 -1.4153
  128CHL1   C2115710   2.260   1.615   4.053  0.6958 -0.2984 -0.3900
  128CHL1  H21A15711   2.298   1.637   3.951  0.1385 -0.8771 -0.7289
  128CHL1  H21B15712   2.188   1.531   4.057  0.2178  0.0908 -0.5902
  128CHL1  H21C15713   2.342   1.588   4.123 -0.1875 -2.3791 -0.0988
  128CHL1   C2215714   2.147   1.723   4.254 -0.1103 -0.1510  0.0002
  128CHL1  H22A15715   2.096   1.814   4.292 -0.0987 -0.2702  0.3049
  128CHL1  H22B15716   2.070   1.642   4.251 -0.8193  0.4842  0.5798
  128CHL1   C2315717   2.259   1.699   4.359 -0.4911 -0.5154 -0.1741
  128CHL1  H23A15718   2.329   1.614   4.338  0.3902  0.8301 -3.2683
  128CHL1  H23B15719   2.331   1.783   4.352  0.3837 -1.2792 -0.6261
  128CHL1   C2415720   2.199   1.677   4.500  0.8067 -0.6466  0.4039
  128CHL1  H24A15721   2.265   1.653   4.586  1.0870 -2.6004 -0.3036
  128CHL1  H24B15722   2.141   1.769   4.521 -2.3952 -2.6503  1.1659
  128CHL1   C2515723   2.084   1.567   4.507 -0.4356  0.3924 -0.6794
  128CHL1   H2515724   1.998   1.578   4.438 -1.1635  0.2304  0.1782
  128CHL1   C2615725   2.161   1.432   4.496 -0.3550  0.4790 -0.4278
  128CHL1  H26A15726   2.248   1.425   4.565  0.6077  1.3372 -1.5223
  128CHL1  H26B15727   2.092   1.349   4.525  0.8827  0.2014  2.0369
  128CHL1  H26C15728   2.197   1.419   4.392 -0.4177 -1.1683 -0.2745
  128CHL1   C2715729   2.019   1.583   4.648 -0.3898 -0.4177  0.1089
  128CHL1  H27A15730   2.100   1.567   4.723  0.9548  1.1554 -0.9486
  128CHL1  H27B15731   1.988   1.689   4.649  1.3728  0.1298  0.3394
  128CHL1  H27C15732   1.935   1.513   4.668 -0.5170 -0.3816 -0.3030
  129CHL1    C315733   7.049   6.812   3.293  0.4222 -0.1795  0.7247
  129CHL1    H315734   7.109   6.903   3.316 -1.4325  0.9492  1.3292
  129CHL1    O315735   7.078   6.769   3.164 -0.1646 -0.1019 -0.3188
  129CHL1   H3'15736   7.124   6.684   3.169  2.5393  1.2650 -0.2165
  129CHL1    C415737   7.063   6.696   3.398 -0.0829 -0.2615  0.4416
  129CHL1   H4A15738   6.994   6.616   3.365 -1.7415  2.2415 -2.6975
  129CHL1   H4B15739   7.165   6.652   3.394  0.3338  0.7768 -0.6745
  129CHL1    C515740   7.032   6.753   3.532  0.8641 -0.2561 -0.9245
  129CHL1    C615741   7.124   6.760   3.632  0.1369  0.2463  1.0686
  129CHL1    H615742   7.229   6.727   3.621 -0.1415  0.0049 -1.5018
  129CHL1    C715743   7.087   6.800   3.768 -0.0894  0.1882 -1.1365
  129CHL1   H7A15744   7.141   6.730   3.836 -3.7595 -0.9249  0.9177
  129CHL1   H7B15745   7.130   6.899   3.791 -1.2203  0.2176  1.0629
  129CHL1    C815746   6.936   6.783   3.802  0.2598  0.2264  0.3124
  129CHL1    H815747   6.904   6.677   3.792 -1.1234  0.7478 -1.4449
  129CHL1   C1415748   6.909   6.844   3.941  0.6449 -0.0149  0.2577
  129CHL1   H1415749   6.937   6.951   3.930 -0.8496  0.2738 -1.1841
  129CHL1   C1515750   6.969   6.774   4.068  0.0514 -0.3255 -0.0199
  129CHL1  H15A15751   6.973   6.666   4.041 -0.1080  0.1975 -2.3555
  129CHL1  H15B15752   7.071   6.816   4.081  0.0577  0.1709 -1.5241
  129CHL1   C1615753   6.878   6.821   4.176 -0.5571 -0.3432 -0.2023
  129CHL1  H16A15754   6.844   6.739   4.242  2.9797 -2.3391 -0.6360
  129CHL1  H16B15755   6.932   6.892   4.243 -1.0264 -0.2104  0.0372
  129CHL1   C1715756   6.756   6.885   4.108 -0.3355  0.2253 -0.4301
  129CHL1   H1715757   6.779   6.994   4.100 -1.9412  0.6551  0.4686
  129CHL1   C1315758   6.760   6.839   3.966  0.5232 -0.2743 -0.3051
  129CHL1   C1815759   6.702   6.699   3.955  0.2200  0.2494 -0.5150
  129CHL1  H18A15760   6.723   6.655   3.855  2.6221 -0.0642  0.0657
  129CHL1  H18B15761   6.747   6.633   4.032  1.9113  2.9307  0.9637
  129CHL1  H18C15762   6.595   6.703   3.983  0.1556 -2.0387 -0.2641
  129CHL1   C1215763   6.686   6.936   3.871  0.2804 -0.3517  0.1206
  129CHL1  H12A15764   6.583   6.947   3.911  0.0934 -2.0314  0.1718
  129CHL1  H12B15765   6.730   7.038   3.877 -1.6754  0.8338 -3.1258
  129CHL1   C1115766   6.705   6.892   3.725 -0.1180 -0.5058  0.4790
  129CHL1  H11A15767   6.637   6.805   3.713 -0.1891 -0.6198  1.6233
  129CHL1  H11B15768   6.674   6.966   3.648 -3.6144  0.1479  2.2934
  129CHL1    C915769   6.857   6.862   3.697  0.0812 -0.4750  0.0385
  129CHL1    H915770   6.903   6.962   3.683 -1.2617  0.0319 -1.0929
  129CHL1   C1015771   6.890   6.808   3.555 -0.0195 -0.3705  0.1180
  129CHL1   C1915772   6.795   6.689   3.528  0.6778  0.3071  0.1272
  129CHL1  H19A15773   6.689   6.718   3.537  0.8507  0.3221  3.6664
  129CHL1  H19B15774   6.813   6.656   3.424 -0.7724 -0.5430  0.1138
  129CHL1  H19C15775   6.818   6.607   3.601  2.0423  2.4408  2.2362
  129CHL1    C115776   6.874   6.914   3.435  1.2045  0.2935  0.6750
  129CHL1   H1A15777   6.766   6.935   3.442  0.5647 -2.4788  0.1996
  129CHL1   H1B15778   6.938   7.003   3.453  0.8701  0.3766  1.5019
  129CHL1    C215779   6.902   6.866   3.294 -0.1594  0.4768  0.4449
  129CHL1   H2A15780   6.883   6.956   3.233 -2.8557  0.0984  0.6108
  129CHL1   H2B15781   6.832   6.791   3.250 -0.9115  0.7552  1.1432
  129CHL1   C2015782   6.621   6.871   4.181 -0.1370 -0.2079  0.5519
  129CHL1   H2015783   6.536   6.896   4.114  0.7680  0.4312 -0.3968
  129CHL1   C2115784   6.625   6.998   4.272  0.1830  0.3055  0.3515
  129CHL1  H21A15785   6.707   6.988   4.346 -2.1558  0.9932  3.2190
  129CHL1  H21B15786   6.531   6.994   4.331 -0.4894 -1.7185 -0.7523
  129CHL1  H21C15787   6.617   7.092   4.213  0.3158  0.3495  0.4055
  129CHL1   C2215788   6.583   6.748   4.260 -0.4038  0.5808  0.2223
  129CHL1  H22A15789   6.603   6.654   4.204  0.3365 -0.4587  2.1536
  129CHL1  H22B15790   6.654   6.731   4.344 -4.5919 -1.4123  3.7474
  129CHL1   C2315791   6.433   6.736   4.292  0.4820 -0.0097 -0.5465
  129CHL1  H23A15792   6.397   6.829   4.343 -1.0691  0.1785 -1.9332
  129CHL1  H23B15793   6.364   6.726   4.206 -1.5663 -2.1331  1.2163
  129CHL1   C2415794   6.387   6.611   4.373  0.2284 -0.0934  0.1322
  129CHL1  H24A15795   6.430   6.520   4.326 -1.9191  0.1223 -2.4743
  129CHL1  H24B15796   6.446   6.615   4.468 -0.5599  0.5529  0.6142
  129CHL1   C2515797   6.240   6.582   4.395 -0.0869  0.3657  0.0845
  129CHL1   H2515798   6.201   6.642   4.310  0.0833 -0.8514 -0.8785
  129CHL1   C2615799   6.198   6.436   4.399 -0.9231  0.0503  0.2285
  129CHL1  H26A15800   6.090   6.414   4.414 -0.8913 -0.0574  0.3045
  129CHL1  H26B15801   6.224   6.388   4.302  2.6235  3.5995 -0.8699
  129CHL1  H26C15802   6.253   6.385   4.481 -0.6484  1.8072  1.1729
  129CHL1   C2715803   6.208   6.647   4.519  0.1079  0.1521  0.2930
  129CHL1  H27A15804   6.228   6.755   4.501 -1.1694  0.3109 -0.2836
  129CHL1  H27B15805   6.099   6.634   4.536  0.1868  0.2854  0.9069
  129CHL1  H27C15806   6.275   6.606   4.597 -1.6447 -0.1228  1.7174
  130CHL1    C315807   2.480   6.499   3.339  0.0945 -0.1961 -0.1931
  130CHL1    H315808   2.503   6.391   3.352  0.8372 -0.2844 -1.9296
  130CHL1    O315809   2.464   6.525   3.199 -0.0426  0.1307 -0.0700
  130CHL1   H3'15810   2.552   6.509   3.162 -0.1365  2.9055 -1.7985
  130CHL1    C415811   2.350   6.523   3.422 -0.3817 -0.3953 -0.3498
  130CHL1   H4A15812   2.311   6.624   3.398  0.2157 -0.0260  0.2179
  130CHL1   H4B15813   2.277   6.448   3.383 -1.6083  0.7484 -0.3221
  130CHL1    C515814   2.370   6.515   3.570 -0.4935  0.3102  0.2018
  130CHL1    C615815   2.292   6.441   3.649  0.0351  0.3595 -0.2446
  130CHL1    H615816   2.204   6.392   3.606  0.2659 -0.1681 -0.1215
  130CHL1    C715817   2.294   6.443   3.797 -0.1807  1.2987  0.1187
  130CHL1   H7A15818   2.196   6.482   3.832 -0.1856  3.0541 -1.6866
  130CHL1   H7B15819   2.310   6.338   3.830 -0.5441  0.8250 -1.1330
  130CHL1    C815820   2.400   6.535   3.852 -0.0842 -0.1755 -0.2281
  130CHL1    H815821   2.350   6.635   3.851 -1.1915 -0.6628 -3.0765
  130CHL1   C1415822   2.426   6.502   3.998 -0.2061  0.5178 -0.6309
  130CHL1   H1415823   2.463   6.397   3.988 -0.5942  0.4243 -1.1316
  130CHL1   C1515824   2.313   6.483   4.102  0.6232  0.7139  0.5349
  130CHL1  H15A15825   2.226   6.550   4.084  1.2172  0.9818 -1.5499
  130CHL1  H15B15826   2.281   6.377   4.095 -0.6687  1.0358  1.3163
  130CHL1   C1615827   2.383   6.502   4.235  0.0099  0.5851 -0.5219
  130CHL1  H16A15828   2.339   6.591   4.284 -0.6681  0.5749 -1.1063
  130CHL1  H16B15829   2.373   6.421   4.311  1.8419  1.7975  1.1104
  130CHL1   C1715830   2.535   6.529   4.210  0.2630  0.0983 -0.4589
  130CHL1   H1715831   2.572   6.425   4.203 -1.4110 -0.8255  2.3078
  130CHL1   C1315832   2.531   6.587   4.074 -0.3128 -0.4019  0.1777
  130CHL1   C1815833   2.498   6.736   4.075 -0.1682 -0.1025 -0.1609
  130CHL1  H18A15834   2.491   6.780   3.973  0.6656 -2.6445 -1.4035
  130CHL1  H18B15835   2.405   6.749   4.135 -0.1287 -2.4399  0.5100
  130CHL1  H18C15836   2.577   6.791   4.131 -2.2549  1.6111  1.2899
  130CHL1   C1215837   2.657   6.577   3.993 -0.1097 -0.2757  0.4941
  130CHL1  H12A15838   2.734   6.649   4.028 -1.7150  2.0782 -0.5497
  130CHL1  H12B15839   2.698   6.475   4.005 -2.5072 -1.3075  0.5216
  130CHL1   C1115840   2.643   6.617   3.847 -0.5429 -0.8124  0.0414
  130CHL1  H11A15841   2.624   6.726   3.850 -1.0574 -0.9048  0.2631
  130CHL1  H11B15842   2.743   6.592   3.806 -0.9821 -0.6411 -1.1765
  130CHL1    C915843   2.528   6.542   3.772 -0.3291 -0.3919  0.6836
  130CHL1    H915844   2.561   6.435   3.773 -1.7300 -0.8393  1.1137
  130CHL1   C1015845   2.496   6.587   3.630  0.4522  0.5228 -0.2249
  130CHL1   C1915846   2.469   6.743   3.622  0.1118 -0.0612  0.0929
  130CHL1  H19A15847   2.545   6.802   3.676 -1.2776  0.6178  1.3791
  130CHL1  H19B15848   2.466   6.784   3.519  1.5047  3.0240  1.1720
  130CHL1  H19C15849   2.375   6.772   3.674 -0.5684  0.9680 -1.6073
  130CHL1    C115850   2.622   6.554   3.542  0.8662 -0.6456 -0.3594
  130CHL1   H1A15851   2.700   6.627   3.573 -0.7270  1.1077 -0.3016
  130CHL1   H1B15852   2.648   6.447   3.547  0.1164 -0.9520 -2.2389
  130CHL1    C215853   2.603   6.579   3.396  0.0464 -0.5178  0.0745
  130CHL1   H2A15854   2.690   6.536   3.342 -0.4208 -0.9873 -0.3126
  130CHL1   H2B15855   2.590   6.684   3.364  0.6449 -0.3526  0.3613
  130CHL1   C2015856   2.624   6.589   4.320  0.5520  1.3485  0.3954
  130CHL1   H2015857   2.650   6.695   4.296 -1.6858  1.1715 -3.5727
  130CHL1   C2115858   2.757   6.509   4.307  0.3721  0.0388  0.1604
  130CHL1  H21A15859   2.824   6.568   4.374 -1.1721  2.3451 -0.2153
  130CHL1  H21B15860   2.793   6.512   4.202  0.6645 -0.5992  0.2359
  130CHL1  H21C15861   2.741   6.400   4.319 -0.0225 -0.0552 -1.0986
  130CHL1   C2215862   2.559   6.572   4.463 -0.0040 -0.6646  0.1865
  130CHL1  H22A15863   2.463   6.626   4.476  0.7594  0.5712  0.8406
  130CHL1  H22B15864   2.532   6.465   4.477  0.1090 -0.7561 -0.2637
  130CHL1   C2315865   2.648   6.633   4.571  0.0688 -0.6501 -0.3148
  130CHL1  H23A15866   2.741   6.576   4.591 -0.5688 -1.4010  0.5988
  130CHL1  H23B15867   2.680   6.734   4.536 -0.3879 -0.3447  0.1157
  130CHL1   C2415868   2.587   6.641   4.713 -0.7883 -0.4445  0.0230
  130CHL1  H24A15869   2.496   6.704   4.706  1.7431  3.4118 -2.8453
  130CHL1  H24B15870   2.559   6.540   4.750  1.3634 -0.8815  0.6290
  130CHL1   C2515871   2.682   6.710   4.825  0.5402 -0.1237  0.3493
  130CHL1   H2515872   2.780   6.662   4.807  0.2855 -0.1489 -1.1252
  130CHL1   C2615873   2.670   6.861   4.809  0.3410  0.4933 -0.4139
  130CHL1  H26A15874   2.760   6.910   4.853  0.3009  0.8270 -0.6978
  130CHL1  H26B15875   2.660   6.894   4.704  0.6759  1.0983 -0.2605
  130CHL1  H26C15876   2.580   6.891   4.866 -0.2726 -0.4567 -0.8591
  130CHL1   C2715877   2.635   6.668   4.966 -0.0536  0.0816 -0.4987
  130CHL1  H27A15878   2.700   6.722   5.039 -0.4027 -0.6432  0.3651
  130CHL1  H27B15879   2.531   6.704   4.983  0.4575  0.9821  0.9080
  130CHL1  H27C15880   2.639   6.562   4.997  0.2623  0.4938  0.9491
  131CHL1    C315881   1.371   5.255   3.322 -0.1633 -0.1671 -0.0649
  131CHL1    H315882   1.476   5.260   3.359 -0.3801 -1.3929  0.7908
  131CHL1    O315883   1.361   5.270   3.176 -0.0773 -0.5316  0.0157
  131CHL1   H3'15884   1.379   5.364   3.175  0.5594 -0.6491 -0.0979
  131CHL1    C415885   1.318   5.115   3.373  0.1986  0.5244  0.3368
  131CHL1   H4A15886   1.213   5.110   3.335 -0.8784  0.0448  3.0834
  131CHL1   H4B15887   1.375   5.032   3.327  0.2843 -1.6345  3.9139
  131CHL1    C515888   1.322   5.098   3.517 -0.4759  0.1956 -0.0113
  131CHL1    C615889   1.391   4.998   3.574  0.1607 -0.5869 -0.0858
  131CHL1    H615890   1.452   4.934   3.507 -1.4534 -0.9238 -1.2878
  131CHL1    C715891   1.393   4.979   3.724 -0.3831  0.7648 -0.0027
  131CHL1   H7A15892   1.404   4.872   3.754  2.9511  1.6407  2.4445
  131CHL1   H7B15893   1.485   5.026   3.764 -0.4604 -0.1293  1.2744
  131CHL1    C815894   1.275   5.053   3.799  0.1286  0.2067  0.0514
  131CHL1    H815895   1.178   5.004   3.778 -0.7951  2.8846 -2.7681
  131CHL1   C1415896   1.293   5.055   3.949 -0.5334 -0.2875 -0.2436
  131CHL1   H1415897   1.391   5.106   3.965 -0.3878 -0.3052 -1.0420
  131CHL1   C1515898   1.316   4.923   4.023  0.0024  0.0038  0.1574
  131CHL1  H15A15899   1.250   4.846   3.978  0.1859  0.5233 -1.0262
  131CHL1  H15B15900   1.418   4.881   4.008 -0.6409 -0.9237 -1.9676
  131CHL1   C1615901   1.300   4.963   4.166 -0.0994 -0.4239  0.2498
  131CHL1  H16A15902   1.222   4.899   4.214  0.5863 -0.8194  0.8579
  131CHL1  H16B15903   1.392   4.949   4.226  0.3424  0.8952 -0.0949
  131CHL1   C1715904   1.254   5.113   4.172  0.6611  0.3320  0.4056
  131CHL1   H1715905   1.357   5.156   4.167  1.0329 -0.5791 -3.1700
  131CHL1   C1315906   1.195   5.137   4.035  0.2483  0.4243 -0.1315
  131CHL1   C1815907   1.049   5.070   4.026  0.2325 -0.3578 -0.3937
  131CHL1  H18A15908   1.046   4.971   4.077 -0.2992 -1.4778 -2.4980
  131CHL1  H18B15909   0.965   5.131   4.067 -0.0838  0.3230 -1.9830
  131CHL1  H18C15910   1.014   5.060   3.921 -1.1931 -0.1999  0.0435
  131CHL1   C1215911   1.195   5.285   3.991  0.2702 -0.5985  0.3750
  131CHL1  H12A15912   1.137   5.349   4.060  2.5071 -0.7696  2.5859
  131CHL1  H12B15913   1.297   5.328   4.000 -0.4150  1.2856 -0.3309
  131CHL1   C1115914   1.168   5.286   3.837 -0.9331  0.1685  0.4496
  131CHL1  H11A15915   1.066   5.243   3.823  0.2059 -2.5937 -0.1395
  131CHL1  H11B15916   1.171   5.390   3.798 -0.4930 -0.2478 -0.6673
  131CHL1    C915917   1.257   5.194   3.748 -0.3832 -0.1076  0.2642
  131CHL1    H915918   1.363   5.224   3.760  0.1050 -1.8672  0.5772
  131CHL1   C1015919   1.232   5.204   3.596  0.0775 -0.2788 -0.4482
  131CHL1   C1915920   1.087   5.189   3.569 -0.1422  0.1421 -0.5835
  131CHL1  H19A15921   1.021   5.266   3.616 -0.8560 -1.7952  1.7634
  131CHL1  H19B15922   1.078   5.188   3.458  1.1959  0.3245 -0.7083
  131CHL1  H19C15923   1.047   5.090   3.598  1.0767 -0.7083 -1.6983
  131CHL1    C115924   1.261   5.353   3.538 -0.5526 -0.5543  0.4777
  131CHL1   H1A15925   1.192   5.426   3.584 -0.2696 -0.4429  0.7292
  131CHL1   H1B15926   1.356   5.384   3.588 -0.4462  0.4067 -0.2927
  131CHL1    C215927   1.282   5.367   3.387  0.2432 -0.0331 -0.0447
  131CHL1   H2A15928   1.332   5.462   3.359 -1.2273  0.3999 -1.3728
  131CHL1   H2B15929   1.179   5.360   3.345 -0.7479  2.8496  1.6537
  131CHL1   C2015930   1.173   5.175   4.288  0.2065  0.1856 -0.0499
  131CHL1   H2015931   1.104   5.251   4.246  0.3990  0.2136 -0.3211
  131CHL1   C2115932   1.280   5.238   4.382 -0.1614  0.8934  0.5595
  131CHL1  H21A15933   1.335   5.314   4.322 -0.7949  0.8671 -0.0566
  131CHL1  H21B15934   1.345   5.165   4.435 -1.8480  0.0839  1.5846
  131CHL1  H21C15935   1.235   5.303   4.460 -1.3421  0.1001  0.5599
  131CHL1   C2215936   1.081   5.070   4.361  0.7899 -0.6430 -0.3404
  131CHL1  H22A15937   1.026   5.008   4.287  0.9673 -1.9391  0.5602
  131CHL1  H22B15938   1.145   4.990   4.405 -0.3759 -1.8693 -0.8241
  131CHL1   C2315939   0.995   5.126   4.473 -0.3429 -0.3271  0.0095
  131CHL1  H23A15940   1.042   5.198   4.544 -1.1282 -0.1004  0.3052
  131CHL1  H23B15941   0.907   5.179   4.432  0.0729  0.7812  0.4999
  131CHL1   C2415942   0.931   5.016   4.561 -0.6708  0.2055 -1.1780
  131CHL1  H24A15943   1.020   4.971   4.611  1.1754  3.2395 -1.4498
  131CHL1  H24B15944   0.877   5.070   4.642 -0.7847 -0.0702 -1.0684
  131CHL1   C2515945   0.829   4.914   4.495  0.3116 -0.0650  0.6373
  131CHL1   H2515946   0.880   4.855   4.416 -0.4404  1.6291 -1.1966
  131CHL1   C2615947   0.781   4.816   4.598 -0.5024 -0.0434 -0.7265
  131CHL1  H26A15948   0.704   4.742   4.568  0.1840 -0.2007 -2.1945
  131CHL1  H26B15949   0.865   4.756   4.640 -1.5895  0.2857  2.1279
  131CHL1  H26C15950   0.734   4.876   4.679 -2.0548 -0.1385 -1.5379
  131CHL1   C2715951   0.706   4.985   4.438 -0.0920 -0.2126 -0.1385
  131CHL1  H27A15952   0.729   5.034   4.341  0.6271  0.2735  0.2646
  131CHL1  H27B15953   0.622   4.915   4.423  0.0690 -0.9672  2.1201
  131CHL1  H27C15954   0.681   5.068   4.508 -0.7451  0.2765 -0.9413
  132CHL1    C315955   4.616   7.554   3.322 -0.5879  0.1359 -0.0038
  132CHL1    H315956   4.681   7.472   3.356  0.2942  0.6194 -0.4958
  132CHL1    O315957   4.632   7.549   3.182 -0.5210  0.3045  0.0802
  132CHL1   H3'15958   4.596   7.462   3.162  0.0762  0.0509  0.0697
  132CHL1    C415959   4.468   7.537   3.354  0.5528  0.2222  1.0545
  132CHL1   H4A15960   4.411   7.615   3.299 -0.2137  1.0562  2.9214
  132CHL1   H4B15961   4.421   7.443   3.320 -0.5728  0.9734  0.4817
  132CHL1    C515962   4.449   7.559   3.503  0.0706  0.4473  0.0663
  132CHL1    C615963   4.384   7.461   3.568  0.4600 -0.1746 -0.1846
  132CHL1    H615964   4.335   7.379   3.513 -2.6356  0.1387  1.8334
  132CHL1    C715965   4.355   7.469   3.719 -0.8422  0.0962  0.8995
  132CHL1   H7A15966   4.261   7.413   3.739 -1.6898  0.4117 -1.7425
  132CHL1   H7B15967   4.428   7.401   3.768  0.0818  0.2137 -0.2631
  132CHL1    C815968   4.369   7.613   3.782 -0.2665 -0.2773  0.5582
  132CHL1    H815969   4.281   7.674   3.754  1.0631  0.5257 -2.2896
  132CHL1   C1415970   4.392   7.610   3.932  0.2294  0.6537 -0.2924
  132CHL1   H1415971   4.485   7.551   3.945 -1.1212 -1.4437  0.4440
  132CHL1   C1515972   4.282   7.542   4.011 -0.2086  0.0160 -0.0010
  132CHL1  H15A15973   4.182   7.578   3.978  0.0896  2.2604  1.3123
  132CHL1  H15B15974   4.285   7.431   4.010 -0.1333  0.0165  0.1574
  132CHL1   C1615975   4.311   7.596   4.148  0.4366  0.5816  0.6068
  132CHL1  H16A15976   4.223   7.654   4.182 -0.0854 -0.2579  0.7207
  132CHL1  H16B15977   4.340   7.517   4.221  2.0349  0.9462  0.4006
  132CHL1   C1715978   4.434   7.695   4.134 -0.3837  0.5848 -0.5595
  132CHL1   H1715979   4.526   7.633   4.130 -0.0541  0.9243  1.0532
  132CHL1   C1315980   4.417   7.743   3.986 -0.0392  0.2636 -1.2155
  132CHL1   C1815981   4.287   7.830   3.976 -0.0886 -0.4342  0.2723
  132CHL1  H18A15982   4.313   7.928   4.021 -2.7102  1.3136 -1.7522
  132CHL1  H18B15983   4.259   7.862   3.873 -0.2699  0.9453  0.7362
  132CHL1  H18C15984   4.200   7.788   4.031 -0.9799  0.9171 -0.0773
  132CHL1   C1215985   4.537   7.819   3.930 -0.3421 -0.2659 -0.0050
  132CHL1  H12A15986   4.546   7.923   3.969 -0.6449 -0.6537  1.1420
  132CHL1  H12B15987   4.633   7.769   3.953 -1.0617 -0.6693  2.3946
  132CHL1   C1115988   4.519   7.823   3.778 -0.3109 -0.1944 -0.1259
  132CHL1  H11A15989   4.443   7.901   3.753  0.9858  0.5472 -1.9781
  132CHL1  H11B15990   4.614   7.860   3.734  0.5708 -1.7045  0.4310
  132CHL1    C915991   4.491   7.686   3.717 -0.1014 -0.0071  0.6135
  132CHL1    H915992   4.582   7.631   3.750 -0.9917 -1.2592  1.0258
  132CHL1   C1015993   4.505   7.690   3.564 -0.0989  0.9449 -0.5329
  132CHL1   C1915994   4.416   7.801   3.509  0.0891 -0.3195 -0.6114
  132CHL1  H19A15995   4.309   7.794   3.539  0.1304 -2.6187 -0.8076
  132CHL1  H19B15996   4.454   7.901   3.539 -0.5953 -0.7520  1.8911
  132CHL1  H19C15997   4.405   7.798   3.398 -3.2881  1.5399 -0.4519
  132CHL1    C115998   4.656   7.709   3.520 -0.0702  0.2737 -0.4794
  132CHL1   H1A15999   4.706   7.805   3.544 -1.4133  1.0691 -0.7432
  132CHL1   H1B16000   4.714   7.630   3.572 -1.9359  0.7771  2.6457
  132CHL1    C216001   4.678   7.686   3.370  0.0151 -0.3946 -0.2906
  132CHL1   H2A16002   4.784   7.701   3.341  0.4399 -0.1131  1.2768
  132CHL1   H2B16003   4.622   7.768   3.319  2.3680  1.7245  0.3386
  132CHL1   C2016004   4.437   7.795   4.250 -0.2966  0.7550 -0.2012
  132CHL1   H2016005   4.354   7.868   4.236 -1.4332 -0.2291  1.1324
  132CHL1   C2116006   4.579   7.863   4.263  0.9567 -0.3315  0.0832
  132CHL1  H21A16007   4.579   7.913   4.363 -4.8101 -1.6236  1.0879
  132CHL1  H21B16008   4.595   7.938   4.182  1.6774  0.7839  1.2122
  132CHL1  H21C16009   4.660   7.788   4.272 -0.9504 -2.2341  2.8295
  132CHL1   C2216010   4.394   7.729   4.385 -0.2319 -0.0856  0.1065
  132CHL1  H22A16011   4.295   7.684   4.365 -1.4263  2.3538  0.2071
  132CHL1  H22B16012   4.466   7.646   4.404 -1.5286 -1.2597 -0.0066
  132CHL1   C2316013   4.391   7.800   4.520 -0.0375 -0.3673 -0.3575
  132CHL1  H23A16014   4.352   7.731   4.598 -1.2739 -1.3996 -1.8231
  132CHL1  H23B16015   4.494   7.829   4.549 -0.2200  2.0560 -1.8591
  132CHL1   C2416016   4.304   7.923   4.519 -0.2780  0.4093 -0.2443
  132CHL1  H24A16017   4.333   7.977   4.426 -0.3909 -1.2111 -1.2566
  132CHL1  H24B16018   4.197   7.891   4.512  0.4288 -1.8346 -1.6698
  132CHL1   C2516019   4.336   8.019   4.639 -0.2987 -0.7363  0.1988
  132CHL1   H2516020   4.444   8.041   4.628 -0.4895  0.5018  0.5570
  132CHL1   C2616021   4.262   8.148   4.616  0.5206 -0.2421 -0.2973
  132CHL1  H26A16022   4.151   8.149   4.621  0.5423  1.6719  0.4057
  132CHL1  H26B16023   4.293   8.228   4.686 -3.0762  1.4597 -0.3917
  132CHL1  H26C16024   4.298   8.190   4.520  0.8333 -2.0531 -1.0223
  132CHL1   C2716025   4.313   7.953   4.780  0.8447  0.0232  0.0814
  132CHL1  H27A16026   4.405   7.900   4.813 -0.1007 -1.7818 -0.0798
  132CHL1  H27B16027   4.278   8.020   4.861  0.0866 -1.3700  0.9371
  132CHL1  H27C16028   4.233   7.878   4.763 -0.6891  1.8024 -0.9015
  133CHL1    C316029   0.961   1.594   3.292  0.0202  0.3818  0.3260
  133CHL1    H316030   0.914   1.500   3.327  0.7756  1.0140  3.2828
  133CHL1    O316031   0.969   1.606   3.153 -0.6452 -0.0813  0.0110
  133CHL1   H3'16032   0.976   1.699   3.133 -2.2138  0.1456  0.3535
  133CHL1    C416033   0.878   1.714   3.342  0.4196  0.8471 -0.4271
  133CHL1   H4A16034   0.927   1.805   3.301  1.4567  0.6967  0.4352
  133CHL1   H4B16035   0.777   1.701   3.298  0.1244  0.1507  0.4243
  133CHL1    C516036   0.883   1.708   3.498  0.0695 -0.1548 -0.2019
  133CHL1    C616037   0.767   1.702   3.561  0.4985 -0.6935  0.5382
  133CHL1    H616038   0.670   1.700   3.509 -0.7228 -1.3455  2.7306
  133CHL1    C716039   0.761   1.690   3.709 -0.5659  0.1813 -0.2365
  133CHL1   H7A16040   0.689   1.759   3.759 -1.8789 -1.7444  0.6594
  133CHL1   H7B16041   0.739   1.583   3.732  0.2034 -0.0908 -0.7467
  133CHL1    C816042   0.891   1.730   3.787 -0.6447 -0.0176  0.2507
  133CHL1    H816043   0.900   1.840   3.781 -2.3133  0.2538  1.9138
  133CHL1   C1416044   0.894   1.687   3.934  0.1277  0.3613 -0.3575
  133CHL1   H1416045   0.907   1.576   3.942  0.3617  0.5423  2.9406
  133CHL1   C1516046   0.768   1.724   4.021 -0.0975  0.4506  0.0561
  133CHL1  H15A16047   0.718   1.818   3.989  0.8527  0.8472 -0.2888
  133CHL1  H15B16048   0.695   1.640   4.019 -0.0724  0.4343 -0.6286
  133CHL1   C1616049   0.826   1.728   4.166  0.6590 -0.2453 -0.0666
  133CHL1  H16A16050   0.815   1.831   4.207  1.1634  0.8468 -2.5027
  133CHL1  H16B16051   0.782   1.647   4.228  1.5064  0.1598  1.1044
  133CHL1   C1716052   0.976   1.693   4.153 -0.0637 -0.4849 -0.4535
  133CHL1   H1716053   0.984   1.583   4.145 -2.4506 -0.9210  1.8324
  133CHL1   C1316054   1.021   1.734   4.016 -1.2191 -0.3693 -0.0063
  133CHL1   C1816055   1.039   1.884   4.010 -0.8229 -1.1056 -0.7456
  133CHL1  H18A16056   1.063   1.936   3.915 -1.0137 -1.0387 -0.7576
  133CHL1  H18B16057   0.951   1.928   4.062  1.9103  0.2307  3.2110
  133CHL1  H18C16058   1.130   1.905   4.070 -0.7965 -0.1745 -1.0875
  133CHL1   C1216059   1.142   1.661   3.946 -0.1763 -0.3103 -0.3518
  133CHL1  H12A16060   1.234   1.684   4.004  0.1457  0.7798 -1.2659
  133CHL1  H12B16061   1.128   1.551   3.954  1.0174 -0.4684 -0.2886
  133CHL1   C1116062   1.152   1.696   3.799  0.3259 -0.4361  0.2061
  133CHL1  H11A16063   1.168   1.805   3.783 -0.7709 -0.4132 -0.8768
  133CHL1  H11B16064   1.230   1.630   3.755  0.2692 -0.5488  0.2745
  133CHL1    C916065   1.018   1.669   3.717 -0.0100  0.3268  0.6865
  133CHL1    H916066   1.005   1.559   3.719 -1.0855  0.4503  0.9943
  133CHL1   C1016067   1.023   1.712   3.566 -0.3596  0.0576  0.0395
  133CHL1   C1916068   1.100   1.849   3.535  0.6598  0.3294  0.4286
  133CHL1  H19A16069   1.042   1.915   3.603 -0.1223 -1.9669  2.1046
  133CHL1  H19B16070   1.197   1.842   3.589 -0.6561  1.5772  3.1856
  133CHL1  H19C16071   1.107   1.870   3.427 -0.4116 -2.0634 -0.1643
  133CHL1    C116072   1.104   1.597   3.503  0.3634  0.0998  0.4784
  133CHL1   H1A16073   1.206   1.598   3.546 -0.1394 -0.8918  1.7525
  133CHL1   H1B16074   1.060   1.500   3.535 -0.3076  0.0896 -0.4237
  133CHL1    C216075   1.105   1.597   3.350  0.5294 -0.2876  0.1099
  133CHL1   H2A16076   1.162   1.510   3.312 -1.7256 -0.5145 -3.1663
  133CHL1   H2B16077   1.155   1.682   3.300  1.5955 -0.7306  0.4050
  133CHL1   C2016078   1.060   1.731   4.280  0.3624  0.2501  0.5215
  133CHL1   H2016079   1.163   1.715   4.242 -0.2573 -2.3304 -0.2740
  133CHL1   C2116080   1.033   1.607   4.378 -0.4698 -1.2829  1.0018
  133CHL1  H21A16081   1.121   1.610   4.446 -0.4917  1.3377  1.0311
  133CHL1  H21B16082   1.043   1.515   4.316  1.6823 -0.3983 -0.0544
  133CHL1  H21C16083   0.934   1.611   4.429 -1.4587 -4.6662 -0.3691
  133CHL1   C2216084   1.040   1.868   4.349  0.1582 -0.9745 -0.1648
  133CHL1  H22A16085   1.043   1.943   4.267  1.3728  1.4888  1.9975
  133CHL1  H22B16086   0.943   1.864   4.403  0.4132  1.0818  0.5248
  133CHL1   C2316087   1.136   1.886   4.462  0.2494 -0.2410 -0.1682
  133CHL1  H23A16088   1.116   1.814   4.545 -3.2914  0.2124 -0.4722
  133CHL1  H23B16089   1.237   1.862   4.421  0.1929 -1.3345  0.3015
  133CHL1   C2416090   1.144   2.031   4.521 -0.5928  0.1681 -0.2865
  133CHL1  H24A16091   1.169   2.109   4.446  1.9126 -1.2989 -1.0690
  133CHL1  H24B16092   1.041   2.062   4.549 -0.2444  1.5895 -0.4767
  133CHL1   C2516093   1.238   2.053   4.634 -0.2899  0.6188 -0.3046
  133CHL1   H2516094   1.230   1.961   4.697  0.5804 -1.5547 -3.1472
  133CHL1   C2616095   1.379   2.082   4.586  0.7470 -0.3713  0.4575
  133CHL1  H26A16096   1.400   2.168   4.519  3.7288 -1.9818 -0.9042
  133CHL1  H26B16097   1.453   2.104   4.666  1.3216  1.3141 -0.4849
  133CHL1  H26C16098   1.403   1.989   4.529 -3.7045 -2.6014  1.7498
  133CHL1   C2716099   1.199   2.170   4.721 -0.0835 -0.1918 -0.0858
  133CHL1  H27A16100   1.231   2.263   4.670  0.6137 -0.5738 -0.3531
  133CHL1  H27B16101   1.090   2.176   4.743  0.1647  2.9802  0.7643
  133CHL1  H27C16102   1.247   2.153   4.820 -0.6152  0.5844  0.3186
  134CHL1    C316103   6.878   2.642   3.189 -0.3464  0.5962 -0.3323
  134CHL1    H316104   6.988   2.641   3.207  0.1122 -3.2934 -2.3131
  134CHL1    O316105   6.852   2.650   3.050  0.0826  0.3590  0.0671
  134CHL1   H3'16106   6.839   2.560   3.021  2.1839 -0.4922  1.4859
  134CHL1    C416107   6.824   2.507   3.243 -0.0748  0.1835  0.2219
  134CHL1   H4A16108   6.723   2.490   3.202 -0.0617  1.5130 -0.3936
  134CHL1   H4B16109   6.885   2.420   3.210 -2.5185 -2.3971  2.0471
  134CHL1    C516110   6.833   2.513   3.395 -0.1458  0.5076 -0.8006
  134CHL1    C616111   6.898   2.416   3.464 -0.2424 -0.5444  0.7172
  134CHL1    H616112   6.952   2.338   3.408  2.2425  1.3806  0.2225
  134CHL1    C716113   6.888   2.407   3.610 -0.4711 -0.4057  0.8389
  134CHL1   H7A16114   6.844   2.311   3.644  0.0077 -0.8784  0.1356
  134CHL1   H7B16115   6.990   2.417   3.653  0.3463 -0.5140 -1.0107
  134CHL1    C816116   6.788   2.506   3.683  0.4601 -0.1550  0.4832
  134CHL1    H816117   6.690   2.454   3.675 -0.8906  1.9519  1.9547
  134CHL1   C1416118   6.816   2.527   3.830  0.1116 -0.6089  0.4302
  134CHL1   H1416119   6.915   2.577   3.834 -0.2649  0.1933 -0.0792
  134CHL1   C1516120   6.839   2.404   3.919 -0.4744  0.7183  0.9628
  134CHL1  H15A16121   6.758   2.329   3.907 -0.0808  0.0092  2.4749
  134CHL1  H15B16122   6.939   2.358   3.906 -0.6271  0.9826 -1.7963
  134CHL1   C1616123   6.815   2.452   4.063  0.5159 -0.4804 -0.0263
  134CHL1  H16A16124   6.720   2.405   4.097 -0.2186  1.3849  0.6454
  134CHL1  H16B16125   6.899   2.428   4.132 -0.9661 -1.9617  1.3578
  134CHL1   C1716126   6.789   2.604   4.053  0.0767 -0.1427  0.7174
  134CHL1   H1716127   6.886   2.659   4.049 -0.9965  1.7755 -1.2685
  134CHL1   C1316128   6.723   2.616   3.913 -0.2624  0.1600  0.5055
  134CHL1   C1816129   6.570   2.567   3.911 -0.3933 -0.4470 -0.4734
  134CHL1  H18A16130   6.517   2.634   3.982  1.5512 -0.3363  0.9762
  134CHL1  H18B16131   6.537   2.559   3.805 -1.0898 -0.0663 -0.2897
  134CHL1  H18C16132   6.558   2.465   3.955  1.3427 -0.8065 -0.7408
  134CHL1   C1216133   6.719   2.754   3.845  0.5083 -0.5918  1.1874
  134CHL1  H12A16134   6.626   2.804   3.879 -0.4352 -1.0588 -0.6079
  134CHL1  H12B16135   6.815   2.806   3.864  1.6990 -3.1504  2.6952
  134CHL1   C1116136   6.700   2.747   3.690  0.1782 -0.1061 -0.3019
  134CHL1  H11A16137   6.590   2.729   3.685 -0.1445  1.0960  1.4452
  134CHL1  H11B16138   6.718   2.848   3.649 -2.2817  0.0558 -1.1488
  134CHL1    C916139   6.781   2.646   3.608  0.5188  0.2931  0.4244
  134CHL1    H916140   6.885   2.687   3.612 -0.8157  4.0830 -0.0872
  134CHL1   C1016141   6.762   2.637   3.452 -0.0176 -0.2004 -0.3548
  134CHL1   C1916142   6.606   2.629   3.436  0.4292 -0.4480 -0.2425
  134CHL1  H19A16143   6.573   2.544   3.498  0.1268  0.2701  0.6028
  134CHL1  H19B16144   6.550   2.720   3.468 -1.1945 -1.4371 -0.1758
  134CHL1  H19C16145   6.580   2.608   3.330 -1.3181 -1.2605  0.3168
  134CHL1    C116146   6.817   2.766   3.391  0.0530 -0.8469 -0.4745
  134CHL1   H1A16147   6.756   2.850   3.430  0.3603  0.7079 -3.0785
  134CHL1   H1B16148   6.921   2.774   3.429  0.8382 -1.1828 -2.4229
  134CHL1    C216149   6.813   2.767   3.246 -0.1700  0.0278  0.4421
  134CHL1   H2A16150   6.862   2.862   3.215 -0.2258 -0.5421 -1.5602
  134CHL1   H2B16151   6.705   2.770   3.222 -0.1199  0.2981  0.2428
  134CHL1   C2016152   6.721   2.665   4.170 -0.0599 -0.3101 -0.1088
  134CHL1   H2016153   6.612   2.643   4.172 -0.1520  0.1490  1.8923
  134CHL1   C2116154   6.734   2.821   4.171  0.1768 -0.2516  0.0379
  134CHL1  H21A16155   6.841   2.850   4.180  0.5509 -0.9837 -1.6939
  134CHL1  H21B16156   6.694   2.869   4.263 -0.2094  0.4727 -0.4969
  134CHL1  H21C16157   6.699   2.872   4.079  0.4427  0.0351  0.0950
  134CHL1   C2216158   6.766   2.612   4.310 -0.1684 -0.1900 -0.1663
  134CHL1  H22A16159   6.704   2.656   4.391 -2.6383 -1.3822 -1.3002
  134CHL1  H22B16160   6.749   2.502   4.310  0.5609 -0.3088  0.1008
  134CHL1   C2316161   6.902   2.641   4.351 -0.4111 -0.4980 -0.6976
  134CHL1  H23A16162   6.980   2.583   4.297  1.3195 -0.1228  1.2443
  134CHL1  H23B16163   6.930   2.748   4.336  0.0855 -0.3267  1.1833
  134CHL1   C2416164   6.950   2.606   4.496 -0.0402  0.4254 -0.5054
  134CHL1  H24A16165   6.973   2.501   4.527 -0.0638  1.2556  2.6170
  134CHL1  H24B16166   7.043   2.662   4.521  0.4131 -0.9289  1.0177
  134CHL1   C2516167   6.864   2.663   4.613  0.0361  0.5298  0.3745
  134CHL1   H2516168   6.759   2.627   4.599  0.0550 -0.0194  1.5672
  134CHL1   C2616169   6.917   2.601   4.749  0.0230 -0.1722  0.3645
  134CHL1  H26A16170   6.864   2.646   4.836 -1.0273 -0.0869 -0.3054
  134CHL1  H26B16171   6.912   2.491   4.744  1.6885 -0.2932  0.7722
  134CHL1  H26C16172   7.024   2.630   4.748 -0.0347  0.1128 -1.6049
  134CHL1   C2716173   6.865   2.812   4.619 -0.0934  0.3437  0.4073
  134CHL1  H27A16174   6.825   2.871   4.534 -1.4702 -0.9948  0.0818
  134CHL1  H27B16175   6.813   2.848   4.711 -0.1816  0.8037  0.1837
  134CHL1  H27C16176   6.968   2.852   4.628 -0.5811  1.5064  1.0301
  135CHL1    C316177   7.240   3.081   3.266 -0.0506 -0.1013  0.2347
  135CHL1    H316178   7.340   3.034   3.280  1.1255  2.1612  0.0009
  135CHL1    O316179   7.207   3.093   3.124  0.1926  0.2257  0.0821
  135CHL1   H3'16180   7.112   3.103   3.129  0.1740 -0.1257  0.4473
  135CHL1    C416181   7.139   2.980   3.323 -0.3922  0.1820 -0.6963
  135CHL1   H4A16182   7.037   3.022   3.311 -0.6217  0.7290  2.4071
  135CHL1   H4B16183   7.124   2.893   3.256  1.6578 -0.1639 -0.7677
  135CHL1    C516184   7.171   2.938   3.464  0.8280  0.0466  0.3778
  135CHL1    C616185   7.207   2.815   3.510  0.3988 -0.3488  0.9982
  135CHL1    H616186   7.221   2.735   3.436 -0.7410  0.7025 -0.3999
  135CHL1    C716187   7.213   2.778   3.652 -0.0887 -0.1764 -0.0958
  135CHL1   H7A16188   7.152   2.687   3.668  0.5463 -0.9896 -1.9593
  135CHL1   H7B16189   7.318   2.749   3.676  0.2986  0.3290 -1.1014
  135CHL1    C816190   7.163   2.889   3.748  0.4746  0.2714 -0.5242
  135CHL1    H816191   7.052   2.895   3.750  0.4185  0.0699 -2.0817
  135CHL1   C1416192   7.211   2.865   3.881 -0.9571 -0.5580  0.5324
  135CHL1   H1416193   7.321   2.875   3.870 -1.0702  1.9343  1.0202
  135CHL1   C1516194   7.188   2.728   3.944 -0.3304  1.0260  0.3584
  135CHL1  H15A16195   7.080   2.705   3.933 -0.8391  2.4916  1.9355
  135CHL1  H15B16196   7.256   2.657   3.892 -1.1576  0.4472  0.0426
  135CHL1   C1616197   7.202   2.749   4.099  0.2480  0.6488  0.1933
  135CHL1  H16A16198   7.106   2.723   4.149 -0.5642  0.6670 -1.3133
  135CHL1  H16B16199   7.289   2.694   4.142 -0.6761 -1.2120 -0.2388
  135CHL1   C1716200   7.236   2.906   4.109  0.0782  0.6842  0.2846
  135CHL1   H1716201   7.345   2.923   4.104  0.0338  1.0525  0.4708
  135CHL1   C1316202   7.178   2.977   3.981  0.3710 -0.4495  0.8009
  135CHL1   C1816203   7.028   2.998   4.000  0.7526 -0.2583 -0.5992
  135CHL1  H18A16204   6.986   3.039   3.906 -2.2139 -0.7214  0.4230
  135CHL1  H18B16205   6.975   2.904   4.025  0.1117  0.4955  1.0400
  135CHL1  H18C16206   7.011   3.084   4.069  0.4450 -0.4645 -0.4165
  135CHL1   C1216207   7.241   3.106   3.932  0.1239 -0.5225 -0.4720
  135CHL1  H12A16208   7.216   3.194   3.996  2.1413  1.6120 -2.4380
  135CHL1  H12B16209   7.351   3.094   3.945 -0.3315 -2.2700  3.3577
  135CHL1   C1116210   7.209   3.149   3.791 -0.2252  0.4475 -0.2062
  135CHL1  H11A16211   7.121   3.217   3.793  1.1086  2.2454  1.3772
  135CHL1  H11B16212   7.293   3.215   3.761 -1.5879  1.3361 -2.3555
  135CHL1    C916213   7.217   3.025   3.696  0.2727  0.5869  0.1301
  135CHL1    H916214   7.324   3.000   3.682 -0.2793 -1.6358 -0.4021
  135CHL1   C1016215   7.161   3.060   3.556  0.0424 -0.2527  0.2382
  135CHL1   C1916216   7.010   3.100   3.578  0.2497  0.3978  0.3579
  135CHL1  H19A16217   6.998   3.197   3.631  0.5015 -0.4117  1.9425
  135CHL1  H19B16218   6.982   3.124   3.473 -1.0470 -1.7602  0.1542
  135CHL1  H19C16219   6.937   3.023   3.611  0.2004 -0.1514 -0.9607
  135CHL1    C116220   7.240   3.179   3.497 -0.3872 -0.1759  0.1391
  135CHL1   H1A16221   7.208   3.271   3.550 -3.9192 -0.0199 -1.9833
  135CHL1   H1B16222   7.346   3.155   3.521 -0.1536  0.4505 -0.2496
  135CHL1    C216223   7.229   3.211   3.342  0.3568  0.7468  0.1266
  135CHL1   H2A16224   7.317   3.275   3.318  0.2981  0.8188  0.1023
  135CHL1   H2B16225   7.127   3.251   3.324  0.0243 -0.6006 -1.1613
  135CHL1   C2016226   7.189   2.966   4.246 -1.1469  0.4212 -0.0449
  135CHL1   H2016227   7.078   2.968   4.245 -1.1897 -0.3663 -2.3813
  135CHL1   C2116228   7.235   3.115   4.267  0.5865  0.4413 -0.2109
  135CHL1  H21A16229   7.344   3.109   4.250  0.5782 -1.2124  0.1519
  135CHL1  H21B16230   7.215   3.153   4.369 -1.4610 -0.8386 -0.0782
  135CHL1  H21C16231   7.193   3.175   4.183  0.2555 -0.1010 -0.4401
  135CHL1   C2216232   7.236   2.886   4.365  0.0190  0.4966 -0.7947
  135CHL1  H22A16233   7.202   2.925   4.463 -0.6156  0.7641 -1.1109
  135CHL1  H22B16234   7.191   2.786   4.353  0.0008  0.4241 -0.1179
  135CHL1   C2316235   7.390   2.869   4.376  0.2183 -0.6183 -0.2327
  135CHL1  H23A16236   7.434   2.837   4.279  0.6489  0.9962 -0.5891
  135CHL1  H23B16237   7.426   2.973   4.391 -3.0613  0.6036 -0.0524
  135CHL1   C2416238   7.433   2.758   4.475 -0.1827  0.5677  0.7034
  135CHL1  H24A16239   7.410   2.786   4.580 -0.6133 -3.7863  1.9956
  135CHL1  H24B16240   7.385   2.661   4.450  0.9755  0.3951 -1.0163
  135CHL1   C2516241   7.591   2.726   4.478 -0.2041  0.2924 -0.4988
  135CHL1   H2516242   7.606   2.657   4.563  0.4268  2.6080  1.3826
  135CHL1   C2616243   7.635   2.657   4.357  0.8867 -0.7280  0.0555
  135CHL1  H26A16244   7.577   2.562   4.349 -0.4124 -0.0314  0.8850
  135CHL1  H26B16245   7.620   2.710   4.261 -0.7854  0.1012  0.7317
  135CHL1  H26C16246   7.742   2.628   4.361  0.8982 -0.5619  1.0919
  135CHL1   C2716247   7.664   2.864   4.507  0.3736  1.0904 -0.3506
  135CHL1  H27A16248   7.621   2.923   4.590 -2.5200  3.8529 -3.5029
  135CHL1  H27B16249   7.774   2.861   4.520  0.3502  0.7844 -0.2157
  135CHL1  H27C16250   7.649   2.935   4.422  1.5339  0.8214 -0.8047
  136CHL1    C316251   5.628   1.069   3.210  0.1955  0.2386  1.1072
  136CHL1    H316252   5.727   1.112   3.235 -0.2720  1.4660  0.9044
  136CHL1    O316253   5.602   1.050   3.070 -0.2636 -0.5627 -0.5988
  136CHL1   H3'16254   5.511   1.018   3.068 -0.6306  0.4348 -0.6931
  136CHL1    C416255   5.605   0.936   3.280 -0.9883 -0.7888  0.6431
  136CHL1   H4A16256   5.511   0.888   3.247 -2.0242  0.5558  1.5095
  136CHL1   H4B16257   5.686   0.869   3.245 -0.0768  1.1472 -1.2057
  136CHL1    C516258   5.619   0.963   3.425  0.0789 -0.0666 -0.5501
  136CHL1    C616259   5.710   0.895   3.500  0.4560  0.8539  0.0748
  136CHL1    H616260   5.768   0.815   3.451 -0.0877  1.1898 -1.1443
  136CHL1    C716261   5.737   0.925   3.643  1.3323  0.0124  0.2038
  136CHL1   H7A16262   5.762   0.834   3.701  1.7126  1.1979  1.9850
  136CHL1   H7B16263   5.830   0.986   3.649  0.7820  0.9321 -0.3683
  136CHL1    C816264   5.611   0.983   3.711 -0.2409  0.3307 -0.3438
  136CHL1    H816265   5.533   0.904   3.712  0.5175 -0.5549 -2.8549
  136CHL1   C1416266   5.668   1.031   3.846 -0.0722 -0.0216  0.0079
  136CHL1   H1416267   5.754   1.097   3.822  2.5222 -2.4890  1.9169
  136CHL1   C1516268   5.724   0.933   3.954 -0.3605 -0.1138  0.0978
  136CHL1  H15A16269   5.679   0.831   3.951  0.1665 -0.3337 -0.5610
  136CHL1  H15B16270   5.833   0.918   3.946 -0.1150  0.4045  1.9959
  136CHL1   C1616271   5.704   0.997   4.092 -0.0901  0.0826  0.2878
  136CHL1  H16A16272   5.647   0.929   4.159 -1.2172 -1.6395 -2.2835
  136CHL1  H16B16273   5.795   1.014   4.153  0.3395 -0.3672 -0.2158
  136CHL1   C1716274   5.641   1.132   4.057  0.5088  0.1929 -0.2966
  136CHL1   H1716275   5.730   1.196   4.040 -0.2964  1.6471  0.7241
  136CHL1   C1316276   5.565   1.111   3.924  0.4368 -0.6604 -0.4601
  136CHL1   C1816277   5.444   1.022   3.950 -0.5589 -0.5393 -0.6028
  136CHL1  H18A16278   5.356   1.067   4.000 -0.5088 -1.3405  0.2407
  136CHL1  H18B16279   5.399   1.001   3.850 -0.2312  1.2229 -1.1414
  136CHL1  H18C16280   5.462   0.928   4.007  0.6590  1.3107  2.3156
  136CHL1   C1216281   5.525   1.235   3.852  0.1764  0.1339  0.0460
  136CHL1  H12A16282   5.451   1.299   3.904 -0.1261  0.3439 -0.6364
  136CHL1  H12B16283   5.613   1.301   3.832 -0.4183  0.4884 -1.5697
  136CHL1   C1116284   5.464   1.203   3.710  0.0186  0.0360 -0.1962
  136CHL1  H11A16285   5.360   1.165   3.722  0.3891 -0.1528  3.6686
  136CHL1  H11B16286   5.471   1.293   3.646  2.9390  0.3421  0.4127
  136CHL1    C916287   5.568   1.108   3.634 -0.8230  0.3102 -0.0094
  136CHL1    H916288   5.660   1.169   3.631 -2.0301  2.3591 -4.1826
  136CHL1   C1016289   5.530   1.076   3.486  0.6246  0.5212 -0.1475
  136CHL1   C1916290   5.380   1.028   3.488 -0.2484 -0.5120  0.2890
  136CHL1  H19A16291   5.352   1.010   3.382  1.4269 -1.3363 -0.0412
  136CHL1  H19B16292   5.355   0.942   3.553 -0.8052 -0.6682 -0.1214
  136CHL1  H19C16293   5.311   1.105   3.530 -0.1242  0.1447 -0.6782
  136CHL1    C116294   5.557   1.204   3.403 -0.7652  0.7453  0.2222
  136CHL1   H1A16295   5.501   1.289   3.448 -1.6745 -1.3219  3.2977
  136CHL1   H1B16296   5.662   1.235   3.423 -1.0880 -0.0628  4.0835
  136CHL1    C216297   5.536   1.185   3.255 -0.2220 -0.3362  0.7218
  136CHL1   H2A16298   5.564   1.276   3.198 -1.4059 -0.5033 -0.1653
  136CHL1   H2B16299   5.429   1.162   3.236 -0.5785  1.2668  0.6453
  136CHL1   C2016300   5.557   1.201   4.164  0.0678 -0.3195 -0.8517
  136CHL1   H2016301   5.450   1.183   4.143 -0.2177 -1.4663  1.3545
  136CHL1   C2116302   5.612   1.339   4.165 -0.1156 -0.0183  0.3807
  136CHL1  H21A16303   5.543   1.408   4.218 -0.4225  0.9110 -1.1525
  136CHL1  H21B16304   5.606   1.382   4.063 -0.1712  0.2446  0.4922
  136CHL1  H21C16305   5.713   1.355   4.209 -0.2732 -2.3738  1.7632
  136CHL1   C2216306   5.577   1.140   4.305  0.4089  0.3647  0.1687
  136CHL1  H22A16307   5.551   1.032   4.296 -1.2012  0.7511 -0.1475
  136CHL1  H22B16308   5.679   1.150   4.347  0.3954  0.2348  0.2338
  136CHL1   C2316309   5.489   1.214   4.408  0.2018  0.6683  0.2768
  136CHL1  H23A16310   5.523   1.317   4.429  0.1290  1.2281 -2.0355
  136CHL1  H23B16311   5.390   1.227   4.359  0.0977 -1.8134 -0.3444
  136CHL1   C2416312   5.481   1.145   4.543 -0.7735  0.4594  0.3575
  136CHL1  H24A16313   5.415   1.058   4.519  0.0374  0.4691 -2.0819
  136CHL1  H24B16314   5.580   1.117   4.586  0.5928  2.4922 -1.2943
  136CHL1   C2516315   5.415   1.223   4.658 -0.3455 -0.7369  0.2232
  136CHL1   H2516316   5.493   1.290   4.700 -2.4881  0.5520  2.4592
  136CHL1   C2616317   5.301   1.308   4.609 -0.4418 -0.4064 -0.0112
  136CHL1  H26A16318   5.337   1.395   4.551  0.2395 -0.6253  0.0739
  136CHL1  H26B16319   5.233   1.240   4.552 -1.3079 -0.8658  1.5007
  136CHL1  H26C16320   5.244   1.347   4.697 -0.7934 -0.8691 -0.0250
  136CHL1   C2716321   5.366   1.122   4.769 -0.5359  0.2734  0.1988
  136CHL1  H27A16322   5.297   1.043   4.733  2.0059 -1.8359 -0.3349
  136CHL1  H27B16323   5.454   1.062   4.798  0.3821  2.2014  1.6314
  136CHL1  H27C16324   5.328   1.167   4.864  1.3875  0.4945  0.9063
  137CHL1    C316325   0.489   1.412   3.358  0.0205  0.5225 -0.4263
  137CHL1    H316326   0.561   1.496   3.363  0.0362  0.6285 -1.9138
  137CHL1    O316327   0.447   1.387   3.223  0.1377  1.4631 -0.1334
  137CHL1   H3'16328   0.443   1.291   3.220  3.2908  1.2268 -3.6164
  137CHL1    C416329   0.564   1.286   3.410  0.1005 -1.2325 -0.5691
  137CHL1   H4A16330   0.500   1.196   3.399  0.7602 -2.2242  2.7084
  137CHL1   H4B16331   0.661   1.272   3.358  0.1587  0.7227 -1.0920
  137CHL1    C516332   0.598   1.300   3.562 -0.1460 -0.1487 -0.2282
  137CHL1    C616333   0.730   1.297   3.596  0.0524  0.2545 -0.2518
  137CHL1    H616334   0.808   1.275   3.522  0.5331  1.6641 -0.1968
  137CHL1    C716335   0.774   1.286   3.744 -0.0005 -0.4304  0.5359
  137CHL1   H7A16336   0.855   1.211   3.757  0.8255  0.2469 -0.6021
  137CHL1   H7B16337   0.828   1.380   3.770  1.2190 -1.2828  1.1667
  137CHL1    C816338   0.655   1.254   3.837 -0.6487  0.7039 -0.5215
  137CHL1    H816339   0.624   1.152   3.807  0.4011  1.0139 -2.8639
  137CHL1   C1416340   0.705   1.267   3.981 -0.7669  0.2031  0.0923
  137CHL1   H1416341   0.745   1.370   3.976 -0.6297  0.0822 -2.9652
  137CHL1   C1516342   0.824   1.178   4.019  0.0680  0.2284  0.5492
  137CHL1  H15A16343   0.821   1.076   3.976  0.6428 -0.1107  1.2915
  137CHL1  H15B16344   0.918   1.224   3.983  0.9126 -2.1021 -0.3552
  137CHL1   C1616345   0.816   1.172   4.169  0.2754 -0.4878 -0.6574
  137CHL1  H16A16346   0.804   1.069   4.209  0.9174 -0.5657 -0.6537
  137CHL1  H16B16347   0.905   1.225   4.209 -0.7156 -0.4323  1.6856
  137CHL1   C1716348   0.685   1.249   4.209  0.1041 -0.2525  0.1454
  137CHL1   H1716349   0.718   1.355   4.214 -0.5972  0.0281 -0.8466
  137CHL1   C1316350   0.594   1.245   4.082  0.3129 -0.2549 -0.4801
  137CHL1   C1816351   0.528   1.099   4.073 -0.2763 -0.1206  0.0909
  137CHL1  H18A16352   0.474   1.076   3.979  1.3364  1.4023 -1.2675
  137CHL1  H18B16353   0.605   1.019   4.076 -2.2809 -2.1990 -0.5274
  137CHL1  H18C16354   0.459   1.083   4.159  0.8735  0.7114  1.1956
  137CHL1   C1216355   0.482   1.352   4.061 -0.2285 -0.4155 -0.1192
  137CHL1  H12A16356   0.400   1.326   4.130  2.0299 -1.0906  2.4773
  137CHL1  H12B16357   0.518   1.455   4.083  1.1745 -0.6442 -1.1761
  137CHL1   C1116358   0.420   1.342   3.911 -0.0495  0.4549  0.5892
  137CHL1  H11A16359   0.357   1.251   3.913  2.3258 -1.4275 -2.7401
  137CHL1  H11B16360   0.345   1.424   3.899 -1.7929 -1.2273 -0.6965
  137CHL1    C916361   0.533   1.344   3.799 -0.7698  0.1168 -0.2547
  137CHL1    H916362   0.563   1.451   3.801 -0.1144 -0.0776  1.5436
  137CHL1   C1016363   0.478   1.321   3.651 -0.8265  1.0021  0.2242
  137CHL1   C1916364   0.391   1.193   3.657  0.6068 -0.1222  0.6519
  137CHL1  H19A16365   0.306   1.219   3.724  0.5516 -1.0697  0.9749
  137CHL1  H19B16366   0.348   1.162   3.559 -0.0989  1.0346  0.5748
  137CHL1  H19C16367   0.443   1.105   3.700 -0.5572 -0.6323  1.0747
  137CHL1    C116368   0.397   1.436   3.595  0.1619 -0.8627 -0.2925
  137CHL1   H1A16369   0.306   1.458   3.654  1.5737  3.3429  0.6166
  137CHL1   H1B16370   0.451   1.528   3.625 -0.8904 -0.4105  0.2421
  137CHL1    C216371   0.364   1.437   3.445  0.6513 -0.4146 -0.6584
  137CHL1   H2A16372   0.305   1.529   3.424  0.8766  0.0231  0.5414
  137CHL1   H2B16373   0.290   1.357   3.424  0.7470 -0.0573 -2.5856
  137CHL1   C2016374   0.625   1.210   4.346 -0.1571 -0.2323 -0.6334
  137CHL1   H2016375   0.606   1.103   4.322  0.7905 -0.0936 -2.1731
  137CHL1   C2116376   0.498   1.291   4.370  0.0523  0.3716 -0.5217
  137CHL1  H21A16377   0.461   1.268   4.472 -1.9895  2.7871 -0.6252
  137CHL1  H21B16378   0.409   1.263   4.311 -0.9175 -0.6700  1.3312
  137CHL1  H21C16379   0.516   1.400   4.359  2.1762  0.2245  0.8344
  137CHL1   C2216380   0.723   1.203   4.465 -0.1840  0.2883 -0.8128
  137CHL1  H22A16381   0.666   1.185   4.559  1.4737  0.4919  0.2753
  137CHL1  H22B16382   0.795   1.119   4.473  0.8822  1.3110  1.3184
  137CHL1   C2316383   0.812   1.325   4.490  0.4725  0.4150 -0.0493
  137CHL1  H23A16384   0.876   1.344   4.402  0.4696  3.9640  0.5922
  137CHL1  H23B16385   0.744   1.413   4.502 -1.9108 -1.5679  2.6414
  137CHL1   C2416386   0.900   1.314   4.618 -0.0477  0.1830 -0.3574
  137CHL1  H24A16387   0.967   1.226   4.615  4.3428  2.9881  3.2945
  137CHL1  H24B16388   0.970   1.401   4.614  1.3175 -0.7075  2.0633
  137CHL1   C2516389   0.815   1.321   4.746 -1.1006  0.2492 -0.0891
  137CHL1   H2516390   0.751   1.230   4.752  0.5174 -1.2358 -3.0372
  137CHL1   C2616391   0.889   1.321   4.880  0.3071  0.6890 -0.0832
  137CHL1  H26A16392   0.955   1.409   4.897  1.5267 -0.3202  0.5445
  137CHL1  H26B16393   0.822   1.310   4.967  1.2636  0.0441  0.5828
  137CHL1  H26C16394   0.944   1.225   4.875  0.5998  0.8364  0.3022
  137CHL1   C2716395   0.720   1.448   4.753  0.1446 -0.2839  0.3243
  137CHL1  H27A16396   0.660   1.478   4.665 -1.2242  2.0621  1.9300
  137CHL1  H27B16397   0.658   1.442   4.845  1.0719 -1.4196  0.8975
  137CHL1  H27C16398   0.785   1.537   4.768  0.5913 -0.2394 -1.6608
  138CHL1    C316399   6.397   1.771   3.253 -0.3379 -0.0416  0.2934
  138CHL1    H316400   6.428   1.876   3.275 -0.2798 -0.3230  1.6273
  138CHL1    O316401   6.381   1.757   3.111 -0.2541 -0.2317  0.4273
  138CHL1   H3'16402   6.286   1.750   3.098 -0.0085 -0.1712 -1.8614
  138CHL1    C416403   6.510   1.665   3.297 -0.7909  0.3500 -0.3780
  138CHL1   H4A16404   6.503   1.559   3.263  0.7305 -0.5064  1.7323
  138CHL1   H4B16405   6.601   1.710   3.250 -0.9778 -0.8005 -1.9472
  138CHL1    C516406   6.525   1.662   3.447 -0.0327 -0.3312  0.5449
  138CHL1    C616407   6.646   1.685   3.503 -0.3293  0.7096  0.0527
  138CHL1    H616408   6.729   1.703   3.433 -0.1457  1.9751  0.5705
  138CHL1    C716409   6.680   1.698   3.652 -0.5014 -0.3316 -0.0142
  138CHL1   H7A16410   6.765   1.629   3.673 -0.4483 -0.3383 -0.2492
  138CHL1   H7B16411   6.716   1.800   3.675  2.2069 -1.3770  0.7669
  138CHL1    C816412   6.559   1.651   3.741 -1.5694 -0.7269  0.1485
  138CHL1    H816413   6.565   1.540   3.738  2.5333 -0.6565 -1.2467
  138CHL1   C1416414   6.574   1.694   3.881 -0.5063  0.2790 -0.5192
  138CHL1   H1416415   6.558   1.804   3.880 -0.3440  0.3187  0.3259
  138CHL1   C1516416   6.710   1.669   3.948 -0.5558 -0.2731  0.0792
  138CHL1  H15A16417   6.738   1.566   3.919 -1.4110 -0.9313  1.5014
  138CHL1  H15B16418   6.796   1.735   3.923 -0.7333  0.0894  0.4064
  138CHL1   C1616419   6.677   1.690   4.098  0.1627  0.5186 -0.1366
  138CHL1  H16A16420   6.719   1.601   4.150 -0.1523  0.7666  0.5524
  138CHL1  H16B16421   6.734   1.777   4.137 -0.7966  0.3814  1.6736
  138CHL1   C1716422   6.522   1.688   4.112 -0.1206  0.1872 -0.2561
  138CHL1   H1716423   6.494   1.795   4.118 -1.5274 -0.0264 -1.9799
  138CHL1   C1316424   6.471   1.641   3.978 -0.2544  0.7375  0.0951
  138CHL1   C1816425   6.486   1.482   3.982  0.3080 -0.2553  0.6406
  138CHL1  H18A16426   6.578   1.429   4.015  0.9154  0.8202  0.7058
  138CHL1  H18B16427   6.402   1.440   4.041  0.1152 -0.6236  0.1156
  138CHL1  H18C16428   6.457   1.437   3.884 -2.4589  0.6073  0.9911
  138CHL1   C1216429   6.334   1.688   3.936  0.0028  0.4310 -0.0184
  138CHL1  H12A16430   6.249   1.652   3.997  0.0500  1.3960  0.6388
  138CHL1  H12B16431   6.337   1.796   3.959 -1.8035  0.5947 -0.4129
  138CHL1   C1116432   6.309   1.670   3.786  0.8413 -0.6422  0.3067
  138CHL1  H11A16433   6.264   1.569   3.779 -2.1545  0.4407  1.9147
  138CHL1  H11B16434   6.222   1.733   3.758  1.1964 -0.2016  0.1846
  138CHL1    C916435   6.420   1.702   3.690 -0.7179 -0.4169  0.2960
  138CHL1    H916436   6.425   1.813   3.688  0.1986 -0.4489 -1.0135
  138CHL1   C1016437   6.399   1.654   3.537  0.1636  0.3015 -0.1170
  138CHL1   C1916438   6.347   1.512   3.526 -0.2899  0.0139 -0.2312
  138CHL1  H19A16439   6.249   1.509   3.579 -0.5347  2.2661 -0.4572
  138CHL1  H19B16440   6.332   1.489   3.418  0.2442 -0.0644 -0.2931
  138CHL1  H19C16441   6.403   1.440   3.589  0.6590  1.2080  0.3490
  138CHL1    C116442   6.287   1.749   3.480 -0.0308  0.0481  0.4577
  138CHL1   H1A16443   6.195   1.725   3.537  1.5788  0.6143  3.5161
  138CHL1   H1B16444   6.310   1.857   3.491 -0.8658  0.3251 -0.4874
  138CHL1    C216445   6.264   1.736   3.329 -0.8771 -0.1940 -0.2002
  138CHL1   H2A16446   6.185   1.809   3.299 -0.8809 -0.0239  0.2158
  138CHL1   H2B16447   6.229   1.635   3.299 -0.0075 -0.5046 -0.1923
  138CHL1   C2016448   6.474   1.621   4.243  0.0153 -0.0708 -0.0729
  138CHL1   H2016449   6.501   1.514   4.231 -1.8551 -0.5100 -0.7014
  138CHL1   C2116450   6.318   1.641   4.261  1.2859  0.5553 -0.3113
  138CHL1  H21A16451   6.290   1.619   4.366  1.3045  0.2283 -0.3739
  138CHL1  H21B16452   6.261   1.589   4.181  0.2878  0.9455  0.1271
  138CHL1  H21C16453   6.295   1.750   4.260 -0.2427  0.3126  2.0742
  138CHL1   C2216454   6.559   1.682   4.361 -0.4376 -0.3604  0.9420
  138CHL1  H22A16455   6.667   1.657   4.351 -0.0659  1.5747 -0.3170
  138CHL1  H22B16456   6.549   1.792   4.357  2.1973 -0.0952 -0.0638
  138CHL1   C2316457   6.509   1.645   4.501  0.0637  0.1153 -0.5114
  138CHL1  H23A16458   6.415   1.704   4.513  0.8606  1.5673 -1.0898
  138CHL1  H23B16459   6.478   1.539   4.504  0.6708 -0.0387  1.3883
  138CHL1   C2416460   6.616   1.661   4.612  0.1840  0.5185  0.5545
  138CHL1  H24A16461   6.690   1.579   4.601 -1.7736 -1.2540 -0.0572
  138CHL1  H24B16462   6.671   1.757   4.598 -1.6147  1.7284  1.3388
  138CHL1   C2516463   6.565   1.672   4.756 -0.0757 -0.0741 -0.5105
  138CHL1   H2516464   6.493   1.588   4.762 -0.5323  0.2362 -1.3920
  138CHL1   C2616465   6.683   1.645   4.854 -0.0983 -0.3977 -0.3623
  138CHL1  H26A16466   6.748   1.736   4.858  0.7234 -0.8657 -1.9963
  138CHL1  H26B16467   6.640   1.623   4.953  0.1263 -0.2300 -0.2246
  138CHL1  H26C16468   6.739   1.557   4.814 -0.3040  0.0255 -1.6394
  138CHL1   C2716469   6.490   1.799   4.801 -0.7655 -0.1815  0.6942
  138CHL1  H27A16470   6.565   1.879   4.815  1.4145 -1.4533 -2.5962
  138CHL1  H27B16471   6.415   1.822   4.722  1.1446  0.6443 -0.9381
  138CHL1  H27C16472   6.450   1.780   4.904  2.5078 -2.9885  1.6457
  139CHL1    C316473   0.368   6.298   3.360 -0.9004 -0.7255 -0.3581
  139CHL1    H316474   0.263   6.262   3.359 -0.4157 -2.4550  2.0577
  139CHL1    O316475   0.427   6.322   3.236  0.1096 -0.1319 -0.1187
  139CHL1   H3'16476   0.438   6.240   3.188 -1.3588 -0.6196  0.3080
  139CHL1    C416477   0.380   6.434   3.438  0.4406 -0.2527  1.0661
  139CHL1   H4A16478   0.483   6.475   3.445  0.4149 -0.0829  0.4984
  139CHL1   H4B16479   0.320   6.512   3.386  0.1711 -0.1756  1.4888
  139CHL1    C516480   0.323   6.417   3.578  0.4006 -0.8048  0.0504
  139CHL1    C616481   0.220   6.500   3.621 -0.7334  0.8830 -0.3258
  139CHL1    H616482   0.175   6.579   3.560 -1.8916 -1.0395 -2.0726
  139CHL1    C716483   0.174   6.490   3.767  0.3438  0.2407  0.5646
  139CHL1   H7A16484   0.157   6.596   3.796  0.9819  0.0879  1.5582
  139CHL1   H7B16485   0.079   6.433   3.780  1.7680 -2.1906  0.9659
  139CHL1    C816486   0.277   6.430   3.855 -0.5295  0.7170 -0.6195
  139CHL1    H816487   0.373   6.485   3.866  0.1520 -0.7639  1.4559
  139CHL1   C1416488   0.222   6.415   3.995  0.3899  0.5712  0.2536
  139CHL1   H1416489   0.124   6.368   3.976 -0.3434  2.7712 -1.8624
  139CHL1   C1516490   0.167   6.538   4.074 -0.2481  0.4851  0.3018
  139CHL1  H15A16491   0.237   6.623   4.054 -1.4694  1.7621  1.2662
  139CHL1  H15B16492   0.061   6.561   4.051 -0.2369 -0.0154 -0.2597
  139CHL1   C1616493   0.169   6.494   4.220 -0.0583  0.4737  1.2668
  139CHL1  H16A16494   0.238   6.562   4.275  0.9178 -0.7928  1.6643
  139CHL1  H16B16495   0.066   6.493   4.261 -1.7259 -1.5801 -2.4293
  139CHL1   C1716496   0.225   6.349   4.221  0.1799  0.0756 -0.8747
  139CHL1   H1716497   0.139   6.278   4.213 -1.7083  2.3077 -1.4218
  139CHL1   C1316498   0.305   6.335   4.090  0.1497  0.5929  0.1789
  139CHL1   C1816499   0.439   6.412   4.120 -0.7047 -0.6052 -0.4697
  139CHL1  H18A16500   0.413   6.518   4.140  0.1327 -0.6165  0.8366
  139CHL1  H18B16501   0.490   6.371   4.210  1.3040  1.1520 -0.7353
  139CHL1  H18C16502   0.507   6.413   4.032 -0.7559 -0.3054 -0.5060
  139CHL1   C1216503   0.319   6.191   4.033 -0.1980 -0.1086  0.1923
  139CHL1  H12A16504   0.377   6.131   4.106  0.5742  2.3505  1.7358
  139CHL1  H12B16505   0.217   6.146   4.030 -0.1426 -0.2396  0.2746
  139CHL1   C1116506   0.383   6.187   3.897 -0.0772 -0.1868  0.3063
  139CHL1  H11A16507   0.488   6.215   3.917 -0.2147  0.0356  0.7513
  139CHL1  H11B16508   0.373   6.087   3.850 -0.9828  0.1358 -0.2269
  139CHL1    C916509   0.312   6.288   3.796  0.9924 -1.0443 -0.5709
  139CHL1    H916510   0.215   6.238   3.777 -0.8235  1.0240  2.4242
  139CHL1   C1016511   0.391   6.302   3.666 -0.1422  0.4164  0.1886
  139CHL1   C1916512   0.541   6.335   3.691 -0.4605  0.4505 -0.2088
  139CHL1  H19A16513   0.554   6.422   3.759  1.5604 -0.1207  0.1967
  139CHL1  H19B16514   0.596   6.248   3.732 -0.7443  0.8868  1.1509
  139CHL1  H19C16515   0.596   6.356   3.597 -1.6624 -2.1393 -1.6117
  139CHL1    C116516   0.396   6.177   3.579  0.4984  0.0540  0.4763
  139CHL1   H1A16517   0.451   6.098   3.633  0.3555  0.7933  1.7597
  139CHL1   H1B16518   0.288   6.152   3.568 -1.3347  5.2831  2.8490
  139CHL1    C216519   0.450   6.195   3.438  0.0047  0.3100  0.7044
  139CHL1   H2A16520   0.449   6.096   3.388  0.1427  0.1379  1.0462
  139CHL1   H2B16521   0.556   6.227   3.431 -0.2473  0.8986 -0.9257
  139CHL1   C2016522   0.293   6.311   4.354 -0.2481  0.1672 -0.6852
  139CHL1   H2016523   0.382   6.378   4.362  0.5023 -0.9179  0.3657
  139CHL1   C2116524   0.335   6.161   4.354  0.8062  0.2343 -0.5405
  139CHL1  H21A16525   0.427   6.152   4.293  1.2598 -2.0449  0.3967
  139CHL1  H21B16526   0.264   6.087   4.311  1.2029 -1.1688  1.1158
  139CHL1  H21C16527   0.367   6.131   4.456 -0.1946  1.5752  0.2077
  139CHL1   C2216528   0.212   6.346   4.480 -0.3046  0.0870 -0.8979
  139CHL1  H22A16529   0.194   6.456   4.475 -0.7872  0.0169 -0.7981
  139CHL1  H22B16530   0.113   6.296   4.479  0.1242 -1.1493  2.7133
  139CHL1   C2316531   0.258   6.303   4.619 -0.7358  0.3844  0.7034
  139CHL1  H23A16532   0.253   6.192   4.617 -1.2811  0.4049 -0.7561
  139CHL1  H23B16533   0.363   6.333   4.639 -0.5490  1.3101 -1.3627
  139CHL1   C2416534   0.171   6.347   4.737  0.4122 -0.2346 -0.9822
  139CHL1  H24A16535   0.171   6.458   4.740 -1.1743 -0.2371  0.3151
  139CHL1  H24B16536   0.067   6.309   4.730  0.0705  0.1758  1.3048
  139CHL1   C2516537   0.223   6.285   4.872  0.1008  0.2219 -0.5989
  139CHL1   H2516538   0.239   6.176   4.859 -1.4863 -0.3451  1.6915
  139CHL1   C2616539   0.349   6.357   4.916  0.2186 -0.1315 -0.4643
  139CHL1  H26A16540   0.312   6.444   4.974  1.3156  0.6102 -0.8517
  139CHL1  H26B16541   0.414   6.296   4.983  0.7005 -1.3027 -1.9268
  139CHL1  H26C16542   0.421   6.398   4.841 -1.6210  0.6159 -1.8909
  139CHL1   C2716543   0.111   6.290   4.974  0.6695  0.1494  0.2769
  139CHL1  H27A16544   0.141   6.232   5.064  0.3576 -0.7741 -0.1921
  139CHL1  H27B16545   0.089   6.392   5.010  1.6669 -0.6759  3.5038
  139CHL1  H27C16546   0.014   6.254   4.931  0.9669 -0.6031  0.2232
  140CHL1    C316547   7.422   0.355   3.209 -0.1139  0.2422 -0.4014
  140CHL1    H316548   7.386   0.256   3.242 -0.3449  0.4599  0.0106
  140CHL1    O316549   7.415   0.360   3.070  0.2020 -0.1478 -0.1493
  140CHL1   H3'16550   7.447   0.449   3.054 -0.8925  0.2091 -0.4738
  140CHL1    C416551   7.326   0.465   3.254 -0.3243 -0.0463  0.0562
  140CHL1   H4A16552   7.360   0.564   3.216  0.3672 -0.5862 -0.7928
  140CHL1   H4B16553   7.224   0.453   3.213 -0.1356 -0.6927 -0.2493
  140CHL1    C516554   7.312   0.469   3.405 -0.0573  0.1469 -0.1543
  140CHL1    C616555   7.197   0.472   3.467 -0.3533 -0.6720 -0.3854
  140CHL1    H616556   7.099   0.477   3.417 -1.0471  1.0645  1.0310
  140CHL1    C716557   7.182   0.474   3.617  0.3068 -0.5763 -0.2590
  140CHL1   H7A16558   7.111   0.555   3.643  1.9417  1.1936 -1.0625
  140CHL1   H7B16559   7.130   0.377   3.632 -2.2016  0.5691 -0.9772
  140CHL1    C816560   7.309   0.505   3.698 -0.5491  0.9223 -0.1565
  140CHL1    H816561   7.323   0.615   3.706  1.4532  0.6527  0.3737
  140CHL1   C1416562   7.292   0.465   3.844 -0.2096  0.1022 -0.2608
  140CHL1   H1416563   7.273   0.356   3.854 -3.0027  0.7249  3.9238
  140CHL1   C1516564   7.178   0.528   3.928 -0.0514  0.2411 -0.1159
  140CHL1  H15A16565   7.163   0.633   3.895 -0.0522  0.2645 -0.0403
  140CHL1  H15B16566   7.085   0.470   3.905 -0.7567  0.9389  0.9181
  140CHL1   C1616567   7.226   0.517   4.072 -0.1239  0.4011 -0.1577
  140CHL1  H16A16568   7.231   0.620   4.114 -0.3769  0.8372 -1.1469
  140CHL1  H16B16569   7.148   0.459   4.126  0.7496  0.5484  1.3128
  140CHL1   C1716570   7.364   0.458   4.065 -0.2484  0.0007 -0.1464
  140CHL1   H1716571   7.351   0.348   4.054 -1.9556  0.2950 -1.4106
  140CHL1   C1316572   7.422   0.490   3.926 -0.4419 -0.3065  0.3967
  140CHL1   C1816573   7.461   0.636   3.926  0.0867 -0.3344 -0.4709
  140CHL1  H18A16574   7.391   0.704   3.980 -0.4121 -3.3124  3.0535
  140CHL1  H18B16575   7.552   0.657   3.986 -0.4979 -2.5947  1.3584
  140CHL1  H18C16576   7.484   0.669   3.823  1.7185  0.1150  0.0065
  140CHL1   C1216577   7.533   0.398   3.876 -0.3407  0.1608  0.2152
  140CHL1  H12A16578   7.632   0.415   3.923  0.6183  1.1653 -2.0048
  140CHL1  H12B16579   7.503   0.292   3.889  0.2248 -0.3592 -2.1546
  140CHL1   C1116580   7.552   0.437   3.728 -0.5156  0.7438 -0.6575
  140CHL1  H11A16581   7.610   0.532   3.729  2.9702 -1.2008  1.2996
  140CHL1  H11B16582   7.622   0.360   3.688  0.1397  0.7074  0.5112
  140CHL1    C916583   7.422   0.429   3.636 -0.7065  0.0793  0.1622
  140CHL1    H916584   7.408   0.318   3.638 -3.1005  0.3443  0.1588
  140CHL1   C1016585   7.448   0.474   3.487 -0.2008 -0.0435 -0.1835
  140CHL1   C1916586   7.497   0.616   3.489  0.1053  0.3547  0.5201
  140CHL1  H19A16587   7.508   0.651   3.384  0.0919 -1.2669 -0.0478
  140CHL1  H19B16588   7.438   0.699   3.534  0.4916  1.5812 -1.1148
  140CHL1  H19C16589   7.601   0.622   3.527  1.2752  0.1709 -2.3579
  140CHL1    C116590   7.548   0.381   3.424  0.1626 -0.9841  0.0388
  140CHL1   H1A16591   7.651   0.401   3.460 -0.3262 -0.1937  1.0346
  140CHL1   H1B16592   7.531   0.276   3.458 -2.2386 -0.9357 -0.7924
  140CHL1    C216593   7.563   0.384   3.268 -0.4991  0.3231 -0.0377
  140CHL1   H2A16594   7.637   0.304   3.246 -1.4646 -0.5364 -0.2252
  140CHL1   H2B16595   7.605   0.478   3.226  0.9888 -0.2927 -0.0101
  140CHL1   C2016596   7.455   0.462   4.194 -0.1740  0.9157 -0.7008
  140CHL1   H2016597   7.394   0.410   4.271  2.0912 -1.2806 -0.2566
  140CHL1   C2116598   7.474   0.598   4.251 -0.4453 -0.3234 -0.6746
  140CHL1  H21A16599   7.376   0.644   4.274 -0.7658 -1.9008  1.4053
  140CHL1  H21B16600   7.537   0.655   4.179  1.5424 -1.5140  0.0111
  140CHL1  H21C16601   7.528   0.581   4.347  2.4318  1.8531 -1.7552
  140CHL1   C2216602   7.584   0.378   4.189 -0.4101  0.2972 -0.4965
  140CHL1  H22A16603   7.562   0.288   4.128 -1.2911 -0.4594  0.8622
  140CHL1  H22B16604   7.662   0.435   4.136  0.4417 -0.0703  0.3357
  140CHL1   C2316605   7.646   0.354   4.328  0.6114  1.0822 -0.0483
  140CHL1  H23A16606   7.733   0.285   4.318  1.2192  1.4777  2.0165
  140CHL1  H23B16607   7.693   0.440   4.380  0.9396  0.1350  1.2842
  140CHL1   C2416608   7.557   0.274   4.426  0.4672  0.0725  0.0329
  140CHL1  H24A16609   7.465   0.329   4.455 -0.4219 -1.4650  0.2544
  140CHL1  H24B16610   7.535   0.175   4.379 -1.8203 -0.5833  2.2282
  140CHL1   C2516611   7.625   0.242   4.563  0.3249 -0.5371  0.7609
  140CHL1   H2516612   7.712   0.182   4.529 -0.7972 -0.7514 -1.9903
  140CHL1   C2616613   7.529   0.166   4.664 -0.9039  0.1583  0.5287
  140CHL1  H26A16614   7.593   0.128   4.747 -1.2829  0.6134  1.0393
  140CHL1  H26B16615   7.442   0.230   4.690 -1.5648 -1.4405  2.5710
  140CHL1  H26C16616   7.497   0.077   4.605  2.4615  1.0008 -2.9990
  140CHL1   C2716617   7.664   0.370   4.645 -0.5455 -0.3991  0.3538
  140CHL1  H27A16618   7.717   0.336   4.737  0.0987  1.5840  0.7596
  140CHL1  H27B16619   7.719   0.447   4.587 -2.0190  1.0678  0.8180
  140CHL1  H27C16620   7.569   0.415   4.682 -0.6787 -0.1127 -0.3237
  141DOPC     N16621   3.418   3.640   7.273 -0.0314 -0.4362 -0.1346
  141DOPC   C1216622   3.304   3.659   7.180 -0.0551  0.3896 -0.3040
  141DOPC  H12A16623   3.326   3.736   7.108  0.8474  0.0862 -0.3605
  141DOPC  H12B16624   3.224   3.698   7.241 -0.6391  0.7177 -1.2604
  141DOPC   C1316625   3.384   3.542   7.387  0.9456 -0.6428  0.5747
  141DOPC  H13A16626   3.478   3.530   7.438  2.7656 -2.0046 -2.7887
  141DOPC  H13B16627   3.300   3.580   7.443 -0.0296 -0.1993 -1.1275
  141DOPC  H13C16628   3.357   3.446   7.344 -0.4345 -0.8241  1.7647
  141DOPC   C1416629   3.455   3.774   7.337  0.2004 -0.9496 -0.4856
  141DOPC  H14A16630   3.485   3.854   7.272  0.2306 -1.2159 -0.8029
  141DOPC  H14B16631   3.370   3.821   7.384  1.0644  0.3829 -0.2001
  141DOPC  H14C16632   3.532   3.755   7.410  0.0527  0.2351  0.0002
  141DOPC   C1516633   3.538   3.590   7.198 -0.4977 -0.4339 -0.7773
  141DOPC  H15A16634   3.623   3.609   7.261  0.5518 -2.2225 -1.5582
  141DOPC  H15B16635   3.553   3.643   7.105  2.5110  0.0538 -0.1407
  141DOPC  H15C16636   3.531   3.484   7.176 -2.8373 -0.1610 -1.5833
  141DOPC   C1116637   3.252   3.537   7.104  0.0935  0.0803  0.5415
  141DOPC  H11A16638   3.207   3.470   7.180 -0.7653  1.9632  1.7765
  141DOPC  H11B16639   3.164   3.560   7.041  0.0203 -2.1913 -0.2946
  141DOPC     P16640   3.368   3.507   6.871 -0.1081 -0.1488 -0.2023
  141DOPC   O1316641   3.461   3.408   6.809  0.2000 -0.4050  0.5272
  141DOPC   O1416642   3.417   3.646   6.870 -0.2067 -0.0865  0.0833
  141DOPC   O1216643   3.349   3.470   7.023  0.1299 -0.5445  0.1504
  141DOPC   O1116644   3.229   3.499   6.807  0.5371  0.7282  0.1936
  141DOPC    C116645   3.154   3.376   6.784  0.0527 -0.2595  0.1503
  141DOPC    HA16646   3.055   3.389   6.832 -0.0291  2.7219 -0.6059
  141DOPC    HB16647   3.206   3.291   6.831 -0.4278 -0.1660  0.8560
  141DOPC    C216648   3.127   3.348   6.631 -0.1231  0.0961 -0.1819
  141DOPC    HS16649   3.055   3.263   6.635 -0.7910  0.6936  1.6092
  141DOPC   O2116650   3.249   3.317   6.557  0.1797  0.6486  0.3577
  141DOPC   C2116651   3.302   3.204   6.577  0.9259  0.6925  0.3639
  141DOPC   O2216652   3.266   3.118   6.654  0.2543 -0.0692 -0.4996
  141DOPC   C2216653   3.425   3.187   6.494 -0.3005 -0.1328  0.4967
  141DOPC   H2R16654   3.498   3.123   6.548  1.3845  0.1813 -1.2852
  141DOPC   H2S16655   3.472   3.285   6.474  2.0045 -1.3424 -0.4122
  141DOPC    C316656   3.068   3.471   6.561  0.1869 -0.1988 -0.0182
  141DOPC    HX16657   3.149   3.547   6.569  0.2532 -0.4495  2.7400
  141DOPC    HY16658   2.986   3.511   6.625 -1.3624 -3.5019  0.3015
  141DOPC   O3116659   3.019   3.432   6.430 -0.2364 -0.4930  0.0093
  141DOPC   C3116660   2.978   3.528   6.341  0.7981 -0.0358 -0.3829
  141DOPC   O3216661   2.967   3.646   6.366 -0.0581  0.1566 -0.2271
  141DOPC   C3216662   2.946   3.461   6.205  0.2855 -0.4766  0.7067
  141DOPC   H2X16663   3.026   3.386   6.190  0.0488 -0.5281 -0.4099
  141DOPC   H2Y16664   2.842   3.424   6.217 -0.5887  0.9536 -1.8773
  141DOPC   C2316665   3.405   3.113   6.356 -0.4669  1.0203 -0.0596
  141DOPC   H3R16666   3.358   3.176   6.277  0.6160  0.4840 -1.1601
  141DOPC   H3S16667   3.351   3.017   6.375  2.2188 -0.2108  2.1422
  141DOPC   C2416668   3.540   3.070   6.291  0.3735 -0.1364  0.1602
  141DOPC   H4R16669   3.592   2.999   6.359 -1.1969 -1.0247  0.4758
  141DOPC   H4S16670   3.598   3.161   6.267 -0.3468  0.2855 -0.0095
  141DOPC   C2516671   3.524   2.989   6.156  0.6785  0.5249 -1.0398
  141DOPC   H5R16672   3.483   3.058   6.079  0.3878  0.8940 -0.5569
  141DOPC   H5S16673   3.447   2.913   6.179  0.3071  0.9217 -0.9655
  141DOPC   C2616674   3.653   2.919   6.103  0.6167  0.3915  0.1282
  141DOPC   H6R16675   3.628   2.862   6.011 -0.6010 -0.1600  0.7818
  141DOPC   H6S16676   3.682   2.844   6.180  2.0154 -0.0270 -0.7580
  141DOPC   C2716677   3.767   3.013   6.083  0.5224  0.1392  0.1277
  141DOPC   H7R16678   3.862   2.966   6.048 -0.1679 -1.2329  0.0569
  141DOPC   H7S16679   3.787   3.064   6.180  1.7424 -1.8737  1.0042
  141DOPC   C2816680   3.725   3.126   5.983  0.1358  0.5464  0.0801
  141DOPC   H8R16681   3.808   3.198   5.967  0.9848 -0.7142 -1.4406
  141DOPC   H8S16682   3.639   3.191   6.009 -0.4857  0.2291 -1.1130
  141DOPC   C2916683   3.706   3.060   5.845  0.6203 -0.3809  0.0301
  141DOPC   H9R16684   3.781   2.983   5.822  1.2244 -0.9043  3.3103
  141DOPC  C21016685   3.609   3.083   5.754  0.3305 -0.7939  0.3037
  141DOPC  H10R16686   3.617   3.024   5.662  1.6778 -1.5901  0.9085
  141DOPC  C21116687   3.493   3.184   5.771 -0.4644 -0.1735  0.3478
  141DOPC  H11R16688   3.475   3.222   5.668  1.2378  0.6862  0.3259
  141DOPC  H11S16689   3.530   3.261   5.842  3.6921  1.4053 -3.0989
  141DOPC  C21216690   3.367   3.110   5.809 -0.2645  0.0179 -0.0559
  141DOPC  H12R16691   3.303   3.196   5.839 -2.7492 -1.2250 -1.5026
  141DOPC  H12S16692   3.378   3.043   5.897  0.9746  2.1300  1.5135
  141DOPC  C21316693   3.292   3.033   5.703 -0.6193 -1.0517  0.2046
  141DOPC  H13R16694   3.369   3.029   5.624 -1.2217  1.3189 -0.6018
  141DOPC  H13S16695   3.218   3.108   5.667 -0.0901  0.2368  1.6565
  141DOPC  C21416696   3.230   2.899   5.738 -0.6973  0.3736 -0.6484
  141DOPC  H14R16697   3.302   2.831   5.789  0.0064  1.3223 -0.3477
  141DOPC  H14S16698   3.203   2.843   5.646  3.6750  0.0248 -1.9300
  141DOPC  C21516699   3.111   2.917   5.827 -0.8208 -0.1100  0.7615
  141DOPC  H15R16700   3.037   2.986   5.781  0.5979 -0.6211 -2.5465
  141DOPC  H15S16701   3.149   2.954   5.925 -0.1397 -1.6937  1.1251
  141DOPC  C21616702   3.024   2.797   5.854  0.3977  0.3214 -0.5978
  141DOPC  H16R16703   2.977   2.773   5.757  2.3616  1.8080 -1.9841
  141DOPC  H16S16704   2.946   2.819   5.930  0.6624 -0.4934 -0.0719
  141DOPC  C21716705   3.098   2.670   5.901  0.5287 -0.4085  0.2950
  141DOPC  H17R16706   3.150   2.635   5.809 -0.2986 -2.8157  0.6557
  141DOPC  H17S16707   3.023   2.590   5.922  2.2947 -1.8383  1.4775
  141DOPC  C21816708   3.193   2.677   6.019  0.1225 -0.2404  0.6658
  141DOPC  H18R16709   3.260   2.765   6.019  0.5004 -0.5219  0.3621
  141DOPC  H18S16710   3.258   2.586   6.019  0.8415  0.0754 -3.9403
  141DOPC  H18T16711   3.132   2.677   6.112  0.0846  0.6511  0.6440
  141DOPC   C3316712   2.963   3.563   6.091  0.3960  0.2743  1.0423
  141DOPC   H3X16713   3.071   3.589   6.079 -0.0517  1.7886  0.0007
  141DOPC   H3Y16714   2.910   3.658   6.115 -1.7156 -0.9408  1.4657
  141DOPC   C3416715   2.911   3.511   5.956 -0.2405  0.6203 -0.1044
  141DOPC   H4X16716   2.805   3.480   5.969 -0.3171  0.1779 -1.6239
  141DOPC   H4Y16717   2.960   3.413   5.941 -1.0161  0.2214 -0.0957
  141DOPC   C3516718   2.935   3.602   5.834 -0.1584 -0.0847  0.3898
  141DOPC   H5X16719   2.865   3.688   5.836 -0.4305 -0.3014  0.2638
  141DOPC   H5Y16720   2.903   3.533   5.753  1.1602 -1.6844  1.1657
  141DOPC   C3616721   3.077   3.648   5.802 -0.0989  1.0523 -0.4915
  141DOPC   H6X16722   3.119   3.701   5.890 -1.8188 -0.7003  1.4895
  141DOPC   H6Y16723   3.144   3.561   5.788  2.6674  2.7985  1.0470
  141DOPC   C3716724   3.081   3.744   5.680 -0.0003  0.3368  0.0716
  141DOPC   H7X16725   3.035   3.692   5.593  1.5244 -1.3711  0.2232
  141DOPC   H7Y16726   3.013   3.827   5.711  1.2321  1.4374 -0.0736
  141DOPC   C3816727   3.222   3.786   5.635 -0.3164  0.2199  0.7622
  141DOPC   H8X16728   3.269   3.826   5.727  2.1409  2.5292 -1.3172
  141DOPC   H8Y16729   3.208   3.870   5.564  0.5576  0.5379  0.9521
  141DOPC   C3916730   3.311   3.679   5.576 -0.0299 -0.0115  0.5614
  141DOPC   H9X16731   3.320   3.589   5.638  1.9169  0.4977  1.0832
  141DOPC  C31016732   3.382   3.688   5.463 -0.1231 -0.4406 -0.5794
  141DOPC  H10X16733   3.435   3.597   5.431  2.5633 -0.6893  3.7098
  141DOPC  C31116734   3.394   3.809   5.370  0.5362 -0.0876  0.3033
  141DOPC  H11X16735   3.478   3.799   5.298 -0.2538 -3.3357 -0.3176
  141DOPC  H11Y16736   3.403   3.900   5.433  0.3038  0.0257  0.1765
  141DOPC  C31216737   3.276   3.821   5.273  0.5383 -0.2939  0.0499
  141DOPC  H12X16738   3.187   3.848   5.333  0.0240 -1.8098 -0.0041
  141DOPC  H12Y16739   3.280   3.731   5.209 -1.7413 -1.0934  0.9306
  141DOPC  C31316740   3.296   3.948   5.188  0.4383 -0.6669 -0.0988
  141DOPC  H13X16741   3.335   4.039   5.238 -0.6720  1.1664 -2.3977
  141DOPC  H13Y16742   3.363   3.928   5.102  0.5484  0.1335 -0.2071
  141DOPC  C31416743   3.163   3.981   5.119  0.4789 -0.4617 -0.4715
  141DOPC  H14X16744   3.167   3.941   5.016  1.6514 -2.6870  0.3779
  141DOPC  H14Y16745   3.071   3.945   5.171  0.0931 -0.3468 -1.0609
  141DOPC  C31516746   3.130   4.135   5.100  0.6051  0.6547 -0.0729
  141DOPC  H15X16747   3.212   4.199   5.060  0.9590 -0.1879 -0.7321
  141DOPC  H15Y16748   3.098   4.173   5.199 -0.4235 -0.6696  0.1368
  141DOPC  C31616749   3.001   4.156   5.006 -0.0430 -0.5849  0.1649
  141DOPC  H16X16750   3.030   4.141   4.900 -5.9372 -1.0243 -1.7829
  141DOPC  H16Y16751   2.925   4.076   5.021 -0.2981 -0.4727 -0.4943
  141DOPC  C31716752   2.946   4.294   5.020 -0.4355 -0.3493 -0.2922
  141DOPC  H17X16753   3.010   4.340   5.099 -0.0259  0.4688 -1.0747
  141DOPC  H17Y16754   2.954   4.351   4.925 -1.3126 -0.6719 -0.5645
  141DOPC  C31816755   2.799   4.289   5.063  0.2379  0.7389 -0.2356
  141DOPC  H18X16756   2.740   4.238   4.984 -0.4705  1.9867 -0.5298
  141DOPC  H18Y16757   2.793   4.237   5.161 -2.2736  0.1923 -0.6228
  141DOPC  H18Z16758   2.753   4.390   5.073 -1.9805 -0.1716 -0.7804
  142DOPC     N16759   4.982   3.209   7.445 -0.0993 -0.3133 -0.2574
  142DOPC   C1216760   4.990   3.061   7.405 -0.5566 -0.1796  1.0655
  142DOPC  H12A16761   4.901   3.042   7.347  0.5501 -1.2641 -0.3333
  142DOPC  H12B16762   4.989   2.997   7.492  1.2682 -2.4532 -0.4867
  142DOPC   C1316763   4.970   3.296   7.329 -0.2062 -1.0770  0.5159
  142DOPC  H13A16764   4.974   3.400   7.357 -2.5388 -0.8718  0.3392
  142DOPC  H13B16765   5.045   3.266   7.257  2.8147  0.3505  2.8636
  142DOPC  H13C16766   4.871   3.284   7.287 -0.5359  2.1021  0.2040
  142DOPC   C1416767   5.102   3.252   7.521 -0.1153  0.3289 -0.1845
  142DOPC  H14A16768   5.193   3.253   7.463  0.6587  1.1876  0.9754
  142DOPC  H14B16769   5.096   3.353   7.561 -0.9936  0.5871 -0.9341
  142DOPC  H14C16770   5.123   3.186   7.604  0.1534  0.1764 -0.3752
  142DOPC   C1516771   4.864   3.232   7.541 -0.9551  0.5874 -0.2353
  142DOPC  H15A16772   4.862   3.334   7.575  0.0019  0.2248  0.9699
  142DOPC  H15B16773   4.870   3.164   7.624 -0.0322 -1.2965 -1.7403
  142DOPC  H15C16774   4.769   3.220   7.491 -1.0243  0.0021  0.0301
  142DOPC   C1116775   5.114   3.025   7.327 -0.1153  0.7739  0.2639
  142DOPC  H11A16776   5.200   3.053   7.391  1.8180  0.5102 -2.0660
  142DOPC  H11B16777   5.120   2.914   7.320  1.5708  0.7982  0.8644
  142DOPC     P16778   5.018   3.052   7.074 -0.3316  0.2468  0.0521
  142DOPC   O1316779   5.060   3.115   6.943  0.4162 -0.4053 -0.4779
  142DOPC   O1416780   4.877   3.072   7.121 -0.3250  0.0896  0.2108
  142DOPC   O1216781   5.118   3.092   7.201  0.1184  0.4084 -0.3478
  142DOPC   O1116782   5.027   2.894   7.049  0.0198 -0.0430  0.3358
  142DOPC    C116783   5.148   2.826   7.043  0.6602  0.1506  0.5877
  142DOPC    HA16784   5.186   2.811   7.146  0.7344 -0.0742  0.5268
  142DOPC    HB16785   5.229   2.889   7.000  0.2483  0.0230 -0.3908
  142DOPC    C216786   5.144   2.689   6.968 -0.3709  0.5584 -0.0715
  142DOPC    HS16787   5.240   2.634   6.962 -1.5464 -1.9604  2.0546
  142DOPC   O2116788   5.084   2.705   6.837  0.0261 -0.3454 -0.5638
  142DOPC   C2116789   5.153   2.764   6.753  0.1624 -0.1540  0.0585
  142DOPC   O2216790   5.270   2.796   6.765 -0.1240  0.2984 -0.2277
  142DOPC   C2216791   5.076   2.776   6.625  0.3897  0.3939  0.0579
  142DOPC   H2R16792   4.976   2.822   6.637 -0.1241 -0.4362 -0.9430
  142DOPC   H2S16793   5.056   2.674   6.586  2.8658  0.4422 -1.6340
  142DOPC    C316794   5.071   2.582   7.055  0.1541 -0.2067  0.5616
  142DOPC    HX16795   4.984   2.636   7.098  0.7183  0.8868  0.3708
  142DOPC    HY16796   5.131   2.548   7.142  0.6729  1.1187  0.7505
  142DOPC   O3116797   5.039   2.466   6.974  0.0874  0.0668 -0.1714
  142DOPC   C3116798   4.919   2.452   6.931 -0.0269 -0.5170  0.8729
  142DOPC   O3216799   4.835   2.539   6.943  0.5503 -0.5874 -0.3136
  142DOPC   C3216800   4.903   2.314   6.859  0.2674 -0.7184 -1.0085
  142DOPC   H2X16801   5.006   2.274   6.853 -0.0268 -1.3587 -2.1462
  142DOPC   H2Y16802   4.851   2.251   6.934  3.5821 -0.5896  1.6111
  142DOPC   C2316803   5.147   2.854   6.517  0.1550 -0.1055 -0.3112
  142DOPC   H3R16804   5.242   2.802   6.492  0.9246  0.0221  2.0731
  142DOPC   H3S16805   5.153   2.959   6.553 -4.8554  0.0169  0.8538
  142DOPC   C2416806   5.063   2.863   6.391 -0.1474  0.6857  0.0072
  142DOPC   H4R16807   4.969   2.920   6.411 -0.9145 -0.1881 -0.9544
  142DOPC   H4S16808   5.028   2.762   6.359 -0.7238  0.6493  0.7157
  142DOPC   C2516809   5.136   2.935   6.273 -0.0633  0.0245 -0.2614
  142DOPC   H5R16810   5.239   2.896   6.256  0.2234  0.6839 -0.0731
  142DOPC   H5S16811   5.134   3.044   6.298  1.7786 -0.3205  1.6512
  142DOPC   C2616812   5.065   2.924   6.138  0.2112  0.1715 -0.4643
  142DOPC   H6R16813   4.957   2.950   6.139  0.6339  2.0364 -0.0838
  142DOPC   H6S16814   5.067   2.817   6.107 -2.1111 -0.3238  0.8520
  142DOPC   C2716815   5.141   3.008   6.031 -0.4918  0.3175 -0.1281
  142DOPC   H7R16816   5.170   3.100   6.086 -0.5627 -0.0470  0.5369
  142DOPC   H7S16817   5.068   3.020   5.948  0.6412  1.4500 -1.0004
  142DOPC   C2816818   5.265   2.936   5.972  0.3738  0.3045 -0.9377
  142DOPC   H8R16819   5.240   2.848   5.908  2.1999  1.4552 -3.3967
  142DOPC   H8S16820   5.327   2.899   6.057 -0.9630 -0.7646 -0.3762
  142DOPC   C2916821   5.345   3.037   5.886 -0.2591  1.1500 -0.2663
  142DOPC   H9R16822   5.384   3.122   5.944 -2.1426  1.0099  1.3031
  142DOPC  C21016823   5.377   3.021   5.752  0.4712 -0.5463 -0.0433
  142DOPC  H10R16824   5.417   3.109   5.700 -0.5999  0.4724  0.7833
  142DOPC  C21116825   5.339   2.895   5.672  0.2167  0.0556 -0.2324
  142DOPC  H11R16826   5.260   2.836   5.723  0.9645  0.8605  2.0215
  142DOPC  H11S16827   5.435   2.838   5.675  0.4602  0.4797  0.8612
  142DOPC  C21216828   5.307   2.898   5.526  0.5906 -0.2161 -0.0558
  142DOPC  H12R16829   5.212   2.954   5.516 -0.1072 -1.2370  0.7331
  142DOPC  H12S16830   5.278   2.797   5.492  1.0118  0.2606 -1.9396
  142DOPC  C21316831   5.407   2.959   5.436 -0.2506  0.5638  0.1992
  142DOPC  H13R16832   5.503   2.905   5.453 -0.1876  0.1864 -1.1742
  142DOPC  H13S16833   5.422   3.068   5.447 -1.2754  0.9082 -1.4430
  142DOPC  C21416834   5.384   2.938   5.287  0.4646  0.4709  0.0689
  142DOPC  H14R16835   5.370   2.828   5.278 -1.2069  0.6737 -0.0600
  142DOPC  H14S16836   5.479   2.964   5.235 -0.0741  0.6914 -0.8196
  142DOPC  C21516837   5.259   3.003   5.222 -0.3923  0.1773 -0.1963
  142DOPC  H15R16838   5.287   3.111   5.226  0.4988 -0.0903  1.4044
  142DOPC  H15S16839   5.174   2.995   5.294 -0.2810  1.6961  0.1322
  142DOPC  C21616840   5.229   2.949   5.083 -0.0944 -0.6656  0.0206
  142DOPC  H16R16841   5.216   2.838   5.081  0.6796 -0.7844 -2.6712
  142DOPC  H16S16842   5.303   2.980   5.006 -0.6673 -2.9615 -1.5762
  142DOPC  C21716843   5.103   3.006   5.022  0.4985 -0.4713 -0.3435
  142DOPC  H17R16844   5.025   2.990   5.101 -0.1128  0.3782 -0.7641
  142DOPC  H17S16845   5.074   2.952   4.930 -0.1866 -2.1689  0.8019
  142DOPC  C21816846   5.115   3.155   4.999 -0.1720 -0.3964 -1.2248
  142DOPC  H18R16847   5.190   3.177   4.920  1.7732  1.2521  0.9292
  142DOPC  H18S16848   5.150   3.207   5.091 -0.2422  0.4428 -1.6605
  142DOPC  H18T16849   5.020   3.206   4.973 -1.1863 -1.0926  0.8740
  142DOPC   C3316850   4.817   2.320   6.729  0.0157 -0.0042 -0.0645
  142DOPC   H3X16851   4.719   2.361   6.762  0.5143  0.5471  0.7803
  142DOPC   H3Y16852   4.804   2.224   6.675 -0.2760  1.6252 -3.0995
  142DOPC   C3416853   4.894   2.386   6.613 -0.4411 -0.1978  0.5753
  142DOPC   H4X16854   4.970   2.316   6.574 -1.4821 -0.5924 -0.7945
  142DOPC   H4Y16855   4.947   2.476   6.650 -0.5748  1.5428 -3.0601
  142DOPC   C3516856   4.814   2.423   6.489 -0.6983 -0.0129 -0.6241
  142DOPC   H5X16857   4.746   2.502   6.528 -0.1151 -0.3963  1.2946
  142DOPC   H5Y16858   4.765   2.334   6.443  1.1032 -0.5676 -1.5460
  142DOPC   C3616859   4.898   2.472   6.371 -0.4779 -0.7806  0.4436
  142DOPC   H6X16860   4.958   2.562   6.395 -1.7559  0.7074 -1.6338
  142DOPC   H6Y16861   4.971   2.393   6.340  1.9566  1.2847  0.6072
  142DOPC   C3716862   4.803   2.526   6.265  0.3260 -0.4105  0.3267
  142DOPC   H7X16863   4.725   2.449   6.247  2.2423 -2.4964  0.3920
  142DOPC   H7Y16864   4.755   2.619   6.301  0.4313  0.2650 -1.2104
  142DOPC   C3816865   4.868   2.575   6.130  0.2293 -0.3997 -0.4848
  142DOPC   H8X16866   4.972   2.609   6.151  0.6065 -1.0393 -1.2472
  142DOPC   H8Y16867   4.808   2.657   6.085  0.8743  0.6821  0.5706
  142DOPC   C3916868   4.879   2.459   6.038  0.1317  0.1636  0.1955
  142DOPC   H9X16869   4.855   2.357   6.073 -0.3233 -0.0020 -0.5663
  142DOPC  C31016870   4.932   2.468   5.913 -0.6811 -0.2059 -0.3812
  142DOPC  H10X16871   4.926   2.383   5.843 -1.0227  0.0790 -0.7003
  142DOPC  C31116872   4.985   2.599   5.853 -0.4743 -0.2398 -0.2348
  142DOPC  H11X16873   5.093   2.600   5.828 -0.6824  0.5824 -1.1705
  142DOPC  H11Y16874   4.972   2.693   5.911 -1.7130 -0.8094  0.4501
  142DOPC  C31216875   4.912   2.626   5.725  0.2351  0.1551  1.3624
  142DOPC  H12X16876   4.802   2.629   5.735  0.0404 -2.7445  0.8710
  142DOPC  H12Y16877   4.944   2.539   5.664 -2.1914 -0.6670  1.1896
  142DOPC  C31316878   4.960   2.758   5.660 -0.5307  0.0175  0.6253
  142DOPC  H13X16879   4.972   2.837   5.736  1.1461 -0.0599  0.4862
  142DOPC  H13Y16880   5.062   2.746   5.616 -1.6374 -1.1632 -1.8471
  142DOPC  C31416881   4.858   2.816   5.554  0.2135  0.1901 -0.3634
  142DOPC  H14X16882   4.752   2.811   5.589  0.3393  2.0613  0.3985
  142DOPC  H14Y16883   4.874   2.923   5.531  0.7488  0.5720  1.5504
  142DOPC  C31516884   4.868   2.734   5.432 -0.4271  0.1166  0.3956
  142DOPC  H15X16885   4.857   2.624   5.443  2.3158 -0.1238  1.5882
  142DOPC  H15Y16886   4.974   2.739   5.397 -0.6318  1.0220 -0.1260
  142DOPC  C31616887   4.782   2.772   5.309  0.6703  0.1893 -0.9020
  142DOPC  H16X16888   4.676   2.753   5.337  0.2273  3.0827 -0.2692
  142DOPC  H16Y16889   4.799   2.879   5.285  1.3851  0.7942  1.9534
  142DOPC  C31716890   4.806   2.701   5.170  1.0658 -0.0196  0.3001
  142DOPC  H17X16891   4.761   2.600   5.179 -0.2981  0.1651 -3.1035
  142DOPC  H17Y16892   4.753   2.765   5.096  0.9523 -0.0123  0.3885
  142DOPC  C31816893   4.957   2.683   5.129  0.5331 -0.1186  0.0556
  142DOPC  H18X16894   5.007   2.782   5.118  0.6503 -0.3978 -2.5122
  142DOPC  H18Y16895   5.008   2.612   5.197  2.3304  1.3241  0.3088
  142DOPC  H18Z16896   4.960   2.632   5.031 -1.2051 -0.8063  0.3402
  143DOPC     N16897   2.050   4.442   6.960  0.5457  0.7334  0.4321
  143DOPC   C1216898   2.191   4.425   6.998 -0.0750 -0.2749  0.0363
  143DOPC  H12A16899   2.199   4.409   7.104  2.1159 -1.1657 -0.2182
  143DOPC  H12B16900   2.240   4.520   6.981 -1.2264  0.7343  2.0807
  143DOPC   C1316901   2.038   4.481   6.813  0.2718  0.1426 -0.2497
  143DOPC  H13A16902   2.094   4.412   6.752 -2.3987 -0.6213 -1.9881
  143DOPC  H13B16903   1.935   4.482   6.780 -0.2473 -2.7901  1.0199
  143DOPC  H13C16904   2.076   4.583   6.812 -2.7078  1.3660 -1.4592
  143DOPC   C1416905   1.988   4.547   7.048 -0.5004  0.2798 -0.5618
  143DOPC  H14A16906   2.044   4.639   7.045  0.6284 -0.3206  0.6394
  143DOPC  H14B16907   1.886   4.574   7.026 -0.1393  4.4886  1.8167
  143DOPC  H14C16908   1.992   4.516   7.152 -0.1150  1.9221 -0.0633
  143DOPC   C1516909   1.976   4.310   6.982  0.4071 -0.1809 -0.5211
  143DOPC  H15A16910   1.994   4.235   6.906  0.3923  0.1984 -0.8999
  143DOPC  H15B16911   1.869   4.324   6.970  0.4933  0.4818 -0.5186
  143DOPC  H15C16912   1.993   4.263   7.078  0.7613 -0.3102 -0.6450
  143DOPC   C1116913   2.267   4.304   6.929 -0.3698 -0.3628 -0.7395
  143DOPC  H11A16914   2.363   4.280   6.980 -0.1473 -1.6352 -1.7080
  143DOPC  H11B16915   2.205   4.212   6.925 -0.9098 -0.0907  0.8436
  143DOPC     P16916   2.424   4.430   6.776  0.1711 -0.1344  0.1683
  143DOPC   O1316917   2.544   4.367   6.836  0.7867  0.0465  0.4029
  143DOPC   O1416918   2.395   4.573   6.827  0.5468 -0.0592  0.4244
  143DOPC   O1216919   2.299   4.339   6.798 -1.0474  0.3946 -0.1094
  143DOPC   O1116920   2.429   4.434   6.620 -0.1769 -0.3426 -0.3485
  143DOPC    C116921   2.403   4.561   6.551 -0.5331  0.5313 -0.0015
  143DOPC    HA16922   2.449   4.550   6.450 -0.7057 -2.6190  0.1761
  143DOPC    HB16923   2.452   4.644   6.607 -0.2659 -0.9049  2.0016
  143DOPC    C216924   2.251   4.584   6.520  0.4719  0.2185 -1.1417
  143DOPC    HS16925   2.197   4.603   6.616  0.0168  2.4208 -1.7614
  143DOPC   O2116926   2.190   4.467   6.467  0.3989  0.4866  0.5516
  143DOPC   C2116927   2.054   4.454   6.468 -0.2369 -0.2008  0.9809
  143DOPC   O2216928   1.974   4.536   6.510 -0.1838  0.4183 -0.5402
  143DOPC   C2216929   2.008   4.317   6.417  0.1877 -0.0402 -0.0072
  143DOPC   H2R16930   1.983   4.259   6.508 -0.0477 -1.1556 -0.7691
  143DOPC   H2S16931   2.079   4.259   6.354 -0.2716  1.1911 -1.7321
  143DOPC    C316932   2.226   4.714   6.433 -0.5362 -0.1771 -0.1747
  143DOPC    HX16933   2.240   4.797   6.505  0.5617 -3.2090  3.4608
  143DOPC    HY16934   2.117   4.717   6.413 -0.3919  1.0770 -0.8656
  143DOPC   O3116935   2.321   4.725   6.324  0.3046 -0.1382  0.4804
  143DOPC   C3116936   2.300   4.645   6.217  0.7979  0.0201  0.2653
  143DOPC   O3216937   2.214   4.560   6.209 -0.0214  0.1961 -0.2454
  143DOPC   C3216938   2.389   4.695   6.105  0.3412 -0.3786  0.3500
  143DOPC   H2X16939   2.368   4.801   6.077  2.2051 -0.1261 -0.2053
  143DOPC   H2Y16940   2.493   4.686   6.141  0.5809  2.7223  0.6855
  143DOPC   C2316941   1.874   4.335   6.337 -0.6393  0.1328 -0.3948
  143DOPC   H3R16942   1.805   4.405   6.388 -0.7571  0.1880 -0.6264
  143DOPC   H3S16943   1.822   4.237   6.335  0.6580 -0.6096  0.7097
  143DOPC   C2416944   1.908   4.370   6.191 -0.3100  0.1274  0.5195
  143DOPC   H4R16945   1.984   4.292   6.169  1.0615  1.6799 -0.5361
  143DOPC   H4S16946   1.950   4.473   6.189 -2.6217  1.1269  0.5782
  143DOPC   C2516947   1.793   4.360   6.084  0.3316  0.5577  0.1498
  143DOPC   H5R16948   1.703   4.318   6.134  1.1068 -1.6539 -0.1752
  143DOPC   H5S16949   1.823   4.296   5.999  0.1753 -0.7175  1.0230
  143DOPC   C2616950   1.743   4.496   6.033  0.2663 -0.2778 -0.3990
  143DOPC   H6R16951   1.706   4.575   6.100  0.2016 -0.4416 -0.2423
  143DOPC   H6S16952   1.658   4.474   5.965  0.5874  0.4365 -1.0558
  143DOPC   C2716953   1.851   4.568   5.945  0.4509  0.3170  0.0338
  143DOPC   H7R16954   1.950   4.574   5.996  0.6032  1.4816 -0.3524
  143DOPC   H7S16955   1.819   4.672   5.922  0.9121  0.3246 -0.6244
  143DOPC   C2816956   1.889   4.496   5.815  0.3860 -0.4551 -0.1143
  143DOPC   H8R16957   1.790   4.494   5.765  0.9162  0.9052 -1.2995
  143DOPC   H8S16958   1.914   4.390   5.839  1.1124  0.0047  1.2419
  143DOPC   C2916959   1.982   4.573   5.720  1.2966 -0.0104 -0.2336
  143DOPC   H9R16960   1.972   4.683   5.714 -0.7350 -0.0622  1.1443
  143DOPC  C21016961   2.089   4.520   5.660  0.0800 -0.1405  0.5310
  143DOPC  H10R16962   2.150   4.575   5.587 -1.2842 -0.9371 -1.2992
  143DOPC  C21116963   2.139   4.376   5.662 -0.4380 -0.0263 -0.1031
  143DOPC  H11R16964   2.058   4.301   5.669 -0.5729  0.0492 -0.7495
  143DOPC  H11S16965   2.204   4.373   5.752  1.5585  0.5536 -1.4454
  143DOPC  C21216966   2.232   4.334   5.542 -0.7378 -0.1872 -0.2117
  143DOPC  H12R16967   2.181   4.335   5.443 -1.0066 -2.9505 -0.1741
  143DOPC  H12S16968   2.267   4.232   5.571 -0.9881  0.1284  1.2887
  143DOPC  C21316969   2.362   4.423   5.525  0.0606 -0.2669  0.4869
  143DOPC  H13R16970   2.424   4.426   5.618  0.5016 -0.3904  0.2020
  143DOPC  H13S16971   2.326   4.525   5.500  2.3567  0.1657 -1.4480
  143DOPC  C21416972   2.451   4.364   5.411 -1.0284 -0.5314 -0.1554
  143DOPC  H14R16973   2.383   4.369   5.324  0.0942 -1.7957 -1.1664
  143DOPC  H14S16974   2.482   4.259   5.430  1.5315  0.1863  0.0922
  143DOPC  C21516975   2.579   4.444   5.379 -0.4168  0.6007 -0.6180
  143DOPC  H15R16976   2.551   4.546   5.346 -1.3522  0.1462 -1.2786
  143DOPC  H15S16977   2.632   4.393   5.296  0.2243 -0.3301  0.3309
  143DOPC  C21616978   2.675   4.453   5.499  0.2533  0.0478  0.3427
  143DOPC  H16R16979   2.714   4.352   5.523 -1.1059 -0.5496  0.0932
  143DOPC  H16S16980   2.618   4.491   5.587 -1.0328  1.3528 -0.9993
  143DOPC  C21716981   2.797   4.546   5.481  0.6586 -0.3879 -0.3224
  143DOPC  H17R16982   2.775   4.654   5.483  1.0957 -0.2955 -0.4609
  143DOPC  H17S16983   2.826   4.535   5.375 -0.2216 -0.9742 -0.5094
  143DOPC  C21816984   2.916   4.505   5.573  0.2143 -0.6020  0.6519
  143DOPC  H18R16985   3.004   4.567   5.548 -0.7368  0.5512  0.1064
  143DOPC  H18S16986   2.945   4.398   5.565  1.5746 -0.2742  1.0173
  143DOPC  H18T16987   2.895   4.514   5.682  0.4960  1.7223  0.5603
  143DOPC   C3316988   2.360   4.612   5.978  0.0547 -0.6038  0.4622
  143DOPC   H3X16989   2.253   4.616   5.948  0.4399 -0.3098 -0.9659
  143DOPC   H3Y16990   2.377   4.502   5.983  1.3183 -0.5135 -1.0423
  143DOPC   C3416991   2.434   4.651   5.849 -0.6882 -0.2666 -0.5543
  143DOPC   H4X16992   2.449   4.566   5.780 -0.6421  0.0058 -0.8834
  143DOPC   H4Y16993   2.534   4.691   5.877 -0.2911 -1.7713  0.3038
  143DOPC   C3516994   2.362   4.762   5.769 -0.0975 -0.3704  0.1760
  143DOPC   H5X16995   2.318   4.840   5.834  0.1719  0.8569 -1.0810
  143DOPC   H5Y16996   2.278   4.720   5.711  1.9719 -0.8030 -2.7640
  143DOPC   C3616997   2.454   4.833   5.676 -0.2690 -0.1916  0.0562
  143DOPC   H6X16998   2.535   4.884   5.733 -0.9840  1.3011 -0.2251
  143DOPC   H6Y16999   2.504   4.753   5.617  0.7040  0.6449 -0.2836
  143DOPC   C3717000   2.393   4.941   5.590 -0.1725  0.5231 -0.5769
  143DOPC   H7X17001   2.307   4.893   5.539  0.5224 -0.7120 -0.6398
  143DOPC   H7Y17002   2.352   5.019   5.657 -3.4511 -0.1685 -1.6168
  143DOPC   C3817003   2.481   5.011   5.485 -0.3584 -0.2225  0.2444
  143DOPC   H8X17004   2.561   5.064   5.542 -1.5810 -0.6216  2.4677
  143DOPC   H8Y17005   2.415   5.088   5.442  0.2419 -0.0411 -0.3687
  143DOPC   C3917006   2.533   4.928   5.368  0.4360 -0.3598  0.4981
  143DOPC   H9X17007   2.625   4.870   5.377  1.5787  1.3208  0.2512
  143DOPC  C31017008   2.481   4.939   5.242 -0.0573  0.0058 -0.6025
  143DOPC  H10X17009   2.527   4.878   5.163  0.9866 -0.3224  0.2203
  143DOPC  C31117010   2.367   5.024   5.197 -0.7956 -0.6262  0.6040
  143DOPC  H11X17011   2.318   5.087   5.274 -1.6927 -1.8509  1.0686
  143DOPC  H11Y17012   2.288   4.964   5.145  1.0731 -1.5411 -1.3584
  143DOPC  C31217013   2.421   5.128   5.099  0.3676  0.3654  0.2625
  143DOPC  H12X17014   2.505   5.182   5.147  0.0221  1.6257 -0.5069
  143DOPC  H12Y17015   2.342   5.200   5.071  0.1779  0.0208 -0.0988
  143DOPC  C31317016   2.472   5.063   4.965  0.3630  0.7400  0.6105
  143DOPC  H13X17017   2.529   4.971   4.991 -0.7482 -0.2740 -0.3986
  143DOPC  H13Y17018   2.390   5.031   4.898 -2.0393  3.7030  1.9136
  143DOPC  C31417019   2.553   5.170   4.887 -0.3044  0.0923 -0.4756
  143DOPC  H14X17020   2.487   5.256   4.861 -2.0564 -0.3339  2.1176
  143DOPC  H14Y17021   2.624   5.217   4.958  0.8363 -1.9170 -0.2057
  143DOPC  C31517022   2.626   5.103   4.776  0.0108 -0.5470  0.6052
  143DOPC  H15X17023   2.552   5.076   4.698  0.0348  0.0675  0.3675
  143DOPC  H15Y17024   2.672   5.010   4.816  1.7686 -0.6059 -1.3832
  143DOPC  C31617025   2.742   5.179   4.711  0.1855 -0.3748 -0.5329
  143DOPC  H16X17026   2.691   5.259   4.653  1.4883  0.0973 -1.0787
  143DOPC  H16Y17027   2.798   5.242   4.784 -2.5573  0.3392  1.1180
  143DOPC  C31717028   2.829   5.100   4.625  0.3843 -0.0446  0.2593
  143DOPC  H17X17029   2.779   5.011   4.582  1.8041 -0.0404 -1.5168
  143DOPC  H17Y17030   2.867   5.153   4.535 -0.5039 -0.6341 -0.4773
  143DOPC  C31817031   2.946   5.049   4.708  0.0944  0.0710  0.0403
  143DOPC  H18X17032   2.987   5.131   4.771  0.2186  0.3602 -0.4201
  143DOPC  H18Y17033   2.916   4.968   4.779  2.8034 -0.2393  0.9514
  143DOPC  H18Z17034   3.029   5.011   4.645 -1.2326  1.2555 -2.5576
  144DOPC     N17035   2.758   2.838   7.509 -0.1277 -0.1236  0.6231
  144DOPC   C1217036   2.679   2.865   7.383 -0.1553  0.2297  0.2800
  144DOPC  H12A17037   2.629   2.960   7.393  0.2646  0.3634  1.1833
  144DOPC  H12B17038   2.607   2.786   7.365 -1.3348  1.5152 -1.0363
  144DOPC   C1317039   2.888   2.922   7.516  0.6591 -0.3179  0.1007
  144DOPC  H13A17040   2.858   3.025   7.526 -0.5299 -0.3455 -2.3245
  144DOPC  H13B17041   2.951   2.882   7.593  1.5685 -2.0303 -1.4564
  144DOPC  H13C17042   2.944   2.906   7.424  3.2216  2.8407  0.9118
  144DOPC   C1417043   2.804   2.692   7.503  0.1214 -0.8946 -0.4723
  144DOPC  H14A17044   2.883   2.671   7.574  0.4139  0.8121 -0.2530
  144DOPC  H14B17045   2.717   2.630   7.519 -0.0547 -0.7184 -0.7499
  144DOPC  H14C17046   2.844   2.673   7.404  0.7224 -1.6146 -0.1039
  144DOPC   C1517047   2.670   2.864   7.630 -0.9341 -0.5533  0.0775
  144DOPC  H15A17048   2.722   2.834   7.720 -1.3240 -0.5385  0.3088
  144DOPC  H15B17049   2.583   2.802   7.625 -0.9791 -0.4214 -3.8144
  144DOPC  H15C17050   2.653   2.969   7.652  0.9376  0.2465 -1.8476
  144DOPC   C1117051   2.749   2.873   7.246  0.0891  0.5122  0.1304
  144DOPC  H11A17052   2.664   2.879   7.175 -0.2731 -3.7830 -0.0794
  144DOPC  H11B17053   2.809   2.966   7.253  2.0816 -0.7982  2.3845
  144DOPC     P17054   2.789   2.631   7.145 -0.1925 -0.3503  0.3002
  144DOPC   O1317055   2.662   2.583   7.204  0.2279  0.3627  0.2126
  144DOPC   O1417056   2.913   2.542   7.147 -0.0568  0.0545  0.4862
  144DOPC   O1217057   2.831   2.759   7.220 -0.4745  0.1279 -0.2726
  144DOPC   O1117058   2.763   2.677   7.001  0.5892  0.4195  0.0329
  144DOPC    C117059   2.851   2.758   6.929 -0.4949  0.8218 -0.1046
  144DOPC    HA17060   2.901   2.685   6.862  1.3342  0.7341  1.2693
  144DOPC    HB17061   2.920   2.822   6.989  1.3292 -0.1354 -1.0805
  144DOPC    C217062   2.771   2.851   6.833  0.4263  0.5073 -0.4895
  144DOPC    HS17063   2.687   2.890   6.894  0.3884 -1.2044  0.6080
  144DOPC   O2117064   2.740   2.768   6.720 -0.1286  0.1011  0.2485
  144DOPC   C2117065   2.637   2.802   6.662 -0.1293  0.4459  0.1837
  144DOPC   O2217066   2.559   2.889   6.690  0.1553 -0.4755  0.4205
  144DOPC   C2217067   2.624   2.718   6.530 -0.6252 -0.4502 -0.3108
  144DOPC   H2R17068   2.550   2.638   6.550 -3.8325  1.5110 -3.1683
  144DOPC   H2S17069   2.722   2.677   6.497 -0.0258  0.0789  0.7633
  144DOPC    C317070   2.856   2.981   6.798  0.3414  0.3272  0.1580
  144DOPC    HX17071   2.958   2.949   6.768  0.7745  0.6994  1.1797
  144DOPC    HY17072   2.876   3.035   6.893  2.9126  0.2436 -0.2621
  144DOPC   O3117073   2.804   3.065   6.690 -0.5433  0.5469  0.4822
  144DOPC   C3117074   2.722   3.158   6.720 -0.2992 -0.3132  0.5130
  144DOPC   O3217075   2.679   3.193   6.829 -0.1383 -0.1194  0.6085
  144DOPC   C3217076   2.677   3.222   6.586 -0.2196 -0.8386  0.0583
  144DOPC   H2X17077   2.772   3.265   6.548 -0.2646 -0.6539  0.1547
  144DOPC   H2Y17078   2.656   3.139   6.514  2.4062 -0.6432 -1.0638
  144DOPC   C2317079   2.555   2.793   6.416 -1.1909 -0.2060  0.2500
  144DOPC   H3R17080   2.603   2.889   6.387  0.8340 -1.2584  0.0027
  144DOPC   H3S17081   2.453   2.828   6.444 -0.4070  0.3689  2.5075
  144DOPC   C2417082   2.535   2.709   6.292  1.0478  0.0568 -0.2482
  144DOPC   H4R17083   2.428   2.678   6.291  0.9849  0.2637 -0.0885
  144DOPC   H4S17084   2.590   2.614   6.307  0.7614 -0.0481  0.1646
  144DOPC   C2517085   2.587   2.775   6.169  0.3136  0.3369  0.1146
  144DOPC   H5R17086   2.696   2.794   6.162  0.1620  0.6897 -2.1909
  144DOPC   H5S17087   2.530   2.869   6.149  0.4655  0.5015  0.4461
  144DOPC   C2617088   2.558   2.698   6.039 -0.2184  0.3289  0.4456
  144DOPC   H6R17089   2.453   2.663   6.041  0.3625 -1.5376  1.0938
  144DOPC   H6S17090   2.623   2.607   6.042 -0.5168  0.1303  0.8917
  144DOPC   C2717091   2.596   2.779   5.908 -0.7724  0.2213  0.2466
  144DOPC   H7R17092   2.703   2.806   5.914 -1.2551  2.4023 -0.2053
  144DOPC   H7S17093   2.539   2.874   5.910 -1.2180  0.0287 -1.3229
  144DOPC   C2817094   2.567   2.705   5.778 -0.2329  0.1986  0.0429
  144DOPC   H8R17095   2.575   2.781   5.697 -1.7206  1.0091  0.6213
  144DOPC   H8S17096   2.460   2.677   5.772 -0.5174  0.9678  1.1616
  144DOPC   C2917097   2.675   2.599   5.744 -0.4940  0.8155  0.0428
  144DOPC   H9R17098   2.710   2.547   5.835 -5.0616 -1.2445  0.8986
  144DOPC  C21017099   2.711   2.556   5.625  0.2989 -0.5433  0.1153
  144DOPC  H10R17100   2.805   2.499   5.618  2.1503  2.2731  0.2890
  144DOPC  C21117101   2.643   2.597   5.496  0.3308 -0.1750  0.5790
  144DOPC  H11R17102   2.544   2.647   5.501 -0.5233 -1.7679  0.4005
  144DOPC  H11S17103   2.625   2.499   5.446 -0.2187 -0.4443  1.2799
  144DOPC  C21217104   2.726   2.693   5.404 -0.2393 -0.3724  0.1315
  144DOPC  H12R17105   2.656   2.730   5.325 -1.6453 -1.4107  0.8512
  144DOPC  H12S17106   2.797   2.632   5.343 -1.6375 -1.0742 -0.8425
  144DOPC  C21317107   2.782   2.819   5.471 -1.3524 -0.5205 -0.5424
  144DOPC  H13R17108   2.851   2.788   5.553  2.0298 -3.0663 -4.0085
  144DOPC  H13S17109   2.696   2.871   5.520 -0.3374  0.3275  0.4121
  144DOPC  C21417110   2.847   2.901   5.366 -0.9956  0.4453 -0.0976
  144DOPC  H14R17111   2.838   3.011   5.380 -0.4054  0.6523 -1.2282
  144DOPC  H14S17112   2.811   2.869   5.265  0.8709  0.7638 -0.9216
  144DOPC  C21517113   2.996   2.873   5.357 -0.2574 -0.3037 -0.1080
  144DOPC  H15R17114   2.999   2.767   5.324  1.7326 -0.8874  1.7307
  144DOPC  H15S17115   3.033   2.866   5.462 -1.0142  2.1330  0.3727
  144DOPC  C21617116   3.088   2.969   5.279 -0.5618  0.1053  0.0842
  144DOPC  H16R17117   3.087   3.059   5.344  2.3162  0.3748 -0.1205
  144DOPC  H16S17118   3.048   2.998   5.179  1.7252 -1.4039 -1.3679
  144DOPC  C21717119   3.230   2.913   5.272 -0.1757  0.1689 -1.0172
  144DOPC  H17R17120   3.243   2.826   5.205 -1.5986 -0.0295 -1.0643
  144DOPC  H17S17121   3.270   2.902   5.374 -1.4459  2.0539 -0.2538
  144DOPC  C21817122   3.333   3.023   5.211 -0.5164  0.7935 -0.5255
  144DOPC  H18R17123   3.333   3.097   5.294 -1.2466 -0.1147  0.3100
  144DOPC  H18S17124   3.294   3.071   5.118 -0.7107 -0.3104 -1.0355
  144DOPC  H18T17125   3.433   2.977   5.199 -0.7416  0.0126  0.4588
  144DOPC   C3317126   2.563   3.325   6.599  0.1051  0.3303 -0.4860
  144DOPC   H3X17127   2.595   3.408   6.665  0.5044  0.5970 -1.0113
  144DOPC   H3Y17128   2.472   3.280   6.645  0.9100  0.3954  1.2517
  144DOPC   C3417129   2.516   3.382   6.465  0.6143 -0.2387  0.7538
  144DOPC   H4X17130   2.601   3.433   6.415  0.4026 -0.6679 -0.0692
  144DOPC   H4Y17131   2.447   3.465   6.490 -0.0360 -0.1232 -1.2356
  144DOPC   C3517132   2.448   3.283   6.368 -0.0906 -0.0512 -0.3858
  144DOPC   H5X17133   2.364   3.242   6.428 -0.1318  1.1082  0.3800
  144DOPC   H5Y17134   2.520   3.204   6.337  0.7838  0.6503 -0.1896
  144DOPC   C3617135   2.382   3.355   6.253  0.0723 -0.2137 -0.4797
  144DOPC   H6X17136   2.362   3.456   6.293 -0.2756 -1.3259  2.3947
  144DOPC   H6Y17137   2.446   3.371   6.163  1.1598 -1.4826  0.0351
  144DOPC   C3717138   2.257   3.282   6.189 -0.1724 -0.1011  0.0611
  144DOPC   H7X17139   2.286   3.196   6.125  1.0381  0.8283 -0.6904
  144DOPC   H7Y17140   2.200   3.250   6.279  0.7215  2.0469  1.4738
  144DOPC   C3817141   2.172   3.386   6.108 -0.5405 -0.7214  0.0053
  144DOPC   H8X17142   2.145   3.461   6.186  0.6769  0.1373 -0.3750
  144DOPC   H8Y17143   2.072   3.351   6.074 -0.5094  1.0645 -2.1423
  144DOPC   C3917144   2.247   3.456   5.996  0.1717  0.1659 -0.5084
  144DOPC   H9X17145   2.350   3.485   6.020 -0.8042  0.6839  3.8566
  144DOPC  C31017146   2.209   3.489   5.870  0.3408  0.1280  0.2080
  144DOPC  H10X17147   2.287   3.539   5.811 -0.1594  1.6813  0.8194
  144DOPC  C31117148   2.078   3.468   5.796 -0.4222 -0.0470  0.0754
  144DOPC  H11X17149   1.992   3.510   5.852 -0.9088 -1.0074  0.0752
  144DOPC  H11Y17150   2.053   3.362   5.777  1.5330 -0.3523 -1.0785
  144DOPC  C31217151   2.086   3.536   5.656  0.3535  0.7951 -0.2530
  144DOPC  H12X17152   2.187   3.510   5.617 -0.8992 -1.3197 -2.3433
  144DOPC  H12Y17153   2.102   3.646   5.667  1.2860  0.7218 -0.7288
  144DOPC  C31317154   1.978   3.498   5.559 -0.2862  0.5541  1.0600
  144DOPC  H13X17155   1.959   3.389   5.552  4.2559 -0.3220 -1.1300
  144DOPC  H13Y17156   1.881   3.540   5.593 -1.4550 -1.0252 -0.1601
  144DOPC  C31417157   1.997   3.541   5.414 -0.2512 -0.1026 -0.1392
  144DOPC  H14X17158   1.991   3.652   5.415 -2.8114 -0.1892 -0.0759
  144DOPC  H14Y17159   2.092   3.509   5.368 -0.7490 -0.3439 -1.0158
  144DOPC  C31517160   1.876   3.496   5.326  0.0974  0.0399  0.3748
  144DOPC  H15X17161   1.785   3.551   5.358 -1.0289 -1.4739 -0.0653
  144DOPC  H15Y17162   1.857   3.389   5.348 -0.2707  0.4327  2.1146
  144DOPC  C31617163   1.911   3.511   5.181  0.2279  0.5789  0.0900
  144DOPC  H16X17164   1.925   3.617   5.152  0.0027  0.7592  0.6330
  144DOPC  H16Y17165   2.000   3.446   5.160 -1.3886 -1.6732 -0.1990
  144DOPC  C31717166   1.799   3.456   5.088 -0.3429 -0.0332  0.0178
  144DOPC  H17X17167   1.698   3.495   5.117  0.1041  2.7591 -1.7383
  144DOPC  H17Y17168   1.810   3.491   4.983 -0.3087  0.0392  0.0455
  144DOPC  C31817169   1.789   3.305   5.080 -0.0049 -0.7207 -0.8435
  144DOPC  H18X17170   1.731   3.276   4.990 -1.5141 -0.6737  0.0881
  144DOPC  H18Y17171   1.892   3.263   5.079 -0.1484 -1.0987 -0.0970
  144DOPC  H18Z17172   1.747   3.271   5.177 -0.4177  1.9857  0.0248
  145DOPC     N17173   4.337   6.526   7.184 -0.3644 -0.0988  0.1897
  145DOPC   C1217174   4.390   6.586   7.056 -0.2205  0.0331 -0.6463
  145DOPC  H12A17175   4.487   6.545   7.030  0.2184 -0.2617  1.3291
  145DOPC  H12B17176   4.416   6.688   7.077 -1.0247 -0.2128  1.9076
  145DOPC   C1317177   4.270   6.401   7.147 -0.2961  1.2990  0.8827
  145DOPC  H13A17178   4.181   6.426   7.092 -0.9539 -0.2964  1.1787
  145DOPC  H13B17179   4.333   6.338   7.086 -1.4848  2.0095 -1.1496
  145DOPC  H13C17180   4.262   6.324   7.223  1.7385 -0.8512 -0.9226
  145DOPC   C1417181   4.238   6.622   7.251  0.2065 -0.3322  0.5137
  145DOPC  H14A17182   4.164   6.650   7.178 -1.1619 -0.9064  1.6307
  145DOPC  H14B17183   4.185   6.571   7.330  1.1746  0.4572  1.7139
  145DOPC  H14C17184   4.281   6.711   7.293 -0.5816 -0.0119  0.6515
  145DOPC   C1517185   4.453   6.499   7.274 -0.7877 -0.2909 -0.6002
  145DOPC  H15A17186   4.503   6.588   7.307 -3.4554  1.0563  0.0619
  145DOPC  H15B17187   4.533   6.430   7.250  1.3304  1.3283  1.3321
  145DOPC  H15C17188   4.420   6.448   7.363 -0.6247  2.2152  0.9900
  145DOPC   C1117189   4.310   6.566   6.920 -0.0287 -0.3280 -0.6414
  145DOPC  H11A17190   4.368   6.629   6.849 -1.7223  1.1777 -0.7347
  145DOPC  H11B17191   4.316   6.460   6.887  0.8206 -0.6696  0.5531
  145DOPC     P17192   4.091   6.643   6.809 -0.1063  0.0647 -0.0769
  145DOPC   O1317193   4.043   6.782   6.807  0.0925 -0.1287 -0.2462
  145DOPC   O1417194   3.983   6.543   6.807 -0.8355 -0.6825  0.0512
  145DOPC   O1217195   4.176   6.610   6.934 -0.1822  0.7487  0.0462
  145DOPC   O1117196   4.185   6.615   6.693 -0.2645 -0.1960  0.2477
  145DOPC    C117197   4.165   6.645   6.554 -0.4639 -0.3786 -0.2044
  145DOPC    HA17198   4.090   6.725   6.543  1.7063  1.6477 -1.1881
  145DOPC    HB17199   4.110   6.559   6.511  0.2536 -1.5690  1.1581
  145DOPC    C217200   4.304   6.687   6.491 -0.6263 -0.0435  0.0208
  145DOPC    HS17201   4.344   6.768   6.554 -0.1984 -0.7903  0.7271
  145DOPC   O2117202   4.276   6.732   6.361 -0.1038 -0.8179  0.5477
  145DOPC   C2117203   4.371   6.792   6.292 -0.6522 -0.3197 -0.2626
  145DOPC   O2217204   4.480   6.822   6.333 -1.1775  0.0170 -0.0118
  145DOPC   C2217205   4.330   6.828   6.151 -0.3085  0.1333 -0.5347
  145DOPC   H2R17206   4.219   6.817   6.149 -0.1215 -2.4600 -0.4127
  145DOPC   H2S17207   4.353   6.734   6.096  1.2539  0.3078 -0.2338
  145DOPC    C317208   4.408   6.572   6.483 -0.3788 -0.1230 -0.2319
  145DOPC    HX17209   4.453   6.553   6.583 -2.3494 -0.1844  0.6953
  145DOPC    HY17210   4.486   6.597   6.408 -1.8696  1.0150 -1.4600
  145DOPC   O3117211   4.345   6.460   6.426  0.5587  0.8682 -0.3852
  145DOPC   C3117212   4.402   6.348   6.472 -0.7392 -0.4262 -0.3148
  145DOPC   O3217213   4.511   6.333   6.521  0.0965 -0.2944  0.6395
  145DOPC   C3217214   4.304   6.235   6.444  0.2624 -0.1781 -0.4631
  145DOPC   H2X17215   4.202   6.255   6.484  0.6473  0.4236  0.2608
  145DOPC   H2Y17216   4.290   6.231   6.334 -0.0582  1.3332 -0.4966
  145DOPC   C2317217   4.401   6.952   6.091 -0.3204 -0.2661 -0.1130
  145DOPC   H3R17218   4.511   6.940   6.096 -0.0799  1.8339  0.9059
  145DOPC   H3S17219   4.366   7.037   6.154  0.5454 -1.0441  1.4649
  145DOPC   C2417220   4.366   6.986   5.944  0.6270  0.5850 -1.0356
  145DOPC   H4R17221   4.260   7.018   5.935  0.3606 -0.0968 -0.3812
  145DOPC   H4S17222   4.377   6.897   5.878 -1.3966 -0.4236 -0.1195
  145DOPC   C2517223   4.442   7.108   5.889 -0.2885 -0.4383  0.2650
  145DOPC   H5R17224   4.551   7.097   5.910 -0.0102 -0.6045 -1.1977
  145DOPC   H5S17225   4.408   7.206   5.929 -0.2715  0.5756 -2.0577
  145DOPC   C2617226   4.422   7.124   5.733  0.5545 -0.3185  0.1649
  145DOPC   H6R17227   4.462   7.038   5.674  0.4710  0.0522 -0.4366
  145DOPC   H6S17228   4.502   7.197   5.709  2.3372 -2.4391 -0.7665
  145DOPC   C2717229   4.282   7.152   5.672 -0.3065  0.2522  0.4092
  145DOPC   H7R17230   4.224   7.233   5.721  0.2128  0.6105  0.4512
  145DOPC   H7S17231   4.225   7.058   5.687  0.5722 -0.0753  1.9840
  145DOPC   C2817232   4.286   7.198   5.535  0.4850  0.0996  0.2152
  145DOPC   H8R17233   4.385   7.166   5.495  1.2673  0.1142  2.0785
  145DOPC   H8S17234   4.283   7.309   5.532  0.0081  0.0873  0.0422
  145DOPC   C2917235   4.168   7.137   5.455  0.5664  0.7999  0.2452
  145DOPC   H9R17236   4.179   7.031   5.428 -0.0208  0.7353  0.2312
  145DOPC  C21017237   4.060   7.204   5.398  0.5500  0.4408  0.3805
  145DOPC  H10R17238   3.975   7.150   5.354  2.0882 -1.1522 -0.7571
  145DOPC  C21117239   4.044   7.354   5.406 -0.3337  0.8814  0.1985
  145DOPC  H11R17240   4.122   7.412   5.352  1.4369 -0.1513  1.5403
  145DOPC  H11S17241   4.058   7.384   5.512  0.0145  0.0679  0.3941
  145DOPC  C21217242   3.920   7.413   5.337  0.3215  0.8498 -0.1514
  145DOPC  H12R17243   3.823   7.403   5.391  0.3733  1.1483 -0.0014
  145DOPC  H12S17244   3.934   7.371   5.235  1.9603  0.6773  0.1145
  145DOPC  C21317245   3.951   7.563   5.306  0.6724 -0.3902 -0.6475
  145DOPC  H13R17246   3.862   7.603   5.254  0.0181  1.0305  1.4430
  145DOPC  H13S17247   4.043   7.574   5.245  0.6104 -1.4332 -0.9435
  145DOPC  C21417248   3.976   7.646   5.438  0.6115  0.1807 -0.0017
  145DOPC  H14R17249   4.064   7.593   5.479  1.5832 -0.1595 -2.3481
  145DOPC  H14S17250   3.897   7.620   5.512  0.1889 -0.7653 -0.7620
  145DOPC  C21517251   3.999   7.791   5.427  0.3617  0.5343 -0.2776
  145DOPC  H15R17252   4.017   7.815   5.534 -1.2153  0.2218  0.0851
  145DOPC  H15S17253   3.896   7.826   5.401  0.3051  1.1610  0.7163
  145DOPC  C21617254   4.109   7.836   5.328 -0.4757  0.5935  0.3963
  145DOPC  H16R17255   4.068   7.815   5.227 -3.7354  2.4291  1.2023
  145DOPC  H16S17256   4.201   7.776   5.343 -1.2623 -0.2346  2.2481
  145DOPC  C21717257   4.142   7.984   5.334  0.1944  0.0104 -0.2170
  145DOPC  H17R17258   4.183   8.018   5.431  1.0489  0.6837 -0.7928
  145DOPC  H17S17259   4.045   8.036   5.319  0.3755  0.2304 -0.6611
  145DOPC  C21817260   4.234   8.028   5.223 -0.6134  0.3189  0.3927
  145DOPC  H18R17261   4.329   7.971   5.227 -0.7501 -0.0437 -1.2166
  145DOPC  H18S17262   4.276   8.129   5.245  1.7157 -0.0473 -1.9314
  145DOPC  H18T17263   4.187   8.027   5.123  0.5494 -1.3610 -0.1783
  145DOPC   C3317264   4.348   6.105   6.500 -0.6926 -0.2165 -0.7948
  145DOPC   H3X17265   4.305   6.092   6.601  1.0043  0.5566  0.0587
  145DOPC   H3Y17266   4.458   6.097   6.511 -0.4853 -0.0317 -2.4396
  145DOPC   C3417267   4.308   5.972   6.423 -0.2524 -0.0210 -0.0523
  145DOPC   H4X17268   4.197   5.971   6.436 -0.3675 -1.1688 -0.9770
  145DOPC   H4Y17269   4.334   5.882   6.482 -0.9408 -0.3898 -0.3018
  145DOPC   C3517270   4.353   5.963   6.275 -0.0945 -0.0335 -0.1909
  145DOPC   H5X17271   4.456   5.922   6.278 -1.0335 -2.5357  0.6591
  145DOPC   H5Y17272   4.363   6.067   6.239  0.1071 -0.4786 -1.4826
  145DOPC   C3617273   4.249   5.912   6.173  0.2991  0.5018 -0.4751
  145DOPC   H6X17274   4.304   5.853   6.096  1.9385  0.4177  0.7155
  145DOPC   H6Y17275   4.194   5.834   6.231 -0.3395  0.4936 -1.0733
  145DOPC   C3717276   4.162   6.023   6.101  0.7511 -0.1392 -0.1227
  145DOPC   H7X17277   4.135   6.096   6.180  2.4776  1.3688 -0.8571
  145DOPC   H7Y17278   4.219   6.080   6.024 -0.4944  2.0729  0.5177
  145DOPC   C3817279   4.038   5.963   6.026 -0.4326 -0.2735  0.2140
  145DOPC   H8X17280   3.984   5.902   6.102 -1.2958  0.4244  0.1767
  145DOPC   H8Y17281   4.078   5.887   5.955 -1.6139 -0.0743 -0.7099
  145DOPC   C3917282   3.959   6.066   5.955  0.6397  0.4348 -0.1230
  145DOPC   H9X17283   4.005   6.119   5.870 -1.0559 -1.6279 -2.4906
  145DOPC  C31017284   3.834   6.106   5.977  0.7499 -0.5450 -0.3664
  145DOPC  H10X17285   3.783   6.184   5.918 -0.5695 -1.0870  0.0178
  145DOPC  C31117286   3.752   6.048   6.089  0.4258  0.3177  0.2322
  145DOPC  H11X17287   3.735   5.938   6.086 -0.8241  0.4224  1.9967
  145DOPC  H11Y17288   3.649   6.089   6.084 -0.3737 -1.4618  1.1846
  145DOPC  C31217289   3.805   6.077   6.233 -0.4001 -0.6237 -0.4507
  145DOPC  H12X17290   3.897   6.016   6.245 -0.3722 -0.7188 -1.1027
  145DOPC  H12Y17291   3.731   6.035   6.305 -0.8976 -1.2923 -1.3203
  145DOPC  C31317292   3.840   6.228   6.251  0.4280  0.3312  0.2677
  145DOPC  H13X17293   3.926   6.247   6.182  0.1225 -0.6063 -0.3927
  145DOPC  H13Y17294   3.761   6.297   6.215 -0.7391 -1.5879 -0.9959
  145DOPC  C31417295   3.881   6.244   6.398  0.0419 -1.1260 -0.2465
  145DOPC  H14X17296   3.958   6.176   6.441  1.1110  1.1366  1.6749
  145DOPC  H14Y17297   3.947   6.332   6.408  1.5415 -2.3121  0.8043
  145DOPC  C31517298   3.759   6.261   6.490 -0.0807 -0.2665  0.4249
  145DOPC  H15X17299   3.702   6.166   6.487 -1.4907  0.5735 -0.0216
  145DOPC  H15Y17300   3.689   6.336   6.449  0.5307 -0.4706 -1.0761
  145DOPC  C31617301   3.803   6.290   6.636  0.7171 -0.1373  0.0806
  145DOPC  H16X17302   3.875   6.212   6.668 -0.3955 -0.9939  0.5634
  145DOPC  H16Y17303   3.844   6.394   6.640 -0.2873  0.3042  4.7281
  145DOPC  C31717304   3.688   6.285   6.738  0.0914  0.3010  0.5531
  145DOPC  H17X17305   3.653   6.180   6.749 -4.0553  1.1570 -2.1064
  145DOPC  H17Y17306   3.730   6.315   6.837  0.3265  4.1639 -0.5664
  145DOPC  C31817307   3.559   6.364   6.705 -0.8291  0.0097  0.3158
  145DOPC  H18X17308   3.472   6.361   6.775 -0.4967  1.7456  0.8578
  145DOPC  H18Y17309   3.584   6.472   6.711  0.4560 -0.2261 -0.5971
  145DOPC  H18Z17310   3.524   6.325   6.607  2.1295 -0.4022 -0.6581
  146DOPC     N17311   6.368   4.141   7.121  0.3612  0.1359  0.6176
  146DOPC   C1217312   6.419   4.075   6.991 -0.3969 -0.5420  0.2209
  146DOPC  H12A17313   6.375   3.978   6.976 -2.4275  0.3916 -0.2750
  146DOPC  H12B17314   6.525   4.056   6.995  0.1732  1.8740 -1.1883
  146DOPC   C1317315   6.405   4.068   7.245  0.3374  0.4243 -0.3417
  146DOPC  H13A17316   6.382   4.118   7.339  0.8469  1.2147 -0.6261
  146DOPC  H13B17317   6.370   3.966   7.238  0.3237  0.4401 -0.5071
  146DOPC  H13C17318   6.511   4.054   7.233 -0.0247 -0.2192 -3.5074
  146DOPC   C1417319   6.219   4.149   7.114 -0.4599  0.6989 -0.1823
  146DOPC  H14A17320   6.186   4.204   7.027 -0.7965  0.3174 -0.2968
  146DOPC  H14B17321   6.178   4.050   7.104 -1.4121  1.0495  0.1134
  146DOPC  H14C17322   6.183   4.186   7.209 -0.4255  1.3225 -0.4051
  146DOPC   C1517323   6.418   4.274   7.125 -0.5060 -0.3897  0.1537
  146DOPC  H15A17324   6.522   4.259   7.151  0.1295  1.6136 -1.0808
  146DOPC  H15B17325   6.382   4.329   7.211  2.1872 -0.2422  1.2809
  146DOPC  H15C17326   6.402   4.326   7.032 -0.5208 -1.1744 -0.2907
  146DOPC   C1117327   6.395   4.153   6.853  0.0504  0.1891 -0.1770
  146DOPC  H11A17328   6.438   4.254   6.870  0.6355 -0.1720  0.5804
  146DOPC  H11B17329   6.461   4.096   6.784  2.3348 -0.9895  2.7324
  146DOPC     P17330   6.187   4.008   6.779 -0.0131  0.0014 -0.3187
  146DOPC   O1317331   6.041   4.024   6.769 -0.0060  0.5548 -0.5099
  146DOPC   O1417332   6.234   3.900   6.868  0.1962  0.1628  0.3649
  146DOPC   O1217333   6.250   4.149   6.821 -0.8024 -0.3622  0.1333
  146DOPC   O1117334   6.259   3.982   6.638 -0.5385 -0.2934  0.0144
  146DOPC    C117335   6.179   3.918   6.530 -0.2141 -0.9796 -0.1811
  146DOPC    HA17336   6.232   3.936   6.433 -0.0646 -0.9497 -0.0941
  146DOPC    HB17337   6.085   3.976   6.530  0.2521 -0.2149  0.1344
  146DOPC    C217338   6.149   3.761   6.541 -0.0440 -0.1872 -0.3237
  146DOPC    HS17339   6.104   3.751   6.642 -3.5910  0.5277 -1.6654
  146DOPC   O2117340   6.273   3.682   6.515  0.0655  0.8280 -0.5021
  146DOPC   C2117341   6.276   3.561   6.563  0.3445  0.1812 -0.8132
  146DOPC   O2217342   6.182   3.505   6.622 -0.1913  0.2052 -0.5701
  146DOPC   C2217343   6.408   3.491   6.540  0.6039  0.4818  0.2917
  146DOPC   H2R17344   6.457   3.495   6.640  1.2681 -0.4308  0.0127
  146DOPC   H2S17345   6.467   3.560   6.476  1.5743 -0.0932  0.5550
  146DOPC    C317346   6.035   3.733   6.442 -0.0566 -0.0438 -0.2703
  146DOPC    HX17347   6.077   3.766   6.345  2.3554  1.5093  1.2058
  146DOPC    HY17348   5.950   3.795   6.477  1.1131  0.5863  1.5554
  146DOPC   O3117349   5.996   3.595   6.438 -0.6119 -0.0449  0.5121
  146DOPC   C3117350   5.909   3.556   6.532  0.1946 -0.1288  0.0720
  146DOPC   O3217351   5.850   3.632   6.609 -0.8341  0.0602 -0.6762
  146DOPC   C3217352   5.881   3.408   6.513 -0.0008 -0.4858 -0.1002
  146DOPC   H2X17353   5.905   3.382   6.407 -0.2552  0.4553 -0.3936
  146DOPC   H2Y17354   5.957   3.354   6.574 -1.1805 -0.7259  1.2174
  146DOPC   C2317355   6.393   3.348   6.492 -0.5388  1.4863 -0.2103
  146DOPC   H3R17356   6.343   3.289   6.572 -2.9402  1.2915 -1.7456
  146DOPC   H3S17357   6.499   3.313   6.490 -1.1250 -0.5850  1.1215
  146DOPC   C2417358   6.332   3.318   6.354 -0.3799  0.2806  0.4057
  146DOPC   H4R17359   6.228   3.358   6.359 -1.0186 -1.2451  0.1130
  146DOPC   H4S17360   6.330   3.207   6.350 -3.1111  0.2843 -0.8073
  146DOPC   C2517361   6.414   3.380   6.248 -0.1349 -0.6764  0.1139
  146DOPC   H5R17362   6.522   3.361   6.265  0.2100  0.4399 -0.6478
  146DOPC   H5S17363   6.405   3.491   6.244  0.7787 -0.5779  0.6766
  146DOPC   C2617364   6.376   3.311   6.110  0.0219 -0.4869 -0.2320
  146DOPC   H6R17365   6.270   3.336   6.091 -0.5057 -3.2954 -1.5472
  146DOPC   H6S17366   6.374   3.201   6.122  1.7121 -0.7358 -1.7509
  146DOPC   C2717367   6.463   3.331   5.984 -0.0360  0.0227  0.1117
  146DOPC   H7R17368   6.570   3.303   5.999  0.2698  1.1419  0.1284
  146DOPC   H7S17369   6.452   3.440   5.968  1.8951 -0.0813 -2.5765
  146DOPC   C2817370   6.411   3.244   5.862 -0.8235 -0.3749  0.1796
  146DOPC   H8R17371   6.408   3.136   5.887  4.3072 -0.5046  1.4553
  146DOPC   H8S17372   6.484   3.253   5.778 -0.9288 -0.1051  0.1147
  146DOPC   C2917373   6.277   3.301   5.813  0.1882  0.1981 -1.2301
  146DOPC   H9R17374   6.208   3.335   5.892  0.5789 -1.2642 -0.2236
  146DOPC  C21017375   6.218   3.270   5.697 -0.4365  0.1776  0.1278
  146DOPC  H10R17376   6.119   3.308   5.668 -0.1563  0.6065 -0.2738
  146DOPC  C21117377   6.281   3.174   5.597  0.2416 -0.0720 -0.0086
  146DOPC  H11R17378   6.216   3.094   5.556  0.5446 -0.5381  0.4093
  146DOPC  H11S17379   6.366   3.124   5.647  0.1230 -1.0298 -0.7550
  146DOPC  C21217380   6.334   3.237   5.463  0.0975  0.3431  0.9931
  146DOPC  H12R17381   6.395   3.159   5.413 -0.8886 -0.0184  0.3184
  146DOPC  H12S17382   6.403   3.321   5.487  1.7490 -0.2503 -1.3501
  146DOPC  C21317383   6.217   3.285   5.370 -0.3215  0.1315 -0.4320
  146DOPC  H13R17384   6.155   3.355   5.429 -1.6103  2.3109 -4.0485
  146DOPC  H13S17385   6.150   3.202   5.342  0.5856 -1.7629  2.5371
  146DOPC  C21417386   6.267   3.343   5.233  0.3915  0.2235 -0.4232
  146DOPC  H14R17387   6.313   3.265   5.168 -0.0726  0.2193 -0.7505
  146DOPC  H14S17388   6.351   3.412   5.255  0.3496 -0.2018  1.2241
  146DOPC  C21517389   6.153   3.405   5.148  0.0800  0.8971  0.5194
  146DOPC  H15R17390   6.085   3.473   5.203 -1.0126 -2.7080  4.1819
  146DOPC  H15S17391   6.095   3.311   5.135  0.6665  0.6577 -0.4416
  146DOPC  C21617392   6.203   3.467   5.018 -0.1258 -0.6653  0.1043
  146DOPC  H16R17393   6.282   3.404   4.970  0.3940 -0.2372  0.3794
  146DOPC  H16S17394   6.255   3.563   5.039  1.5857 -1.5372  0.1097
  146DOPC  C21717395   6.104   3.475   4.902  0.7919  0.0817  0.2724
  146DOPC  H17R17396   6.152   3.525   4.814 -2.2794  2.3084 -0.3178
  146DOPC  H17S17397   6.012   3.533   4.926  0.9685 -0.6155  2.8687
  146DOPC  C21817398   6.044   3.352   4.850 -0.3154  0.1463 -0.1373
  146DOPC  H18R17399   5.964   3.365   4.775 -0.8237 -0.6684  0.2442
  146DOPC  H18S17400   6.001   3.298   4.937 -1.5804  0.6043 -0.4653
  146DOPC  H18T17401   6.130   3.294   4.810 -0.9669  0.4370 -2.0415
  146DOPC   C3317402   5.735   3.361   6.550  0.2959  0.0757 -0.5517
  146DOPC   H3X17403   5.711   3.385   6.656  0.0390  0.6462 -0.7302
  146DOPC   H3Y17404   5.724   3.253   6.529  0.4502 -0.1492  0.4848
  146DOPC   C3417405   5.633   3.430   6.463 -0.3433 -0.4162  0.3564
  146DOPC   H4X17406   5.631   3.539   6.482 -1.4687 -0.3917  0.1442
  146DOPC   H4Y17407   5.532   3.398   6.498 -0.8320  2.5016  1.8707
  146DOPC   C3517408   5.642   3.390   6.320 -0.2495 -0.1908  0.9383
  146DOPC   H5X17409   5.614   3.282   6.311  2.1103 -0.6879 -1.8588
  146DOPC   H5Y17410   5.742   3.403   6.275 -0.1016  1.2957  1.6476
  146DOPC   C3617411   5.540   3.465   6.236 -0.5688  0.3728 -1.0687
  146DOPC   H6X17412   5.446   3.474   6.295  0.1326 -1.1175  0.3536
  146DOPC   H6Y17413   5.574   3.570   6.226 -1.6517  0.5914 -3.0004
  146DOPC   C3717414   5.528   3.415   6.089 -0.2323 -0.5100 -0.7736
  146DOPC   H7X17415   5.631   3.419   6.049 -1.0578 -0.8100 -3.0698
  146DOPC   H7Y17416   5.485   3.312   6.091 -1.4325 -0.1448  3.7166
  146DOPC   C3817417   5.442   3.504   6.006 -0.1446  0.0300  0.1132
  146DOPC   H8X17418   5.477   3.609   6.009  1.0817 -0.3090 -1.4218
  146DOPC   H8Y17419   5.340   3.509   6.051 -0.0495 -1.5892  0.5951
  146DOPC   C3917420   5.426   3.447   5.868  0.1784  0.3011  0.4231
  146DOPC   H9X17421   5.436   3.338   5.863  3.3759  0.4485  1.3374
  146DOPC  C31017422   5.392   3.519   5.755  0.1326 -0.4871  0.3792
  146DOPC  H10X17423   5.380   3.456   5.665 -0.8903 -1.9928  1.5272
  146DOPC  C31117424   5.371   3.668   5.748  0.1131 -0.0889 -0.6454
  146DOPC  H11X17425   5.377   3.722   5.845  2.2854 -1.4343  0.0549
  146DOPC  H11Y17426   5.275   3.686   5.696 -0.2190  0.7197  0.2346
  146DOPC  C31217427   5.478   3.739   5.663 -0.4626 -0.4849  0.1100
  146DOPC  H12X17428   5.450   3.847   5.660 -0.8738 -0.5999 -0.2757
  146DOPC  H12Y17429   5.464   3.696   5.562 -0.7196  1.0893 -0.5509
  146DOPC  C31317430   5.615   3.728   5.712 -0.3118  0.5728 -0.4721
  146DOPC  H13X17431   5.606   3.719   5.822 -1.5460 -1.4297 -0.6876
  146DOPC  H13Y17432   5.661   3.633   5.676 -0.5513  0.4145 -0.3570
  146DOPC  C31417433   5.706   3.847   5.685 -0.1598  0.3488  1.0718
  146DOPC  H14X17434   5.671   3.938   5.739  1.8373  0.9408  1.4601
  146DOPC  H14Y17435   5.803   3.824   5.734 -0.4871 -0.5006  1.3442
  146DOPC  C31517436   5.712   3.860   5.532 -0.0584 -0.7015 -0.1924
  146DOPC  H15X17437   5.609   3.843   5.493 -0.5884 -1.9708  1.5879
  146DOPC  H15Y17438   5.769   3.775   5.490  2.4095  0.2656  1.0139
  146DOPC  C31617439   5.777   3.987   5.485 -0.3241  0.1432  0.2011
  146DOPC  H16X17440   5.747   4.073   5.547 -1.6444 -0.8839  1.0563
  146DOPC  H16Y17441   5.887   3.981   5.498 -0.2050  3.1225  1.2510
  146DOPC  C31717442   5.752   4.012   5.332  0.3676  0.1681 -0.3103
  146DOPC  H17X17443   5.791   3.925   5.275 -1.7388 -1.5123  0.6321
  146DOPC  H17Y17444   5.642   4.016   5.316  0.4855  1.8490 -0.8091
  146DOPC  C31817445   5.808   4.133   5.267 -0.1209  0.8214 -0.1898
  146DOPC  H18X17446   5.777   4.234   5.300  1.4247  1.3796 -0.3672
  146DOPC  H18Y17447   5.918   4.137   5.273 -0.0546 -1.3972  3.7654
  146DOPC  H18Z17448   5.775   4.131   5.161  2.5230  4.7593 -1.2861
  147DOPC     N17449   2.035   3.217   7.292  0.2566  0.2167  0.0346
  147DOPC   C1217450   1.945   3.087   7.295 -0.1334 -0.1271  0.3925
  147DOPC  H12A17451   1.858   3.117   7.353 -1.0160 -1.7360 -0.0310
  147DOPC  H12B17452   2.000   3.007   7.342  2.4059 -0.0713 -2.2418
  147DOPC   C1317453   1.962   3.326   7.210 -0.0035 -0.1559 -0.0160
  147DOPC  H13A17454   1.880   3.378   7.257  0.6920  1.1032 -0.1635
  147DOPC  H13B17455   2.043   3.390   7.179  0.8360 -0.4816  1.3685
  147DOPC  H13C17456   1.923   3.287   7.118 -1.4763 -1.4474  1.1050
  147DOPC   C1417457   2.156   3.183   7.219  0.0011  0.6265 -0.2521
  147DOPC  H14A17458   2.214   3.101   7.260  0.0735 -0.3327 -2.1456
  147DOPC  H14B17459   2.124   3.156   7.120 -1.6989 -0.3723  0.5126
  147DOPC  H14C17460   2.224   3.265   7.207 -2.8581  2.8055 -3.5448
  147DOPC   C1517461   2.072   3.259   7.427  0.0541  0.1315 -0.6900
  147DOPC  H15A17462   2.146   3.337   7.430  0.1776 -0.0117  0.2865
  147DOPC  H15B17463   2.130   3.188   7.484  1.8740 -0.5347 -3.1817
  147DOPC  H15C17464   1.986   3.284   7.486 -0.5563 -1.4755 -0.8413
  147DOPC   C1117465   1.892   3.027   7.165  0.3476  0.5403  0.7554
  147DOPC  H11A17466   1.829   2.944   7.202  0.3361 -1.5163 -3.2626
  147DOPC  H11B17467   1.830   3.091   7.098  2.2306  0.4484 -1.1981
  147DOPC     P17468   2.037   2.980   6.937  0.2391 -0.2370  0.2400
  147DOPC   O1317469   2.153   2.896   6.906  0.3491 -0.3768 -0.3353
  147DOPC   O1417470   2.046   3.121   6.905  0.1112  0.1196  0.0996
  147DOPC   O1217471   2.000   2.963   7.094 -0.5038  0.3543  0.1761
  147DOPC   O1117472   1.907   2.928   6.861  0.1950  0.1814 -0.1590
  147DOPC    C117473   1.913   2.845   6.746 -0.3626  0.0800 -0.2086
  147DOPC    HA17474   1.815   2.804   6.713 -0.8499 -1.8458  3.1406
  147DOPC    HB17475   1.988   2.765   6.761  0.3714  0.4640 -1.6968
  147DOPC    C217476   1.975   2.916   6.616 -0.7550  0.3695  0.2344
  147DOPC    HS17477   2.083   2.938   6.632 -0.3207 -2.8131  2.7495
  147DOPC   O2117478   1.900   3.038   6.596 -0.1226  0.0533  0.3226
  147DOPC   C2117479   1.965   3.138   6.551 -0.2779  0.9020 -0.1001
  147DOPC   O2217480   2.085   3.139   6.527  0.0543 -0.0122  0.4305
  147DOPC   C2217481   1.866   3.255   6.522  0.2431 -0.7880 -0.5663
  147DOPC   H2R17482   1.913   3.348   6.561  0.9648 -1.1584 -0.5411
  147DOPC   H2S17483   1.772   3.241   6.580  1.6146 -1.0848  1.7153
  147DOPC    C317484   1.952   2.816   6.498 -0.2933 -0.6799 -0.3548
  147DOPC    HX17485   1.841   2.816   6.496 -0.3263  1.2454 -0.6202
  147DOPC    HY17486   1.970   2.708   6.513  0.0533 -0.8825 -2.0562
  147DOPC   O3117487   1.999   2.862   6.365  0.3054 -0.1731 -0.1700
  147DOPC   C3117488   2.125   2.815   6.347 -0.4846 -0.4508  0.8156
  147DOPC   O3217489   2.172   2.724   6.409 -0.3106 -0.4368 -0.2805
  147DOPC   C3217490   2.175   2.886   6.227 -0.7745  0.0841  1.1452
  147DOPC   H2X17491   2.125   2.985   6.212  0.2181  0.4821  0.3223
  147DOPC   H2Y17492   2.285   2.891   6.241 -0.9148  0.1145  2.2754
  147DOPC   C2317493   1.843   3.290   6.371  0.5307 -1.0340  0.1427
  147DOPC   H3R17494   1.939   3.295   6.315  0.9257  2.0453  0.8927
  147DOPC   H3S17495   1.815   3.397   6.384  2.3337 -0.5527  0.4201
  147DOPC   C2417496   1.725   3.215   6.295 -0.1474 -0.1601 -0.0231
  147DOPC   H4R17497   1.677   3.272   6.213 -1.9816 -2.6608 -0.8063
  147DOPC   H4S17498   1.647   3.195   6.371 -0.4088 -2.8946 -0.9138
  147DOPC   C2517499   1.775   3.081   6.227  0.6612 -0.6347  0.2320
  147DOPC   H5R17500   1.682   3.034   6.190  0.8158  0.1760 -1.2263
  147DOPC   H5S17501   1.822   3.016   6.304  2.8483 -1.1134 -1.4250
  147DOPC   C2617502   1.875   3.097   6.104 -0.9631  0.8087  0.0235
  147DOPC   H6R17503   1.910   3.003   6.057 -0.9112  1.4402 -1.2309
  147DOPC   H6S17504   1.972   3.146   6.126 -1.0988  2.0232 -1.8864
  147DOPC   C2717505   1.810   3.187   5.992 -0.2946 -0.0195  0.0455
  147DOPC   H7R17506   1.823   3.297   6.000  1.6878  0.0258 -2.5291
  147DOPC   H7S17507   1.701   3.166   5.991 -0.4403  0.6756  0.3948
  147DOPC   C2817508   1.876   3.169   5.858 -0.3360  0.1464  0.0897
  147DOPC   H8R17509   1.888   3.059   5.843 -0.9333  0.1049 -0.1100
  147DOPC   H8S17510   1.978   3.211   5.872 -0.8435  1.2291  0.6655
  147DOPC   C2917511   1.808   3.234   5.742 -0.2275  0.0536  0.1616
  147DOPC   H9R17512   1.809   3.344   5.742  2.1181  0.0993  1.8720
  147DOPC  C21017513   1.746   3.167   5.643  0.6644  0.1005 -0.2062
  147DOPC  H10R17514   1.685   3.225   5.572 -0.1384 -0.7581 -0.2563
  147DOPC  C21117515   1.731   3.018   5.632 -0.3296 -0.3613  0.4813
  147DOPC  H11R17516   1.830   2.966   5.632 -0.9954 -1.7083  1.4367
  147DOPC  H11S17517   1.685   2.999   5.533 -0.6515  4.4025 -0.5343
  147DOPC  C21217518   1.634   2.951   5.736 -0.1362  0.1314  0.5034
  147DOPC  H12R17519   1.532   2.990   5.714 -0.0351  0.9672  1.4475
  147DOPC  H12S17520   1.669   2.967   5.840 -0.8772 -1.0018  0.9442
  147DOPC  C21317521   1.627   2.795   5.728  0.1589 -0.0864  0.8732
  147DOPC  H13R17522   1.576   2.750   5.816  0.6059 -1.4169  0.4692
  147DOPC  H13S17523   1.734   2.769   5.743  0.0560 -0.0967  1.6383
  147DOPC  C21417524   1.570   2.741   5.599  0.2545  0.1201 -0.4688
  147DOPC  H14R17525   1.631   2.651   5.577  0.3459  0.3974 -1.4362
  147DOPC  H14S17526   1.591   2.812   5.516  1.8407 -1.3985 -1.4394
  147DOPC  C21517527   1.420   2.699   5.601  0.1010 -0.2606 -0.5067
  147DOPC  H15R17528   1.359   2.791   5.611  1.4539  0.4377  2.4126
  147DOPC  H15S17529   1.393   2.633   5.686  0.0455 -0.2544 -0.5202
  147DOPC  C21617530   1.384   2.613   5.467  0.2742  0.0870 -0.5350
  147DOPC  H16R17531   1.455   2.527   5.467  1.7844  1.2906 -0.8454
  147DOPC  H16S17532   1.400   2.678   5.378 -0.2378 -0.4218 -1.0100
  147DOPC  C21717533   1.238   2.556   5.465 -0.8975 -0.2774  0.4613
  147DOPC  H17R17534   1.164   2.639   5.471 -0.1480  0.5682 -1.1826
  147DOPC  H17S17535   1.224   2.479   5.544 -2.0325  0.0644  0.6169
  147DOPC  C21817536   1.224   2.482   5.332 -0.1738 -0.2518  0.3596
  147DOPC  H18R17537   1.280   2.546   5.261  1.0859  0.9735  2.3604
  147DOPC  H18S17538   1.119   2.467   5.298 -1.4897  2.2050  2.9422
  147DOPC  H18T17539   1.269   2.380   5.326 -2.1155 -1.2245  1.3960
  147DOPC   C3317540   2.140   2.802   6.095 -0.3246  0.6700 -0.1146
  147DOPC   H3X17541   2.031   2.815   6.082 -0.9162 -1.2137  2.1765
  147DOPC   H3Y17542   2.146   2.692   6.113  1.0821  0.5957 -0.9184
  147DOPC   C3417543   2.217   2.857   5.976  0.2735  0.1455 -0.5373
  147DOPC   H4X17544   2.326   2.844   5.994  0.5944 -0.2936 -2.5192
  147DOPC   H4Y17545   2.204   2.966   5.966 -0.3202 -0.0206 -1.7998
  147DOPC   C3517546   2.178   2.799   5.844 -0.7543  0.2185 -0.1724
  147DOPC   H5X17547   2.067   2.792   5.847 -0.7758  0.5480 -0.2062
  147DOPC   H5Y17548   2.232   2.702   5.847  0.5625  0.9189  3.6478
  147DOPC   C3617549   2.209   2.872   5.716  0.5210 -0.2237  0.7613
  147DOPC   H6X17550   2.149   2.965   5.710  0.8824 -0.0693 -1.3816
  147DOPC   H6Y17551   2.317   2.898   5.706  0.6734 -0.9318  0.4656
  147DOPC   C3717552   2.172   2.785   5.594 -0.2975  0.4128  0.8005
  147DOPC   H7X17553   2.248   2.705   5.589 -0.7425  0.0706 -1.0807
  147DOPC   H7Y17554   2.064   2.756   5.596 -0.9943  2.7140  0.1963
  147DOPC   C3817555   2.186   2.862   5.460  0.7212 -0.3548  0.4188
  147DOPC   H8X17556   2.159   2.802   5.370 -2.3954  2.2985 -0.5953
  147DOPC   H8Y17557   2.291   2.894   5.455  1.5411 -2.8011  0.3758
  147DOPC   C3917558   2.097   2.990   5.457  0.5418  0.4342  0.1080
  147DOPC   H9X17559   2.116   3.070   5.529 -2.5361  2.9114 -1.5831
  147DOPC  C31017560   1.987   3.010   5.380 -0.3223 -0.3537  0.1950
  147DOPC  H10X17561   1.923   3.100   5.386 -1.6907 -1.3429  0.9899
  147DOPC  C31117562   1.932   2.901   5.283 -0.1599 -0.4464  0.3500
  147DOPC  H11X17563   2.017   2.864   5.222 -0.8052 -1.7839  0.2177
  147DOPC  H11Y17564   1.861   2.943   5.209  1.1391  1.8232  0.2971
  147DOPC  C31217565   1.873   2.763   5.338 -0.4264  0.1102  0.5776
  147DOPC  H12X17566   1.802   2.793   5.418 -0.6626 -0.9238  0.7674
  147DOPC  H12Y17567   1.956   2.703   5.380 -0.7327  0.3351  1.5180
  147DOPC  C31317568   1.797   2.678   5.228 -0.2260  0.0982 -0.2125
  147DOPC  H13X17569   1.691   2.710   5.223  0.1788  1.3598 -1.2913
  147DOPC  H13Y17570   1.843   2.695   5.129 -0.0928  0.7281 -0.0509
  147DOPC  C31417571   1.817   2.525   5.257  0.3848 -0.0578 -0.2114
  147DOPC  H14X17572   1.925   2.501   5.270  0.2287 -1.5140 -1.4458
  147DOPC  H14Y17573   1.775   2.500   5.357  0.1048 -1.1927 -0.5961
  147DOPC  C31517574   1.765   2.432   5.149  1.0018 -0.5471  0.4488
  147DOPC  H15X17575   1.801   2.332   5.180 -0.2029 -0.5540  1.9839
  147DOPC  H15Y17576   1.816   2.445   5.052  0.2882  1.6133  0.2984
  147DOPC  C31617577   1.610   2.435   5.116 -0.2688 -0.1600  0.0225
  147DOPC  H16X17578   1.547   2.476   5.199  2.5031  4.2105  0.3049
  147DOPC  H16Y17579   1.596   2.489   5.020 -0.4484 -1.9699 -0.9998
  147DOPC  C31717580   1.549   2.298   5.095 -0.8577 -0.2090 -0.3708
  147DOPC  H17X17581   1.636   2.233   5.069 -0.0592  0.0055  1.5421
  147DOPC  H17Y17582   1.503   2.255   5.187 -1.2244  1.6683  0.3536
  147DOPC  C31817583   1.458   2.288   4.973  0.7654 -0.0802 -0.2590
  147DOPC  H18X17584   1.512   2.328   4.885  0.8439  0.1878 -0.0923
  147DOPC  H18Y17585   1.410   2.188   4.963  1.8956 -0.9944  2.5190
  147DOPC  H18Z17586   1.370   2.352   4.998  1.4968  0.7316  0.3188
  148DOPC     N17587   3.025   5.686   7.322  1.1858  0.1406  0.0892
  148DOPC   C1217588   3.079   5.571   7.236  0.0163 -0.9147  0.0470
  148DOPC  H12A17589   3.176   5.541   7.272  0.0473  0.2288  0.9860
  148DOPC  H12B17590   3.105   5.610   7.139 -2.4285  0.9808  0.0472
  148DOPC   C1317591   2.902   5.739   7.249  0.1318  0.4404  0.3308
  148DOPC  H13A17592   2.932   5.764   7.149  0.6881 -1.7685 -0.1213
  148DOPC  H13B17593   2.834   5.654   7.242  0.8264 -0.1122  0.1772
  148DOPC  H13C17594   2.853   5.818   7.304 -3.7485  0.1394 -2.3009
  148DOPC   C1417595   3.129   5.793   7.330 -0.0864  0.4031 -0.8317
  148DOPC  H14A17596   3.158   5.831   7.234 -1.0524  2.1420 -0.4774
  148DOPC  H14B17597   3.094   5.878   7.387  0.5696  0.1514 -0.0359
  148DOPC  H14C17598   3.218   5.751   7.374 -0.0854 -0.1027 -1.3149
  148DOPC   C1517599   2.988   5.646   7.458  0.5029  0.0168 -0.6350
  148DOPC  H15A17600   2.957   5.729   7.519 -0.4021 -1.3632  0.8418
  148DOPC  H15B17601   3.072   5.598   7.506  1.8728  0.8822 -2.0632
  148DOPC  H15C17602   2.907   5.574   7.458  1.0307 -0.6086  0.7646
  148DOPC   C1117603   2.998   5.441   7.228 -0.0167 -0.0994  0.4288
  148DOPC  H11A17604   3.066   5.367   7.181 -0.4612 -0.0291 -0.3312
  148DOPC  H11B17605   2.979   5.394   7.327  1.5002 -0.7128  0.4527
  148DOPC     P17606   2.748   5.393   7.183  0.0920 -0.0368 -0.2649
  148DOPC   O1317607   2.677   5.502   7.252  0.5306  0.2927 -0.2319
  148DOPC   O1417608   2.760   5.262   7.247  0.0342 -0.0051 -0.2793
  148DOPC   O1217609   2.883   5.453   7.143 -0.0706  0.3459 -0.1399
  148DOPC   O1117610   2.693   5.373   7.029 -0.2485  0.6257 -0.2824
  148DOPC    C117611   2.744   5.271   6.940 -0.1290 -0.2094  0.2762
  148DOPC    HA17612   2.844   5.234   6.971  0.0720 -0.9343 -1.1527
  148DOPC    HB17613   2.784   5.318   6.847  2.4853 -0.1067  1.3709
  148DOPC    C217614   2.647   5.157   6.900 -0.1521 -0.8451 -0.6259
  148DOPC    HS17615   2.651   5.101   6.995  1.0658 -0.9681 -0.7416
  148DOPC   O2117616   2.697   5.090   6.784 -0.4721  0.1388  1.0066
  148DOPC   C2117617   2.642   4.969   6.769 -0.0432  0.0122 -0.0674
  148DOPC   O2217618   2.577   4.911   6.856 -0.2650  0.1913  0.4926
  148DOPC   C2217619   2.695   4.907   6.634  0.2348 -0.7990  0.3431
  148DOPC   H2R17620   2.687   4.796   6.629  1.6824 -0.8743 -1.6237
  148DOPC   H2S17621   2.799   4.944   6.624 -0.2503 -0.0106 -3.3186
  148DOPC    C317622   2.498   5.209   6.877  0.2514 -1.1145  0.4530
  148DOPC    HX17623   2.469   5.270   6.965 -1.4223 -0.6161 -0.4151
  148DOPC    HY17624   2.424   5.126   6.883 -0.2205 -0.6366  1.4121
  148DOPC   O3117625   2.486   5.289   6.757  0.0755  0.2954 -0.2341
  148DOPC   C3117626   2.395   5.251   6.667 -0.3628 -0.3382 -0.3578
  148DOPC   O3217627   2.333   5.152   6.667 -0.4535  0.0635 -0.2622
  148DOPC   C3217628   2.399   5.354   6.552  0.5032  0.4414  0.0875
  148DOPC   H2X17629   2.359   5.446   6.600  1.0730 -0.3839  2.2892
  148DOPC   H2Y17630   2.507   5.366   6.532  0.2008  1.3850 -1.0425
  148DOPC   C2317631   2.626   4.960   6.509 -0.4881  0.3069  0.1282
  148DOPC   H3R17632   2.637   5.070   6.513 -0.9466  0.3663 -0.1577
  148DOPC   H3S17633   2.521   4.925   6.509 -0.2628 -0.3865  0.1996
  148DOPC   C2417634   2.712   4.917   6.387 -0.1027  0.3911  0.1866
  148DOPC   H4R17635   2.745   4.810   6.390  1.5739  0.8269 -1.0920
  148DOPC   H4S17636   2.803   4.979   6.400  0.5819 -0.2315 -1.4422
  148DOPC   C2517637   2.640   4.952   6.258 -0.8431 -0.4269 -0.6751
  148DOPC   H5R17638   2.609   5.057   6.275 -0.6824 -0.4341 -0.3384
  148DOPC   H5S17639   2.555   4.882   6.248 -0.8215 -0.7694  1.2601
  148DOPC   C2617640   2.727   4.955   6.137  0.1459 -0.0145  0.6784
  148DOPC   H6R17641   2.765   4.852   6.117 -1.5021 -0.3254 -1.2437
  148DOPC   H6S17642   2.812   5.026   6.150  0.7480 -0.7978  1.1364
  148DOPC   C2717643   2.644   4.973   6.011 -0.2144 -0.0478 -0.3339
  148DOPC   H7R17644   2.543   5.013   6.033 -0.4881 -0.3428 -1.0047
  148DOPC   H7S17645   2.628   4.875   5.963  3.9917 -1.0386 -0.0951
  148DOPC   C2817646   2.700   5.066   5.902 -0.7251 -0.0438 -0.1118
  148DOPC   H8R17647   2.627   5.065   5.819  0.9179 -1.0604 -1.6005
  148DOPC   H8S17648   2.792   5.018   5.863 -0.2647 -0.5701  1.5513
  148DOPC   C2917649   2.733   5.208   5.954  0.8227 -0.3449  0.2522
  148DOPC   H9R17650   2.646   5.272   5.976 -1.1802 -2.3211 -1.3758
  148DOPC  C21017651   2.855   5.253   5.979  0.4200 -0.8855  0.1746
  148DOPC  H10R17652   2.881   5.355   6.011 -0.1229 -0.6371 -0.1529
  148DOPC  C21117653   2.982   5.169   5.952 -0.1831 -0.1994 -0.0499
  148DOPC  H11R17654   2.970   5.059   5.965  0.8286 -0.1979  1.0962
  148DOPC  H11S17655   3.049   5.196   6.037 -1.0491  0.7194  0.3669
  148DOPC  C21217656   3.049   5.203   5.827  0.3718  0.4600  0.8672
  148DOPC  H12R17657   3.072   5.312   5.819  1.3576  0.1825 -0.4373
  148DOPC  H12S17658   2.977   5.188   5.744 -2.2249  0.8718  2.9397
  148DOPC  C21317659   3.179   5.131   5.798  0.4544  0.2103  0.1362
  148DOPC  H13R17660   3.220   5.153   5.696  1.5278 -2.3364 -0.0727
  148DOPC  H13S17661   3.157   5.022   5.792  1.8886 -0.0574 -1.4655
  148DOPC  C21417662   3.292   5.152   5.890  0.0227  0.2961  1.0573
  148DOPC  H14R17663   3.273   5.090   5.980  1.7856 -2.4167 -0.3040
  148DOPC  H14S17664   3.298   5.260   5.918  1.2081  0.6271 -0.3399
  148DOPC  C21517665   3.426   5.094   5.840 -0.3186  1.1892 -0.4019
  148DOPC  H15R17666   3.417   4.998   5.785  0.5744  0.5160  0.6025
  148DOPC  H15S17667   3.484   5.070   5.931 -1.2338  0.5929  0.0357
  148DOPC  C21617668   3.511   5.190   5.762 -0.0728  0.3748  0.0604
  148DOPC  H16R17669   3.522   5.285   5.818  0.2162  1.3207 -1.5315
  148DOPC  H16S17670   3.456   5.211   5.667 -1.0634 -0.0695  0.5293
  148DOPC  C21717671   3.645   5.127   5.735 -0.8344 -0.3010  0.4085
  148DOPC  H17R17672   3.635   5.043   5.663 -0.7106 -0.7569  0.9145
  148DOPC  H17S17673   3.690   5.079   5.824  0.1114 -0.6416 -0.2323
  148DOPC  C21817674   3.748   5.226   5.687 -0.1760 -0.2569 -0.1912
  148DOPC  H18R17675   3.771   5.307   5.760 -0.4317  1.2637 -1.7313
  148DOPC  H18S17676   3.707   5.279   5.598  0.5247  0.0202 -0.3593
  148DOPC  H18T17677   3.842   5.173   5.663  0.1520 -0.8395  2.0735
  148DOPC   C3317678   2.321   5.319   6.420  0.7258  0.2123 -0.9581
  148DOPC   H3X17679   2.313   5.421   6.379  0.1627 -0.4450 -2.5377
  148DOPC   H3Y17680   2.218   5.287   6.448  1.6022 -0.9194  1.2353
  148DOPC   C3417681   2.382   5.212   6.337 -0.3687  0.8468  0.1002
  148DOPC   H4X17682   2.365   5.119   6.394 -1.1772  0.8287 -0.1600
  148DOPC   H4Y17683   2.493   5.221   6.336 -0.2197 -0.5008  1.2897
  148DOPC   C3517684   2.328   5.203   6.192  0.1987  0.3758  0.0264
  148DOPC   H5X17685   2.221   5.174   6.183  0.4276 -1.2134  1.6943
  148DOPC   H5Y17686   2.373   5.109   6.153 -0.6101 -0.5084  1.1402
  148DOPC   C3617687   2.363   5.323   6.119  0.0898  0.2060 -0.5282
  148DOPC   H6X17688   2.312   5.418   6.144  2.0874  1.3415 -0.5393
  148DOPC   H6Y17689   2.473   5.332   6.128  0.3446 -2.0884 -0.7861
  148DOPC   C3717690   2.328   5.305   5.970 -0.3463 -0.4586  0.1383
  148DOPC   H7X17691   2.374   5.211   5.932  0.6454  0.2104 -0.3758
  148DOPC   H7Y17692   2.218   5.303   5.961 -0.3158 -1.7546 -0.2543
  148DOPC   C3817693   2.377   5.426   5.882 -0.0860 -0.7878 -0.2292
  148DOPC   H8X17694   2.371   5.394   5.776 -0.5171  1.6053 -0.9777
  148DOPC   H8Y17695   2.479   5.450   5.919 -0.3543 -1.4620  1.0219
  148DOPC   C3917696   2.303   5.559   5.898 -0.1901  0.0485  0.2268
  148DOPC   H9X17697   2.262   5.576   5.999  1.5698 -0.1920  1.0312
  148DOPC  C31017698   2.281   5.648   5.802 -0.5537 -0.4737  0.1103
  148DOPC  H10X17699   2.241   5.745   5.834  1.7633  0.6229 -0.1564
  148DOPC  C31117700   2.322   5.636   5.661 -0.6208  0.3924 -0.4506
  148DOPC  H11X17701   2.303   5.534   5.622 -1.6795  0.2319  0.4246
  148DOPC  H11Y17702   2.431   5.658   5.658 -0.5023 -0.0204  0.3740
  148DOPC  C31217703   2.253   5.730   5.567 -0.2005 -0.2940 -0.3601
  148DOPC  H12X17704   2.145   5.709   5.588  0.7897 -3.1807  2.9507
  148DOPC  H12Y17705   2.276   5.702   5.462  1.2158  0.2278 -0.2054
  148DOPC  C31317706   2.282   5.885   5.593  0.0438  0.4619 -0.2505
  148DOPC  H13X17707   2.242   5.904   5.695  0.0885 -0.3661 -0.0677
  148DOPC  H13Y17708   2.390   5.897   5.612  0.2736  0.7756 -1.6705
  148DOPC  C31417709   2.212   5.987   5.500 -0.3107 -0.0671  0.2485
  148DOPC  H14X17710   2.102   5.970   5.502  0.0925 -3.3842 -0.2271
  148DOPC  H14Y17711   2.236   6.092   5.528  0.6047 -0.4104  0.7835
  148DOPC  C31517712   2.256   5.966   5.355  0.4393 -0.1020  0.8302
  148DOPC  H15X17713   2.260   5.858   5.333 -2.1021 -0.0571 -0.2471
  148DOPC  H15Y17714   2.357   6.009   5.340 -0.3291  2.2668  1.9113
  148DOPC  C31617715   2.158   6.027   5.247 -0.5578  0.0859 -0.6503
  148DOPC  H16X17716   2.080   5.950   5.231 -2.3687  0.8982  3.2918
  148DOPC  H16Y17717   2.112   6.124   5.273 -0.1937  0.2713 -0.6930
  148DOPC  C31717718   2.220   6.059   5.105 -0.5609 -0.1787 -0.1095
  148DOPC  H17X17719   2.146   6.110   5.040  0.2081  0.2498 -0.6478
  148DOPC  H17Y17720   2.303   6.129   5.127  1.0596 -2.5486  1.8664
  148DOPC  C31817721   2.259   5.931   5.030  0.4493 -0.2083  0.9005
  148DOPC  H18X17722   2.317   5.969   4.943 -0.2253  0.2159  0.6304
  148DOPC  H18Y17723   2.328   5.877   5.098  1.6421  1.7335  1.3243
  148DOPC  H18Z17724   2.176   5.865   5.000  0.6370 -0.1770  0.3103
  149DOPC     N17725   1.973   2.602   7.096 -0.3806  0.1208 -0.0986
  149DOPC   C1217726   1.951   2.466   7.156 -1.2176  0.3675  0.7175
  149DOPC  H12A17727   1.875   2.481   7.231  0.9381  3.0559  2.5715
  149DOPC  H12B17728   2.035   2.447   7.221 -2.1563  1.0951  2.2076
  149DOPC   C1317729   2.032   2.690   7.203 -0.1326  0.0625 -0.4631
  149DOPC  H13A17730   2.138   2.677   7.216 -0.2095  1.2363  1.7315
  149DOPC  H13B17731   2.023   2.794   7.175 -0.2817 -0.5380 -2.9213
  149DOPC  H13C17732   1.970   2.678   7.290 -1.2657  0.5278 -1.1837
  149DOPC   C1417733   1.847   2.664   7.052  0.7113  0.4348  0.0582
  149DOPC  H14A17734   1.874   2.739   6.979  1.3512  0.7896  0.6504
  149DOPC  H14B17735   1.785   2.595   6.997 -1.1947  3.3134 -1.6489
  149DOPC  H14C17736   1.783   2.697   7.131 -0.8546 -0.2597 -0.8706
  149DOPC   C1517737   2.070   2.603   6.983  0.5452  0.1575 -0.2965
  149DOPC  H15A17738   2.093   2.707   6.961 -0.2161  0.5866  0.8515
  149DOPC  H15B17739   2.022   2.573   6.891 -1.6650  0.3514  0.7274
  149DOPC  H15C17740   2.153   2.535   6.994 -0.3823 -1.0193 -0.3924
  149DOPC   C1117741   1.908   2.356   7.056 -0.2906  0.8002  0.2892
  149DOPC  H11A17742   1.984   2.353   6.975  1.6800  1.5739  2.0126
  149DOPC  H11B17743   1.914   2.261   7.114  0.4346  1.1703  0.8342
  149DOPC     P17744   1.645   2.297   7.016  0.4039 -0.2315 -0.0467
  149DOPC   O1317745   1.536   2.385   6.971 -0.0538  0.1716  0.1460
  149DOPC   O1417746   1.630   2.260   7.157  0.3242 -0.1663 -0.0430
  149DOPC   O1217747   1.780   2.379   6.996 -0.2229 -0.3887  0.0879
  149DOPC   O1117748   1.644   2.165   6.926 -0.1802  0.3941 -0.1735
  149DOPC    C117749   1.753   2.101   6.870  0.4576 -0.1252  0.3585
  149DOPC    HA17750   1.737   1.996   6.836 -0.8874  0.8268 -2.1770
  149DOPC    HB17751   1.833   2.087   6.946  0.8636  0.3526  0.0250
  149DOPC    C217752   1.802   2.186   6.745  0.0319  0.1929 -0.4256
  149DOPC    HS17753   1.820   2.291   6.776 -3.1548  1.3750 -2.2059
  149DOPC   O2117754   1.704   2.180   6.636 -0.4483 -0.8057  0.3100
  149DOPC   C2117755   1.705   2.285   6.561  0.5450  0.1927 -0.5641
  149DOPC   O2217756   1.764   2.390   6.578  0.0652 -0.3130 -0.6651
  149DOPC   C2217757   1.616   2.258   6.441 -0.2484  0.6610  0.1035
  149DOPC   H2R17758   1.518   2.237   6.489 -0.1715 -0.3695 -0.1620
  149DOPC   H2S17759   1.642   2.158   6.398  0.0314 -0.0437  1.8380
  149DOPC    C317760   1.943   2.138   6.692  0.5544  0.0566 -0.2393
  149DOPC    HX17761   1.925   2.047   6.631  0.2879 -0.6547  0.8877
  149DOPC    HY17762   2.011   2.110   6.775  0.1689  0.8639  0.3640
  149DOPC   O3117763   1.996   2.239   6.602 -0.0780  0.3103 -0.1744
  149DOPC   C3117764   2.079   2.319   6.655 -0.6776 -0.0408 -0.2907
  149DOPC   O3217765   2.106   2.331   6.773 -0.4055 -0.1781 -0.5183
  149DOPC   C3217766   2.137   2.411   6.544  0.5213  0.6985  0.6879
  149DOPC   H2X17767   2.050   2.445   6.484 -1.5315 -1.7850  2.0555
  149DOPC   H2Y17768   2.191   2.495   6.593 -0.2029  1.7003 -0.2010
  149DOPC   C2317769   1.607   2.372   6.337 -0.7581 -0.1933 -0.1296
  149DOPC   H3R17770   1.587   2.474   6.375  2.5492  0.6480 -0.3433
  149DOPC   H3S17771   1.526   2.343   6.267 -1.5498 -0.4809  0.8821
  149DOPC   C2417772   1.731   2.376   6.240 -0.1276 -0.2035 -0.6831
  149DOPC   H4R17773   1.728   2.299   6.160 -1.2671 -1.2427  0.3159
  149DOPC   H4S17774   1.817   2.350   6.305 -1.8025  1.1332  2.3021
  149DOPC   C2517775   1.738   2.518   6.187  1.0314  0.2506 -0.0441
  149DOPC   H5R17776   1.762   2.590   6.269 -1.7298 -0.8623  1.9083
  149DOPC   H5S17777   1.646   2.547   6.131  2.4299  2.6398 -1.2804
  149DOPC   C2617778   1.851   2.530   6.079 -0.3454  0.1053 -0.0616
  149DOPC   H6R17779   1.936   2.467   6.113 -2.0311 -2.5504 -0.4796
  149DOPC   H6S17780   1.881   2.637   6.070 -1.0105  0.1591 -2.2971
  149DOPC   C2717781   1.793   2.472   5.944 -0.0852 -0.6594  0.1949
  149DOPC   H7R17782   1.722   2.552   5.913 -1.8934 -2.1024  0.4295
  149DOPC   H7S17783   1.725   2.385   5.956 -0.9377  0.1789  1.6997
  149DOPC   C2817784   1.906   2.440   5.845  0.4916 -0.3972 -0.3264
  149DOPC   H8R17785   1.975   2.368   5.895 -0.1304 -0.9009 -0.1895
  149DOPC   H8S17786   1.968   2.532   5.837  0.8491 -0.4119  1.6901
  149DOPC   C2917787   1.854   2.399   5.709 -0.2462  0.2560  0.5597
  149DOPC   H9R17788   1.860   2.480   5.635  0.6744  2.0634  2.5100
  149DOPC  C21017789   1.835   2.275   5.662 -0.4528 -0.4167  0.4645
  149DOPC  H10R17790   1.798   2.257   5.560 -0.6144  4.3092 -0.5771
  149DOPC  C21117791   1.865   2.159   5.746 -0.0660 -0.7053  0.3887
  149DOPC  H11R17792   1.860   2.180   5.855  3.6261 -0.8878  0.7028
  149DOPC  H11S17793   1.971   2.140   5.720 -0.2191  0.1034 -0.9328
  149DOPC  C21217794   1.776   2.041   5.713 -0.0355  0.8224 -0.1079
  149DOPC  H12R17795   1.668   2.063   5.700 -0.2075 -0.2994 -0.7290
  149DOPC  H12S17796   1.792   1.977   5.802  3.1131  0.5569 -0.7322
  149DOPC  C21317797   1.822   1.959   5.586  0.4404  0.6977 -0.1693
  149DOPC  H13R17798   1.930   1.932   5.588  0.0991 -0.7956 -0.9493
  149DOPC  H13S17799   1.810   2.028   5.500  0.8377 -0.3873 -1.1180
  149DOPC  C21417800   1.730   1.839   5.562  0.7891  0.2077 -0.0125
  149DOPC  H14R17801   1.623   1.867   5.555 -0.1909 -3.2591 -0.5471
  149DOPC  H14S17802   1.739   1.770   5.649  2.4741  0.9915  0.4811
  149DOPC  C21517803   1.769   1.757   5.431 -0.0797 -0.1162 -0.1275
  149DOPC  H15R17804   1.876   1.726   5.438  0.7574  2.3545 -0.9251
  149DOPC  H15S17805   1.744   1.830   5.351 -0.7416  0.8807  0.9669
  149DOPC  C21617806   1.688   1.635   5.393 -0.1968 -0.1983  0.1132
  149DOPC  H16R17807   1.588   1.677   5.372 -0.5179 -1.4372 -0.9382
  149DOPC  H16S17808   1.663   1.570   5.480 -0.2553  1.0221  1.0286
  149DOPC  C21717809   1.743   1.567   5.267  0.5985  0.0429 -0.2645
  149DOPC  H17R17810   1.814   1.489   5.299  0.1559 -1.8977 -3.5467
  149DOPC  H17S17811   1.803   1.623   5.192 -0.6989  2.4523  0.3807
  149DOPC  C21817812   1.620   1.504   5.194 -0.0550  0.4409  0.1532
  149DOPC  H18R17813   1.649   1.415   5.134 -0.4327  1.2104 -1.2067
  149DOPC  H18S17814   1.564   1.574   5.128  1.2888  0.6724 -0.7883
  149DOPC  H18T17815   1.553   1.458   5.270  0.9509  0.2832  0.9688
  149DOPC   C3317816   2.222   2.325   6.440  0.3903  0.5418  0.3544
  149DOPC   H3X17817   2.216   2.380   6.344  0.8271  0.6130  0.3693
  149DOPC   H3Y17818   2.188   2.219   6.429  1.7099 -0.0188  1.4253
  149DOPC   C3417819   2.375   2.324   6.479 -0.0505  0.7130  0.2757
  149DOPC   H4X17820   2.402   2.256   6.563  0.9922 -1.1698 -1.5002
  149DOPC   H4Y17821   2.386   2.429   6.514 -0.0456  0.1375  2.1357
  149DOPC   C3517822   2.471   2.292   6.363  0.1705  0.8663  0.5253
  149DOPC   H5X17823   2.439   2.346   6.272 -2.4125 -2.2813 -0.5946
  149DOPC   H5Y17824   2.455   2.189   6.327 -1.1556  1.3263 -0.2575
  149DOPC   C3617825   2.621   2.310   6.399 -0.4261  0.1342  0.8230
  149DOPC   H6X17826   2.638   2.417   6.420 -3.1537  0.5439  1.2179
  149DOPC   H6Y17827   2.646   2.269   6.499  0.8279  0.3242  0.6118
  149DOPC   C3717828   2.721   2.266   6.283  0.4806  0.1590  0.0091
  149DOPC   H7X17829   2.821   2.283   6.328  0.9949  1.4921 -1.5487
  149DOPC   H7Y17830   2.708   2.158   6.263  0.5224 -0.1847  1.6681
  149DOPC   C3817831   2.701   2.359   6.165  0.9708 -0.6683 -0.0617
  149DOPC   H8X17832   2.714   2.461   6.208  1.0355  0.1883 -2.0106
  149DOPC   H8Y17833   2.598   2.359   6.124  0.4233  1.4372  1.1518
  149DOPC   C3917834   2.813   2.348   6.064 -0.2292 -0.3367 -0.5405
  149DOPC   H9X17835   2.898   2.413   6.086 -0.3462  0.2648 -1.8070
  149DOPC  C31017836   2.804   2.275   5.948  0.1593 -0.0637 -0.1920
  149DOPC  H10X17837   2.888   2.270   5.878  0.2690  0.0372 -0.0667
  149DOPC  C31117838   2.687   2.198   5.904 -0.9024  0.0652  0.2714
  149DOPC  H11X17839   2.591   2.234   5.947 -1.6927 -2.8712  1.1794
  149DOPC  H11Y17840   2.693   2.095   5.945  0.1422 -0.8864 -2.0794
  149DOPC  C31217841   2.647   2.200   5.758 -0.6263 -0.0098  0.0309
  149DOPC  H12X17842   2.644   2.306   5.722 -1.7236  0.0157  0.1552
  149DOPC  H12Y17843   2.543   2.162   5.748  0.1982 -3.0658  1.8940
  149DOPC  C31317844   2.744   2.118   5.673 -0.2560  0.2268  0.0249
  149DOPC  H13X17845   2.849   2.154   5.679 -0.4869  0.7199  1.3128
  149DOPC  H13Y17846   2.745   2.012   5.707 -1.8045  0.8572  2.1866
  149DOPC  C31417847   2.708   2.120   5.525  0.4246  0.3072  0.4610
  149DOPC  H14X17848   2.612   2.065   5.515  0.5843  0.0059  0.5690
  149DOPC  H14Y17849   2.708   2.223   5.484  0.7487  0.6475  1.2998
  149DOPC  C31517850   2.802   2.043   5.433  0.3758 -0.8486  0.2890
  149DOPC  H15X17851   2.811   1.938   5.470 -3.1369 -1.6936 -0.9181
  149DOPC  H15Y17852   2.908   2.076   5.436  0.0272  0.2447  1.5777
  149DOPC  C31617853   2.742   2.050   5.288 -0.3741 -0.2861  0.7787
  149DOPC  H16X17854   2.653   1.984   5.293 -0.3869 -0.5780 -1.9985
  149DOPC  H16Y17855   2.716   2.149   5.246  2.0656 -0.2528 -0.8416
  149DOPC  C31717856   2.827   1.984   5.184  0.1380  0.2498 -0.3449
  149DOPC  H17X17857   2.882   1.896   5.224 -1.8063 -1.8699 -2.0321
  149DOPC  H17Y17858   2.767   1.932   5.106 -0.4912  0.3846  0.0467
  149DOPC  C31817859   2.944   2.065   5.120  1.1238 -0.0291  0.1725
  149DOPC  H18X17860   3.027   2.000   5.086 -0.4236 -1.4844 -0.9357
  149DOPC  H18Y17861   2.906   2.132   5.039  1.8883 -0.8677 -0.9064
  149DOPC  H18Z17862   2.990   2.139   5.189 -0.0502 -0.3717  1.3429
  150DOPC     N17863   5.430   5.043   7.265 -0.6040 -0.0343  0.3609
  150DOPC   C1217864   5.432   4.941   7.148 -0.7039  0.0594  0.3165
  150DOPC  H12A17865   5.325   4.933   7.132 -0.9374 -2.2451  2.3115
  150DOPC  H12B17866   5.459   4.842   7.183 -3.6036 -0.3001  1.8591
  150DOPC   C1317867   5.365   5.171   7.215  0.8137  0.1751  0.4505
  150DOPC  H13A17868   5.259   5.163   7.198  0.2598  2.6347  2.1699
  150DOPC  H13B17869   5.377   5.245   7.292  1.3002 -1.1744  1.7210
  150DOPC  H13C17870   5.408   5.211   7.124  1.1452  1.6511  1.2233
  150DOPC   C1417871   5.571   5.070   7.304  0.1995  0.0905  0.1913
  150DOPC  H14A17872   5.620   5.122   7.223 -0.0502  1.2084  0.7500
  150DOPC  H14B17873   5.590   5.137   7.386 -0.5557  0.3229  0.1824
  150DOPC  H14C17874   5.626   4.980   7.325  2.0218  1.1666  0.1945
  150DOPC   C1517875   5.347   4.995   7.386  0.1904 -0.1310 -0.3338
  150DOPC  H15A17876   5.357   5.065   7.468  2.4527  0.6786 -1.2344
  150DOPC  H15B17877   5.381   4.901   7.427  0.7655  0.3837  0.3794
  150DOPC  H15C17878   5.240   4.996   7.367 -0.0235  0.1736  0.8221
  150DOPC   C1117879   5.521   4.985   7.030  0.2339  0.1486  0.3947
  150DOPC  H11A17880   5.626   5.013   7.054  0.7624 -0.3861 -1.1993
  150DOPC  H11B17881   5.533   4.893   6.969  1.7702 -0.3096  1.3183
  150DOPC     P17882   5.517   5.192   6.883 -0.2827  0.1731  0.0765
  150DOPC   O1317883   5.622   5.145   6.783  0.5972 -0.1020  0.7475
  150DOPC   O1417884   5.563   5.286   6.988  0.3093  0.7348 -0.2533
  150DOPC   O1217885   5.444   5.069   6.943  0.1037  0.3026  0.2726
  150DOPC   O1117886   5.406   5.270   6.806  0.0085  0.0338 -0.0831
  150DOPC    C117887   5.269   5.252   6.836  0.3620  0.7521  0.7852
  150DOPC    HA17888   5.232   5.353   6.808  2.6370  1.0886 -1.4184
  150DOPC    HB17889   5.239   5.222   6.938 -0.4609  2.1417  0.9820
  150DOPC    C217890   5.210   5.158   6.716  0.4618 -0.4307 -0.1966
  150DOPC    HS17891   5.099   5.164   6.711  0.4603 -0.1813  0.1000
  150DOPC   O2117892   5.263   5.023   6.730  0.1334 -0.0028  0.1575
  150DOPC   C2117893   5.205   4.954   6.819  0.3712  0.0253  0.8131
  150DOPC   O2217894   5.106   4.987   6.882 -0.7019  0.0519  0.0260
  150DOPC   C2217895   5.251   4.811   6.823  0.4171 -0.6572 -0.0944
  150DOPC   H2R17896   5.218   4.780   6.925  2.6801  0.9701  1.2188
  150DOPC   H2S17897   5.362   4.811   6.819  0.4691 -0.2547  1.0369
  150DOPC    C317898   5.269   5.205   6.582  0.9236  0.2166  0.2167
  150DOPC    HX17899   5.380   5.195   6.581  1.0384  1.3240  0.2517
  150DOPC    HY17900   5.255   5.315   6.568  0.2377  0.0212 -0.6523
  150DOPC   O3117901   5.203   5.139   6.474  0.2491  0.8187 -0.1371
  150DOPC   C3117902   5.280   5.043   6.416  0.5319 -0.2031 -0.4962
  150DOPC   O3217903   5.402   5.033   6.426  0.3782 -0.1134 -0.0396
  150DOPC   C3217904   5.186   4.939   6.360  0.6923 -0.0296  0.0508
  150DOPC   H2X17905   5.153   4.863   6.433  0.8547 -0.5094 -0.3683
  150DOPC   H2Y17906   5.091   4.989   6.331  0.6110 -0.1070  0.1843
  150DOPC   C2317907   5.182   4.733   6.710  0.0720  0.1235  0.2214
  150DOPC   H3R17908   5.231   4.767   6.616 -0.6035 -0.3630 -0.3228
  150DOPC   H3S17909   5.074   4.758   6.698 -0.3718 -2.0076 -0.6269
  150DOPC   C2417910   5.180   4.586   6.735 -0.6606  0.1531 -0.7824
  150DOPC   H4R17911   5.117   4.573   6.826  0.6488  0.7715  0.2590
  150DOPC   H4S17912   5.285   4.553   6.750 -0.4567  1.5019  1.3779
  150DOPC   C2517913   5.129   4.507   6.617 -0.0876 -0.2312  0.2416
  150DOPC   H5R17914   5.033   4.547   6.578  1.4186  1.8035 -1.6595
  150DOPC   H5S17915   5.117   4.403   6.654  1.3022  0.3178  2.3921
  150DOPC   C2617916   5.220   4.512   6.492 -0.7424 -0.1597  1.1970
  150DOPC   H6R17917   5.328   4.501   6.516 -0.2254  0.5017 -0.6130
  150DOPC   H6S17918   5.199   4.606   6.437  1.3251 -0.7536 -0.7677
  150DOPC   C2717919   5.188   4.388   6.404  0.3064 -0.5393  0.2477
  150DOPC   H7R17920   5.083   4.362   6.429  0.2430 -0.2810  0.2581
  150DOPC   H7S17921   5.238   4.295   6.438  0.0584 -1.8765 -2.7711
  150DOPC   C2817922   5.215   4.404   6.251  0.4613  0.2616 -0.7205
  150DOPC   H8R17923   5.323   4.429   6.240  0.1310  1.9804 -0.4135
  150DOPC   H8S17924   5.168   4.495   6.209  2.0866  1.2637 -0.4730
  150DOPC   C2917925   5.174   4.282   6.178 -0.0921  0.1333 -0.0493
  150DOPC   H9R17926   5.111   4.210   6.231  3.6101 -2.4702  1.2306
  150DOPC  C21017927   5.224   4.254   6.058  0.3564  0.4948  0.0317
  150DOPC  H10R17928   5.184   4.165   6.008  0.1032  0.9165 -0.5380
  150DOPC  C21117929   5.319   4.344   5.973  0.1149 -0.1493 -0.0313
  150DOPC  H11R17930   5.410   4.290   5.942  1.0157  1.7331 -0.8044
  150DOPC  H11S17931   5.348   4.435   6.029  0.9335 -1.1515  1.2249
  150DOPC  C21217932   5.249   4.389   5.846  0.3966  0.3345  0.8201
  150DOPC  H12R17933   5.144   4.417   5.873  0.6922  1.3160  1.0130
  150DOPC  H12S17934   5.234   4.298   5.784  0.3501  0.6370  0.3822
  150DOPC  C21317935   5.315   4.505   5.762  0.6814 -0.0993  0.4125
  150DOPC  H13R17936   5.318   4.599   5.821 -0.2067  0.3655 -0.2537
  150DOPC  H13S17937   5.250   4.531   5.676  0.6978  1.6633  0.8997
  150DOPC  C21417938   5.454   4.466   5.714  0.0777 -0.4472  0.4400
  150DOPC  H14R17939   5.513   4.447   5.806  1.2921 -0.5347 -0.3302
  150DOPC  H14S17940   5.503   4.554   5.667 -1.2169  0.2634  0.3748
  150DOPC  C21517941   5.465   4.348   5.611 -0.1440 -0.2167 -0.5363
  150DOPC  H15R17942   5.440   4.257   5.670 -2.4316 -0.4201 -1.7402
  150DOPC  H15S17943   5.573   4.332   5.587 -0.0806 -0.5663 -0.0317
  150DOPC  C21617944   5.382   4.363   5.480 -0.4026  0.1957  0.9837
  150DOPC  H16R17945   5.403   4.465   5.442 -0.5005 -0.3904 -0.7548
  150DOPC  H16S17946   5.274   4.358   5.506 -0.1567  1.1052  2.2913
  150DOPC  C21717947   5.414   4.272   5.361  0.3238 -0.1844 -0.3913
  150DOPC  H17R17948   5.384   4.167   5.381 -0.8901  0.5989  2.2942
  150DOPC  H17S17949   5.525   4.267   5.351  0.2906 -0.2093 -0.7644
  150DOPC  C21817950   5.364   4.321   5.227 -0.0988 -0.2010 -0.0205
  150DOPC  H18R17951   5.256   4.306   5.207  0.0404 -1.1085 -0.1485
  150DOPC  H18S17952   5.417   4.270   5.144  0.2946  1.3359 -0.7393
  150DOPC  H18T17953   5.382   4.430   5.216 -2.0014  0.4285  2.2430
  150DOPC   C3317954   5.237   4.856   6.237 -0.5678 -0.5914  0.4269
  150DOPC   H3X17955   5.166   4.772   6.222 -0.2649 -0.7841  0.0718
  150DOPC   H3Y17956   5.335   4.811   6.264 -0.2514 -0.0832  0.1229
  150DOPC   C3417957   5.239   4.927   6.105 -0.2393 -1.0226  0.2289
  150DOPC   H4X17958   5.315   5.006   6.123 -1.6558  0.5075 -0.2269
  150DOPC   H4Y17959   5.142   4.980   6.089 -0.6486 -2.5221 -3.0686
  150DOPC   C3517960   5.273   4.850   5.977  0.6233 -0.1968  0.0139
  150DOPC   H5X17961   5.188   4.785   5.949  0.2881  0.2615 -0.0455
  150DOPC   H5Y17962   5.358   4.781   5.998 -0.3632 -1.7859 -1.0723
  150DOPC   C3617963   5.290   4.942   5.847  0.5383  0.0626  0.1080
  150DOPC   H6X17964   5.200   5.007   5.835 -0.5673 -1.5747 -0.9319
  150DOPC   H6Y17965   5.370   5.013   5.878 -1.4465  1.6217  1.9326
  150DOPC   C3717966   5.315   4.864   5.716  0.4586 -0.4917 -0.3383
  150DOPC   H7X17967   5.399   4.796   5.741  2.0842  1.5255 -0.0376
  150DOPC   H7Y17968   5.229   4.793   5.708 -0.8869  0.9329  0.8450
  150DOPC   C3817969   5.336   4.945   5.591 -0.5140 -0.3990  0.5895
  150DOPC   H8X17970   5.363   4.869   5.514 -0.5499 -1.9167  2.0225
  150DOPC   H8Y17971   5.425   5.011   5.596 -1.3597  0.7405  0.8548
  150DOPC   C3917972   5.224   5.024   5.529  0.4316 -1.0225  0.8081
  150DOPC   H9X17973   5.135   4.972   5.490 -1.8428  2.9262  0.1467
  150DOPC  C31017974   5.215   5.160   5.523  0.6666 -0.2553  0.2993
  150DOPC  H10X17975   5.119   5.201   5.490  1.1038 -0.3516 -1.1545
  150DOPC  C31117976   5.320   5.261   5.569 -0.3931 -0.4911 -0.2112
  150DOPC  H11X17977   5.419   5.247   5.521  0.1645  0.5468  0.5977
  150DOPC  H11Y17978   5.346   5.236   5.674 -1.4089 -3.1930 -0.5098
  150DOPC  C31217979   5.273   5.406   5.566 -0.1966  0.7495  0.5084
  150DOPC  H12X17980   5.234   5.447   5.470 -0.2228  1.6604  0.9047
  150DOPC  H12Y17981   5.356   5.474   5.594  1.7526 -1.4957  0.4976
  150DOPC  C31317982   5.168   5.422   5.678  0.0163 -0.6947 -0.2881
  150DOPC  H13X17983   5.073   5.374   5.648  1.3060 -1.3494 -3.7816
  150DOPC  H13Y17984   5.199   5.371   5.772  0.3839  0.4129  0.2120
  150DOPC  C31417985   5.154   5.569   5.711  0.5512 -0.0033  0.3733
  150DOPC  H14X17986   5.240   5.599   5.775  0.9386  1.0692 -0.6235
  150DOPC  H14Y17987   5.171   5.634   5.623 -2.4269  1.0822  0.4633
  150DOPC  C31517988   5.014   5.608   5.774 -0.8995 -0.0109 -0.6387
  150DOPC  H15X17989   4.999   5.561   5.873 -0.1823  0.9897 -0.0263
  150DOPC  H15Y17990   4.936   5.574   5.703 -0.6256  1.3272 -1.6292
  150DOPC  C31617991   5.000   5.760   5.805 -0.1296 -0.6101  0.2860
  150DOPC  H16X17992   4.908   5.774   5.866  0.0026 -1.8687  0.8113
  150DOPC  H16Y17993   5.079   5.803   5.871 -1.1855  1.3182  0.3625
  150DOPC  C31717994   4.973   5.848   5.685  0.0201 -0.6262 -0.8867
  150DOPC  H17X17995   5.044   5.827   5.603  1.0764  0.3969 -0.2735
  150DOPC  H17Y17996   4.876   5.816   5.641 -1.2565  2.0602 -0.2504
  150DOPC  C31817997   4.964   5.997   5.717 -0.3725  0.5350 -0.5915
  150DOPC  H18X17998   5.045   6.022   5.789 -0.1130 -0.6555 -0.4576
  150DOPC  H18Y17999   4.995   6.052   5.625  1.8815 -1.0434 -0.8611
  150DOPC  H18Z18000   4.864   6.027   5.755  0.5711  0.8441  1.8600
  151DOPC     N18001   1.579   4.200   7.349 -0.1381 -0.2826  0.9452
  151DOPC   C1218002   1.676   4.161   7.229  0.8732  0.7757  0.2556
  151DOPC  H12A18003   1.758   4.108   7.273 -0.3104 -0.9809  0.4207
  151DOPC  H12B18004   1.714   4.251   7.183 -2.2446  2.9649  1.5899
  151DOPC   C1318005   1.667   4.271   7.455 -0.1111  0.3815  0.6202
  151DOPC  H13A18006   1.690   4.373   7.431  0.1658  0.2158  0.1728
  151DOPC  H13B18007   1.617   4.269   7.551  0.7737 -0.9383  1.0933
  151DOPC  H13C18008   1.757   4.216   7.479  0.7785  1.3332 -0.4221
  151DOPC   C1418009   1.523   4.078   7.411  0.4549  0.2391  0.0361
  151DOPC  H14A18010   1.589   4.008   7.458  1.1903  1.7648  1.3632
  151DOPC  H14B18011   1.471   4.110   7.500 -0.4571  0.3131 -0.5069
  151DOPC  H14C18012   1.448   4.028   7.351  0.0017  0.8274  0.0936
  151DOPC   C1518013   1.468   4.290   7.314 -0.1304 -0.1026 -0.3446
  151DOPC  H15A18014   1.500   4.393   7.313  0.8671 -0.3235  1.8260
  151DOPC  H15B18015   1.386   4.299   7.385 -2.4514  0.0016 -2.8646
  151DOPC  H15C18016   1.415   4.261   7.225 -0.5838  0.7293 -0.3611
  151DOPC   C1118017   1.616   4.069   7.116 -0.5909  0.5135 -0.0769
  151DOPC  H11A18018   1.689   4.044   7.035 -0.2744 -0.9175  0.6209
  151DOPC  H11B18019   1.575   3.978   7.166 -2.3768  3.3881  4.2276
  151DOPC     P18020   1.517   4.271   6.972  0.0705  0.1724 -0.2309
  151DOPC   O1318021   1.637   4.346   7.006  0.4486 -0.3103  0.2815
  151DOPC   O1418022   1.389   4.341   6.985  0.9050  0.4564  0.3990
  151DOPC   O1218023   1.506   4.136   7.052 -0.2999  0.2370  0.0623
  151DOPC   O1118024   1.528   4.217   6.823  0.0025  0.1921 -0.6185
  151DOPC    C118025   1.411   4.191   6.749  0.3265 -0.1729 -0.6383
  151DOPC    HA18026   1.318   4.246   6.775 -0.0695 -1.2674  0.3284
  151DOPC    HB18027   1.394   4.082   6.762 -0.1695 -0.3692 -2.5898
  151DOPC    C218028   1.427   4.195   6.594 -0.7573 -0.2168 -0.9025
  151DOPC    HS18029   1.536   4.175   6.587 -0.1186  1.4077  2.4348
  151DOPC   O2118030   1.397   4.331   6.545 -0.4763 -0.1909  0.4098
  151DOPC   C2118031   1.490   4.412   6.541 -0.1190 -0.1093 -0.2223
  151DOPC   O2218032   1.610   4.397   6.572  1.0574  0.3589 -0.3244
  151DOPC   C2218033   1.436   4.544   6.481  0.0781 -0.5099  0.4672
  151DOPC   H2R18034   1.514   4.619   6.459 -1.1973  0.4277 -0.9972
  151DOPC   H2S18035   1.358   4.586   6.549  2.9064  3.1277  1.7933
  151DOPC    C318036   1.351   4.080   6.521 -0.3429 -0.3412  0.1023
  151DOPC    HX18037   1.243   4.097   6.543 -0.3839  0.8179 -0.8874
  151DOPC    HY18038   1.383   3.985   6.568  0.0107  0.1144  0.7964
  151DOPC   O3118039   1.389   4.082   6.381 -0.2740  0.0404  0.4994
  151DOPC   C3118040   1.302   4.151   6.298  0.5652  0.6522 -0.0992
  151DOPC   O3218041   1.197   4.194   6.332  0.3287 -0.7399  0.0430
  151DOPC   C3218042   1.366   4.167   6.160  0.5180  0.6667  0.0577
  151DOPC   H2X18043   1.442   4.247   6.167  0.4048  0.6337  3.0324
  151DOPC   H2Y18044   1.406   4.065   6.140 -0.5397 -0.0541  1.4459
  151DOPC   C2318045   1.373   4.515   6.333 -0.4480  0.6492  0.0418
  151DOPC   H3R18046   1.290   4.442   6.340 -1.8342  2.0190 -1.1735
  151DOPC   H3S18047   1.457   4.474   6.273 -1.3854  0.4145 -1.1455
  151DOPC   C2418048   1.303   4.632   6.269  0.0336 -0.3078  0.0072
  151DOPC   H4R18049   1.370   4.721   6.268 -2.9567  2.2368  2.5873
  151DOPC   H4S18050   1.206   4.664   6.312 -0.7219 -2.1278 -0.2455
  151DOPC   C2518051   1.262   4.597   6.121  0.4891  0.0354 -0.1037
  151DOPC   H5R18052   1.201   4.504   6.131  0.0562  0.2432 -0.7761
  151DOPC   H5S18053   1.356   4.578   6.066  1.2239 -2.0275  1.7247
  151DOPC   C2618054   1.174   4.705   6.052 -0.8166  0.1098  0.8505
  151DOPC   H6R18055   1.156   4.671   5.948 -4.2921  1.8175  0.7475
  151DOPC   H6S18056   1.242   4.792   6.036 -0.1018 -0.3540  1.2708
  151DOPC   C2718057   1.044   4.749   6.121 -0.1727 -0.6432 -0.3276
  151DOPC   H7R18058   1.070   4.815   6.207 -0.1708  0.6874 -1.3260
  151DOPC   H7S18059   0.999   4.651   6.148  2.0535 -1.8756 -0.8004
  151DOPC   C2818060   0.955   4.825   6.021  0.1466 -0.0143  0.1386
  151DOPC   H8R18061   0.859   4.842   6.074 -0.1246 -0.7345 -0.1135
  151DOPC   H8S18062   0.941   4.757   5.934 -0.7001  1.3223 -0.7998
  151DOPC   C2918063   1.010   4.957   5.969  0.3332 -0.0277  0.3349
  151DOPC   H9R18064   1.025   5.026   6.054 -2.6582  2.2697 -0.8019
  151DOPC  C21018065   1.014   5.004   5.847  0.5448 -0.5013  0.1656
  151DOPC  H10R18066   1.044   5.110   5.839 -1.7916  0.1301 -0.8785
  151DOPC  C21118067   0.964   4.941   5.717 -0.2477 -0.4150  0.0074
  151DOPC  H11R18068   0.866   4.991   5.703 -0.1420  0.1686  1.2786
  151DOPC  H11S18069   0.943   4.833   5.729  2.0081 -0.8579  0.4545
  151DOPC  C21218070   1.051   4.963   5.589 -0.3771  0.7275 -0.1800
  151DOPC  H12R18071   1.141   4.901   5.611 -1.3755 -0.4172  0.7808
  151DOPC  H12S18072   1.084   5.069   5.588  1.5098  0.1851  0.4871
  151DOPC  C21318073   0.977   4.923   5.462 -0.0417 -1.2381  0.3537
  151DOPC  H13R18074   0.901   5.002   5.440  1.6959  0.6824  0.9260
  151DOPC  H13S18075   0.930   4.825   5.484  0.9275 -1.4216  1.6577
  151DOPC  C21418076   1.072   4.917   5.345  0.3638 -0.1496 -0.4994
  151DOPC  H14R18077   1.151   4.842   5.365 -0.3117 -0.8569 -0.4425
  151DOPC  H14S18078   1.128   5.013   5.337 -0.0587  0.3631  1.9954
  151DOPC  C21518079   1.016   4.874   5.210 -0.4141  0.0427  0.2625
  151DOPC  H15R18080   1.010   4.763   5.220  2.1436 -0.1199  0.5736
  151DOPC  H15S18081   1.089   4.901   5.130 -0.6177 -0.1791 -0.0012
  151DOPC  C21618082   0.882   4.933   5.173  0.5276 -0.2897  0.2998
  151DOPC  H16R18083   0.899   5.043   5.183  5.6672 -0.7138 -0.6889
  151DOPC  H16S18084   0.813   4.887   5.247 -0.7366  1.9365  0.5999
  151DOPC  C21718085   0.839   4.912   5.024 -0.0847  0.3275  0.3310
  151DOPC  H17R18086   0.911   4.968   4.961 -0.0527  0.3494  0.3873
  151DOPC  H17S18087   0.733   4.946   5.016 -0.2051  0.4952  2.2423
  151DOPC  C21818088   0.844   4.765   4.984  0.6220 -0.1625  0.1520
  151DOPC  H18R18089   0.809   4.754   4.879 -1.2796  0.3833  0.6884
  151DOPC  H18S18090   0.781   4.698   5.046  1.4287 -1.4492 -0.3680
  151DOPC  H18T18091   0.942   4.716   5.001  0.7120  0.9200  3.1693
  151DOPC   C3318092   1.263   4.197   6.049  0.2456 -0.1405  0.4634
  151DOPC   H3X18093   1.222   4.299   6.064  0.9727  0.3525 -0.7096
  151DOPC   H3Y18094   1.178   4.126   6.050  0.9255 -1.0399 -1.0042
  151DOPC   C3418095   1.317   4.176   5.908  0.5945  0.0972  0.3562
  151DOPC   H4X18096   1.227   4.164   5.844 -1.3612  1.7919  2.6017
  151DOPC   H4Y18097   1.354   4.071   5.903  0.4204  0.0926 -2.3796
  151DOPC   C3518098   1.431   4.264   5.855 -0.4009  0.2182 -0.1772
  151DOPC   H5X18099   1.518   4.235   5.918  0.8121  0.3466 -1.7304
  151DOPC   H5Y18100   1.401   4.371   5.861  1.9405  0.9021  0.1433
  151DOPC   C3618101   1.474   4.226   5.717  1.0962 -0.6118 -0.2092
  151DOPC   H6X18102   1.507   4.120   5.727 -0.5261 -0.9416  2.8465
  151DOPC   H6Y18103   1.384   4.221   5.652  1.0887  1.8904 -0.4995
  151DOPC   C3718104   1.584   4.315   5.671  0.0173  0.1798  0.1527
  151DOPC   H7X18105   1.557   4.422   5.679  0.8118  0.4392 -0.4661
  151DOPC   H7Y18106   1.671   4.309   5.740 -0.3681  1.1160  0.7293
  151DOPC   C3818107   1.647   4.267   5.534 -0.0407 -0.4611 -0.4699
  151DOPC   H8X18108   1.561   4.284   5.466  1.5611 -1.6138 -2.8879
  151DOPC   H8Y18109   1.673   4.159   5.539  0.6899 -0.2548  2.9014
  151DOPC   C3918110   1.774   4.339   5.505  0.1259 -0.2675 -0.1395
  151DOPC   H9X18111   1.858   4.319   5.573 -1.8592  1.0000  2.9044
  151DOPC  C31018112   1.797   4.439   5.412 -0.3715  0.2471 -0.0205
  151DOPC  H10X18113   1.901   4.474   5.410 -0.1346 -0.3535  1.0598
  151DOPC  C31118114   1.689   4.492   5.319  0.1492  0.6739 -0.0526
  151DOPC  H11X18115   1.590   4.511   5.367 -0.2055 -0.3111 -0.3601
  151DOPC  H11Y18116   1.682   4.430   5.227  0.6701  2.0934 -1.0916
  151DOPC  C31218117   1.737   4.631   5.264 -0.5319  0.1971 -1.1612
  151DOPC  H12X18118   1.802   4.689   5.333  2.6946 -2.0196 -2.1106
  151DOPC  H12Y18119   1.639   4.681   5.251 -0.3596  0.3366 -1.9306
  151DOPC  C31318120   1.815   4.640   5.135  0.7255  0.5714  0.1130
  151DOPC  H13X18121   1.769   4.577   5.056 -1.0694  0.7836  0.9388
  151DOPC  H13Y18122   1.824   4.747   5.105  0.6475  1.4683  2.9554
  151DOPC  C31418123   1.962   4.605   5.147  0.3844  1.2958 -0.2961
  151DOPC  H14X18124   1.965   4.497   5.175  1.6051  0.0398 -4.5090
  151DOPC  H14Y18125   1.991   4.610   5.040 -1.6121  0.9636 -0.8919
  151DOPC  C31518126   2.051   4.706   5.220  0.5458  0.1772 -0.3678
  151DOPC  H15X18127   2.023   4.703   5.327 -0.5265  0.9283 -0.6106
  151DOPC  H15Y18128   2.039   4.812   5.188 -0.5102  0.9528  2.3701
  151DOPC  C31618129   2.194   4.661   5.210 -0.1976  0.2508  0.9826
  151DOPC  H16X18130   2.248   4.698   5.300 -0.2737 -0.5390  1.3571
  151DOPC  H16Y18131   2.206   4.552   5.227 -1.4229  0.0116  0.4354
  151DOPC  C31718132   2.281   4.695   5.082 -0.6951 -0.4168 -0.3861
  151DOPC  H17X18133   2.233   4.644   4.996  0.3050 -0.7452 -0.7717
  151DOPC  H17Y18134   2.285   4.800   5.047  0.9360  0.0666  1.0845
  151DOPC  C31818135   2.433   4.638   5.096  0.8497 -0.8547 -0.1120
  151DOPC  H18X18136   2.458   4.666   5.201  0.3604  0.6425 -0.3728
  151DOPC  H18Y18137   2.435   4.532   5.063  2.6794 -0.4512 -1.4513
  151DOPC  H18Z18138   2.497   4.696   5.027  0.9096 -0.0613  0.5968
  152DOPC     N18139   4.476   0.824   7.409 -0.8523  0.3030  0.3527
  152DOPC   C1218140   4.398   0.813   7.284  0.0335 -0.6044  0.8604
  152DOPC  H12A18141   4.293   0.831   7.303 -0.1792  2.2744 -2.1814
  152DOPC  H12B18142   4.400   0.712   7.246 -2.0907 -1.1123  1.9283
  152DOPC   C1318143   4.410   0.723   7.507  0.1396  0.1249 -0.1984
  152DOPC  H13A18144   4.459   0.740   7.601 -1.8185 -1.2122  1.1338
  152DOPC  H13B18145   4.306   0.741   7.533  0.0282  0.6610 -0.9579
  152DOPC  H13C18146   4.422   0.625   7.462 -0.0023  0.2296 -0.4709
  152DOPC   C1418147   4.469   0.970   7.451  0.3969 -0.1976 -0.1111
  152DOPC  H14A18148   4.373   1.017   7.438  0.4141  0.8375  2.7394
  152DOPC  H14B18149   4.518   0.994   7.544 -1.9171 -0.7624  1.3325
  152DOPC  H14C18150   4.526   1.025   7.378 -2.0463  1.6613 -0.7364
  152DOPC   C1518151   4.614   0.787   7.389  0.1320  0.1214  0.0924
  152DOPC  H15A18152   4.663   0.815   7.480 -0.7777 -3.7370  1.9519
  152DOPC  H15B18153   4.661   0.834   7.304 -0.4613  1.8529  0.6788
  152DOPC  H15C18154   4.619   0.679   7.382 -1.7541  0.0448 -0.9287
  152DOPC   C1118155   4.434   0.907   7.163  0.2257  0.0790 -0.1051
  152DOPC  H11A18156   4.371   0.880   7.075 -0.8545  1.7726  0.0985
  152DOPC  H11B18157   4.408   1.010   7.196  0.1070  0.4711 -1.3673
  152DOPC     P18158   4.636   1.032   7.074 -0.1282 -0.1441  0.4405
  152DOPC   O1318159   4.770   0.988   7.012 -0.6553 -0.0543 -0.3418
  152DOPC   O1418160   4.635   1.132   7.181  0.1188  0.2148 -0.5346
  152DOPC   O1218161   4.575   0.900   7.127 -0.0359  0.4118  0.0560
  152DOPC   O1118162   4.533   1.084   6.966 -0.5084 -0.1353  0.5612
  152DOPC    C118163   4.425   1.181   6.991 -0.6379 -0.0870  0.3844
  152DOPC    HA18164   4.460   1.266   7.054  0.9367 -0.1137 -0.3990
  152DOPC    HB18165   4.337   1.131   7.038 -0.2670 -2.6234 -1.4324
  152DOPC    C218166   4.374   1.242   6.856  0.1754 -0.2605  0.5427
  152DOPC    HS18167   4.318   1.335   6.879 -0.2522 -0.8202  1.8813
  152DOPC   O2118168   4.305   1.146   6.784 -0.7154  0.3951  0.0891
  152DOPC   C2118169   4.205   1.199   6.715 -0.1611  0.4322 -0.0830
  152DOPC   O2218170   4.172   1.315   6.713 -0.3258 -0.7294  0.2157
  152DOPC   C2218171   4.121   1.090   6.642 -0.2920 -0.4439  0.7262
  152DOPC   H2R18172   4.026   1.134   6.606 -0.2724 -0.8487  0.1525
  152DOPC   H2S18173   4.099   1.011   6.717 -2.1030 -1.7567 -1.0946
  152DOPC    C318174   4.491   1.285   6.763 -0.1587  0.1743  0.1590
  152DOPC    HX18175   4.530   1.185   6.737  0.9866  0.8022 -0.6241
  152DOPC    HY18176   4.570   1.335   6.822 -1.6967  1.8829  0.8889
  152DOPC   O3118177   4.446   1.341   6.639  0.4658 -0.2036 -0.4882
  152DOPC   C3118178   4.409   1.473   6.641  0.3738 -0.8662  0.0590
  152DOPC   O3218179   4.423   1.553   6.731  0.4968 -0.0095 -0.5749
  152DOPC   C3218180   4.353   1.512   6.507  0.1094  0.7174  0.3161
  152DOPC   H2X18181   4.402   1.461   6.421  0.6357 -1.0747  1.6214
  152DOPC   H2Y18182   4.249   1.476   6.525 -0.0764  0.9715 -0.2131
  152DOPC   C2318183   4.196   1.026   6.518 -0.4633  0.0081 -0.6626
  152DOPC   H3R18184   4.133   0.944   6.478 -2.2251  1.6969 -1.5084
  152DOPC   H3S18185   4.294   0.980   6.541 -0.3420  0.1407 -0.9016
  152DOPC   C2418186   4.223   1.131   6.408 -0.4788 -0.1079  0.5016
  152DOPC   H4R18187   4.262   1.065   6.328  0.3639 -1.2687  1.8130
  152DOPC   H4S18188   4.304   1.195   6.447 -1.1914  0.5461  0.9336
  152DOPC   C2518189   4.099   1.211   6.367  0.8217  0.5191  0.1277
  152DOPC   H5R18190   4.071   1.283   6.447 -0.5057 -1.2291  1.3143
  152DOPC   H5S18191   4.013   1.141   6.355  0.3046  1.1135  0.3463
  152DOPC   C2618192   4.130   1.283   6.237  0.3081 -0.4008 -0.0175
  152DOPC   H6R18193   4.167   1.209   6.163  0.4169  0.3641 -0.7365
  152DOPC   H6S18194   4.209   1.360   6.248  0.7747 -1.1229  2.2048
  152DOPC   C2718195   3.998   1.350   6.181  0.1982 -0.3590  0.4448
  152DOPC   H7R18196   3.960   1.426   6.252  0.8167 -1.4911  2.0686
  152DOPC   H7S18197   3.911   1.282   6.172 -0.1319  0.1540 -0.2437
  152DOPC   C2818198   4.015   1.437   6.054 -0.1818  0.1364  0.6163
  152DOPC   H8R18199   4.072   1.373   5.983  1.4844  1.0982  1.0355
  152DOPC   H8S18200   4.081   1.526   6.064 -0.2142  0.4576 -1.4776
  152DOPC   C2918201   3.879   1.464   5.992  0.5385 -0.9227  0.7367
  152DOPC   H9R18202   3.815   1.380   5.963 -2.8617  1.5389  0.4366
  152DOPC  C21018203   3.841   1.577   5.932 -0.2889  0.1897 -0.0654
  152DOPC  H10R18204   3.744   1.578   5.880  0.1056 -1.7905 -0.9070
  152DOPC  C21118205   3.923   1.704   5.913 -0.1935 -0.5763 -0.0042
  152DOPC  H11R18206   3.992   1.724   5.997 -1.3843  1.9185  0.4922
  152DOPC  H11S18207   3.858   1.794   5.900 -0.0614 -0.7267 -2.1474
  152DOPC  C21218208   3.999   1.680   5.783  0.3997 -0.4430  0.5563
  152DOPC  H12R18209   3.924   1.648   5.707  0.6934  1.7788 -0.7399
  152DOPC  H12S18210   4.068   1.597   5.808 -0.1441 -0.4590  2.0629
  152DOPC  C21318211   4.088   1.796   5.735  0.7636  0.1965  0.5444
  152DOPC  H13R18212   4.158   1.823   5.817  0.7322  0.5770  0.4471
  152DOPC  H13S18213   4.025   1.886   5.717 -0.7803 -0.1923  3.3475
  152DOPC  C21418214   4.167   1.771   5.610 -1.0192 -0.0239 -0.4864
  152DOPC  H14R18215   4.237   1.686   5.625  0.4080  1.0016 -1.1675
  152DOPC  H14S18216   4.235   1.858   5.606  1.3426 -1.6439  1.2873
  152DOPC  C21518217   4.083   1.771   5.478 -0.0530 -0.0872 -0.1161
  152DOPC  H15R18218   4.022   1.865   5.480 -0.0818 -0.0899 -0.7849
  152DOPC  H15S18219   4.015   1.684   5.488 -1.5926  1.0915  0.0998
  152DOPC  C21618220   4.173   1.767   5.352  0.4152 -0.3575  0.6346
  152DOPC  H16R18221   4.244   1.684   5.373  3.6605  2.1648  0.4316
  152DOPC  H16S18222   4.235   1.859   5.354  0.4127 -0.3615  0.9390
  152DOPC  C21718223   4.101   1.748   5.218 -0.0619 -0.3988  0.5336
  152DOPC  H17R18224   4.057   1.845   5.186  0.6309 -0.1861  0.1942
  152DOPC  H17S18225   4.017   1.676   5.223 -0.0018 -0.5998 -1.0423
  152DOPC  C21818226   4.195   1.725   5.098  0.3110 -0.0829 -0.1396
  152DOPC  H18R18227   4.256   1.633   5.115 -0.9805 -0.7717  1.0019
  152DOPC  H18S18228   4.262   1.810   5.076 -1.9295  1.1847 -2.7850
  152DOPC  H18T18229   4.136   1.702   5.006 -0.7611 -1.2208  0.8017
  152DOPC   C3318230   4.336   1.664   6.487  0.0516  0.2476  0.1123
  152DOPC   H3X18231   4.433   1.706   6.452  0.1849  0.2926  0.5277
  152DOPC   H3Y18232   4.303   1.715   6.581 -0.8953  1.0746 -0.6439
  152DOPC   C3418233   4.232   1.670   6.376  0.7742 -0.9455  0.9084
  152DOPC   H4X18234   4.136   1.620   6.398  0.4047 -1.2684 -1.2514
  152DOPC   H4Y18235   4.281   1.615   6.293  2.2716  1.7008 -0.1107
  152DOPC   C3518236   4.210   1.812   6.326 -0.2171 -0.3199  0.1708
  152DOPC   H5X18237   4.313   1.843   6.296 -0.6585 -0.4289 -1.5023
  152DOPC   H5Y18238   4.172   1.881   6.404  2.0082  0.0731  1.0057
  152DOPC   C3618239   4.102   1.818   6.215  0.3783  0.2685  0.1130
  152DOPC   H6X18240   4.144   1.771   6.124 -1.0264 -0.2217 -0.3098
  152DOPC   H6Y18241   4.012   1.754   6.229  0.4854 -0.4720 -2.2153
  152DOPC   C3718242   4.048   1.958   6.170  0.3141  0.1206 -0.0739
  152DOPC   H7X18243   3.968   1.940   6.095 -1.7884 -1.0583  2.2832
  152DOPC   H7Y18244   4.013   1.998   6.268  2.8801 -0.5755  1.2168
  152DOPC   C3818245   4.158   2.044   6.117 -0.3161 -0.2816 -0.4293
  152DOPC   H8X18246   4.208   1.985   6.038  0.5913 -0.4400  0.2473
  152DOPC   H8Y18247   4.222   2.051   6.208 -2.2250 -1.2995  1.0842
  152DOPC   C3918248   4.142   2.188   6.074 -0.0528 -0.3866  0.4494
  152DOPC   H9X18249   4.170   2.261   6.151 -1.5355 -0.1196  0.7749
  152DOPC  C31018250   4.079   2.236   5.965 -0.5968  0.0380  0.1141
  152DOPC  H10X18251   4.069   2.345   5.967 -4.1747 -0.1859  1.2034
  152DOPC  C31118252   4.016   2.146   5.859 -0.8999 -0.1921  0.1938
  152DOPC  H11X18253   4.039   2.039   5.878  2.0453  0.1334 -0.9975
  152DOPC  H11Y18254   4.053   2.159   5.754  1.9224 -0.4190  1.0642
  152DOPC  C31218255   3.863   2.167   5.849  0.0275  0.1293  0.4892
  152DOPC  H12X18256   3.842   2.275   5.857 -0.9361 -0.1955  4.0420
  152DOPC  H12Y18257   3.797   2.119   5.925 -0.2097 -1.7185 -0.8208
  152DOPC  C31318258   3.819   2.111   5.722  0.2162 -0.0790 -0.3312
  152DOPC  H13X18259   3.887   2.141   5.640  0.9842 -0.6587  0.0814
  152DOPC  H13Y18260   3.843   2.003   5.729  1.7861  0.1569 -1.4302
  152DOPC  C31418261   3.676   2.139   5.687 -0.3567 -0.9276 -0.3956
  152DOPC  H14X18262   3.610   2.093   5.764 -0.5636  0.8405  0.5114
  152DOPC  H14Y18263   3.654   2.247   5.680  0.5215 -0.7652 -0.6531
  152DOPC  C31518264   3.629   2.088   5.550 -0.2540  0.4659  0.0030
  152DOPC  H15X18265   3.675   2.137   5.461 -1.4684 -0.0339 -0.9349
  152DOPC  H15Y18266   3.519   2.102   5.546 -0.3908 -0.7378 -2.7123
  152DOPC  C31618267   3.668   1.938   5.537 -0.3334  0.1043 -0.0017
  152DOPC  H16X18268   3.778   1.931   5.530 -0.2511 -1.9442  1.9067
  152DOPC  H16Y18269   3.654   1.889   5.636  0.0699 -1.2726 -0.6055
  152DOPC  C31718270   3.598   1.858   5.425 -0.1050 -0.4949 -0.6404
  152DOPC  H17X18271   3.658   1.766   5.412  1.9948  0.9718 -1.8198
  152DOPC  H17Y18272   3.497   1.847   5.470 -0.5157  0.6797 -1.2401
  152DOPC  C31818273   3.586   1.921   5.284 -0.1331  0.3761 -0.1977
  152DOPC  H18X18274   3.547   1.841   5.217 -2.7242  2.0998 -0.9034
  152DOPC  H18Y18275   3.500   1.991   5.281 -1.6050 -1.3611 -2.1940
  152DOPC  H18Z18276   3.681   1.961   5.243 -0.1302 -0.4504 -1.0366
  153DOPC     N18277   4.454   0.720   6.769  0.5547  0.3265 -0.1257
  153DOPC   C1218278   4.418   0.619   6.871  0.5178  0.6741  0.3209
  153DOPC  H12A18279   4.312   0.610   6.856  0.6396  0.9081 -0.7871
  153DOPC  H12B18280   4.434   0.664   6.968  0.3981  1.6042 -0.0796
  153DOPC   C1318281   4.415   0.673   6.633  1.5226  0.6595  0.4340
  153DOPC  H13A18282   4.450   0.735   6.551 -1.7188 -2.0791 -3.4041
  153DOPC  H13B18283   4.458   0.577   6.612 -0.0756  0.2035 -0.9683
  153DOPC  H13C18284   4.310   0.649   6.624  1.8073 -0.7894  0.8104
  153DOPC   C1418285   4.603   0.746   6.762 -0.7102  0.3074  0.3159
  153DOPC  H14A18286   4.649   0.651   6.741 -0.4079  0.0310  2.0788
  153DOPC  H14B18287   4.619   0.825   6.690  0.0972 -0.4648 -0.3748
  153DOPC  H14C18288   4.641   0.787   6.855  1.0086 -0.8013  0.1503
  153DOPC   C1518289   4.383   0.845   6.800 -0.2359 -0.5462  0.1829
  153DOPC  H15A18290   4.420   0.892   6.889 -0.3942 -1.1960  0.5979
  153DOPC  H15B18291   4.276   0.829   6.810 -0.3539  0.5719  0.8462
  153DOPC  H15C18292   4.404   0.916   6.721 -0.5771  0.9177  1.3694
  153DOPC   C1118293   4.486   0.479   6.865  0.1050  0.4995 -0.4496
  153DOPC  H11A18294   4.435   0.419   6.943  0.0434 -0.8371 -1.4873
  153DOPC  H11B18295   4.468   0.427   6.768  1.4201  0.0952 -0.4956
  153DOPC     P18296   4.710   0.360   6.915  0.1754  0.3007 -0.5178
  153DOPC   O1318297   4.615   0.255   6.950  0.5569  0.5757  0.3303
  153DOPC   O1418298   4.819   0.386   7.013  0.1234 -0.5140  0.0416
  153DOPC   O1218299   4.628   0.489   6.885  0.2686 -0.3754  0.5917
  153DOPC   O1118300   4.779   0.328   6.776 -0.2232  0.0374 -0.5340
  153DOPC    C118301   4.874   0.418   6.718 -0.1623  0.3326  0.0044
  153DOPC    HA18302   4.922   0.486   6.792 -0.2357  0.8759 -0.4357
  153DOPC    HB18303   4.814   0.496   6.666  0.2426  0.4716 -0.2541
  153DOPC    C218304   4.963   0.346   6.620  0.6723  0.0815  0.4830
  153DOPC    HS18305   5.036   0.414   6.572 -0.1508  1.0929  0.6193
  153DOPC   O2118306   4.891   0.256   6.529 -0.6660  0.2258 -0.2034
  153DOPC   C2118307   4.812   0.326   6.448  0.2426  0.2396 -1.0450
  153DOPC   O2218308   4.812   0.447   6.442 -0.2841  0.4787  0.2138
  153DOPC   C2218309   4.716   0.228   6.382  0.0248  0.2540 -0.2172
  153DOPC   H2R18310   4.640   0.294   6.335  1.4006  2.0719 -0.0277
  153DOPC   H2S18311   4.670   0.164   6.460 -0.5627  1.2474  0.2772
  153DOPC    C318312   5.057   0.258   6.709 -0.2753 -0.0387  0.4515
  153DOPC    HX18313   5.010   0.183   6.776 -2.5398  1.2253  0.3533
  153DOPC    HY18314   5.095   0.328   6.786 -0.4820 -0.8794  1.3330
  153DOPC   O3118315   5.166   0.207   6.626 -0.0803  0.1385  0.1565
  153DOPC   C3118316   5.144   0.088   6.588  0.3686 -0.1896 -0.5116
  153DOPC   O3218317   5.054   0.015   6.625  0.1391  0.3024  0.2120
  153DOPC   C3218318   5.252   0.042   6.487 -0.5623 -0.0022  0.5748
  153DOPC   H2X18319   5.282   0.130   6.427 -1.4987  0.4756  0.7821
  153DOPC   H2Y18320   5.328  -0.016   6.544 -0.4485 -0.0850  0.3454
  153DOPC   C2318321   4.790   0.162   6.263  0.5032 -0.6746 -0.3582
  153DOPC   H3R18322   4.716   0.129   6.188 -2.3266  0.6890  1.6219
  153DOPC   H3S18323   4.839   0.071   6.302  2.6960  0.6220  0.1056
  153DOPC   C2418324   4.891   0.254   6.185  0.4068 -0.0048 -0.3033
  153DOPC   H4R18325   4.985   0.249   6.242 -0.2402  1.0220  0.9008
  153DOPC   H4S18326   4.854   0.358   6.177 -1.3420 -0.5350  0.3993
  153DOPC   C2518327   4.902   0.210   6.040  0.0645  0.0506 -0.3195
  153DOPC   H5R18328   4.804   0.226   5.991  0.0011  0.9556  0.0723
  153DOPC   H5S18329   4.912   0.100   6.036 -1.0975 -0.3539  3.4151
  153DOPC   C2618330   4.999   0.294   5.963 -0.6987 -0.5764 -0.1813
  153DOPC   H6R18331   5.103   0.259   5.983 -0.2766  0.1192 -1.0671
  153DOPC   H6S18332   4.986   0.398   6.000 -0.3706 -0.7755  0.5137
  153DOPC   C2718333   4.979   0.296   5.811  0.3075 -0.2468  0.6071
  153DOPC   H7R18334   4.917   0.386   5.796  0.7770  0.0086  0.1849
  153DOPC   H7S18335   4.938   0.203   5.766  2.6016  0.4810 -3.4495
  153DOPC   C2818336   5.117   0.326   5.739 -0.1354 -0.0313 -0.3819
  153DOPC   H8R18337   5.183   0.241   5.766 -1.9837 -1.1831  0.7220
  153DOPC   H8S18338   5.160   0.411   5.797  2.7325 -2.3965  1.2272
  153DOPC   C2918339   5.097   0.353   5.590 -0.4728 -0.0667  0.3236
  153DOPC   H9R18340   5.043   0.280   5.528  1.2912 -1.1389 -0.0296
  153DOPC  C21018341   5.167   0.446   5.519  0.1594 -0.2239  0.3632
  153DOPC  H10R18342   5.129   0.464   5.417  2.0814  0.0989 -0.3473
  153DOPC  C21118343   5.270   0.537   5.584  0.3352  0.6917  0.2621
  153DOPC  H11R18344   5.315   0.492   5.675 -2.1426 -1.1826  0.6664
  153DOPC  H11S18345   5.218   0.628   5.619 -2.1806 -1.5371  2.7325
  153DOPC  C21218346   5.380   0.580   5.484  0.5890  0.3863 -0.9967
  153DOPC  H12R18347   5.449   0.652   5.534  1.9709 -1.0894 -0.6761
  153DOPC  H12S18348   5.317   0.634   5.410 -0.8937  1.2357  0.7910
  153DOPC  C21318349   5.466   0.470   5.428 -0.5313  0.1745 -0.2693
  153DOPC  H13R18350   5.396   0.395   5.385 -0.6965 -1.0299  1.9345
  153DOPC  H13S18351   5.519   0.411   5.507 -0.9649  0.6731  0.4076
  153DOPC  C21418352   5.581   0.512   5.335  0.7476 -0.2472  0.5078
  153DOPC  H14R18353   5.628   0.426   5.282  1.0149  0.7512 -0.9375
  153DOPC  H14S18354   5.666   0.565   5.384  2.2680 -1.0236 -1.1606
  153DOPC  C21518355   5.531   0.602   5.212 -0.0566  0.1425 -0.2220
  153DOPC  H15R18356   5.482   0.697   5.243 -2.4080 -1.2534  0.5809
  153DOPC  H15S18357   5.458   0.544   5.152  1.5662 -1.1496 -1.0426
  153DOPC  C21618358   5.648   0.630   5.123  0.3043 -0.3387  0.3889
  153DOPC  H16R18359   5.708   0.539   5.102  0.0751 -0.1233 -1.3515
  153DOPC  H16S18360   5.710   0.705   5.176  0.1666 -1.0956  1.6671
  153DOPC  C21718361   5.607   0.694   4.987  0.1599 -0.6663  0.4408
  153DOPC  H17R18362   5.519   0.758   5.009 -0.3204 -1.0831 -0.2374
  153DOPC  H17S18363   5.571   0.630   4.904 -0.7187  0.8976 -0.4121
  153DOPC  C21818364   5.725   0.784   4.938  0.8584 -0.5400  0.0651
  153DOPC  H18R18365   5.809   0.722   4.901  2.3776  1.4210  0.0697
  153DOPC  H18S18366   5.762   0.847   5.022 -0.0682 -0.2939  0.3032
  153DOPC  H18T18367   5.691   0.860   4.864  2.7591 -0.1902 -0.5001
  153DOPC   C3318368   5.187  -0.065   6.389 -0.6663  0.1849 -0.0397
  153DOPC   H3X18369   5.099  -0.030   6.332  1.1287  1.5852 -2.1075
  153DOPC   H3Y18370   5.161  -0.158   6.444  1.3351 -0.3007  0.1525
  153DOPC   C3418371   5.293  -0.104   6.285 -0.4742 -0.3650 -1.0129
  153DOPC   H4X18372   5.391  -0.109   6.337 -0.1342 -2.5531 -1.7812
  153DOPC   H4Y18373   5.331  -0.024   6.217  0.8150  0.6577  0.8045
  153DOPC   C3518374   5.261  -0.236   6.211  0.5324 -0.5765 -0.0046
  153DOPC   H5X18375   5.192  -0.309   6.259  1.4864 -0.0358  2.2682
  153DOPC   H5Y18376   5.365  -0.276   6.202  0.4085 -0.6804 -1.1851
  153DOPC   C3618377   5.210  -0.207   6.070  0.2093  0.3524  0.0310
  153DOPC   H6X18378   5.284  -0.142   6.019  1.2180 -0.7816  0.0025
  153DOPC   H6Y18379   5.223  -0.300   6.010 -2.1160 -0.1635  0.2057
  153DOPC   C3718380   5.060  -0.178   6.061  0.1322  0.1417 -0.7289
  153DOPC   H7X18381   5.001  -0.262   6.104 -0.7476  1.4923  0.8312
  153DOPC   H7Y18382   5.036  -0.081   6.110 -2.7363 -0.0979 -1.4906
  153DOPC   C3818383   5.019  -0.169   5.919  0.3777 -0.5818  0.0323
  153DOPC   H8X18384   4.910  -0.152   5.923  0.4525 -0.0767  0.0170
  153DOPC   H8Y18385   5.025  -0.266   5.866  1.7257 -0.4192 -0.1653
  153DOPC   C3918386   5.092  -0.063   5.836 -0.2041  0.1434  0.2788
  153DOPC   H9X18387   5.126   0.028   5.887  3.3208 -0.6634 -0.4108
  153DOPC  C31018388   5.090  -0.048   5.701  0.5157  0.2299 -0.2324
  153DOPC  H10X18389   5.162   0.020   5.653  0.0094 -0.0848 -1.4937
  153DOPC  C31118390   5.022  -0.131   5.593 -0.9488  0.2724 -0.3531
  153DOPC  H11X18391   5.046  -0.239   5.603  1.0309  0.5511 -1.6282
  153DOPC  H11Y18392   5.051  -0.095   5.492 -0.4115  1.8410  0.3210
  153DOPC  C31218393   4.871  -0.130   5.616  0.1413 -0.2143 -0.1828
  153DOPC  H12X18394   4.833  -0.027   5.598  0.2288  0.2799  2.1281
  153DOPC  H12Y18395   4.844  -0.176   5.713 -1.1159 -0.9840 -0.8632
  153DOPC  C31318396   4.810  -0.231   5.526  0.7130 -0.0133 -0.3507
  153DOPC  H13X18397   4.805  -0.206   5.418 -0.2514  0.6515 -0.1709
  153DOPC  H13Y18398   4.868  -0.323   5.549  1.3618  1.0007  2.5420
  153DOPC  C31418399   4.656  -0.260   5.556 -0.0098 -0.3857  0.2603
  153DOPC  H14X18400   4.629  -0.347   5.493  2.8455 -0.7993 -0.5308
  153DOPC  H14Y18401   4.631  -0.296   5.658 -0.7906  0.7499  0.4927
  153DOPC  C31518402   4.556  -0.151   5.504  0.1491 -0.0572 -0.1067
  153DOPC  H15X18403   4.583  -0.066   5.571  1.6592  1.0862 -2.0633
  153DOPC  H15Y18404   4.453  -0.182   5.533 -0.5888  1.6653 -0.7478
  153DOPC  C31618405   4.572  -0.110   5.358 -0.3533  0.2882  0.1413
  153DOPC  H16X18406   4.670  -0.058   5.356  1.0535 -2.1993 -1.9066
  153DOPC  H16Y18407   4.573  -0.204   5.298 -1.5747 -0.9608  1.9457
  153DOPC  C31718408   4.462  -0.026   5.300 -0.0976 -1.1280  0.1190
  153DOPC  H17X18409   4.411   0.021   5.388 -1.1334  0.0964 -1.0860
  153DOPC  H17Y18410   4.520   0.057   5.254 -1.7754  0.3222  0.5321
  153DOPC  C31818411   4.363  -0.094   5.207  0.7874 -0.2258 -0.7772
  153DOPC  H18X18412   4.292  -0.151   5.270  1.7185 -0.6360 -0.0672
  153DOPC  H18Y18413   4.310  -0.021   5.143 -0.4034 -0.4933 -0.1229
  153DOPC  H18Z18414   4.421  -0.167   5.146  1.1029 -2.8501  2.4150
  154DOPC     N18415   5.688   3.660   7.016  0.4786 -0.4472 -0.0782
  154DOPC   C1218416   5.617   3.545   6.939  0.1738  0.3500 -0.4174
  154DOPC  H12A18417   5.574   3.474   7.009  1.3271  0.3238  0.2963
  154DOPC  H12B18418   5.701   3.496   6.892  1.3361  1.5180  0.3851
  154DOPC   C1318419   5.594   3.747   7.092 -0.7560  0.0391  0.3727
  154DOPC  H13A18420   5.651   3.830   7.130  1.0327 -0.4282 -1.1313
  154DOPC  H13B18421   5.520   3.781   7.020  0.6062  0.8539 -0.6954
  154DOPC  H13C18422   5.552   3.688   7.172  0.3662  0.0655  0.9857
  154DOPC   C1418423   5.775   3.744   6.924  0.0393 -0.0428 -0.0723
  154DOPC  H14A18424   5.855   3.682   6.885  0.3420 -1.1226  2.0802
  154DOPC  H14B18425   5.721   3.782   6.840  0.9526  0.4035 -0.4698
  154DOPC  H14C18426   5.824   3.822   6.980  1.2850  0.6745 -2.0676
  154DOPC   C1518427   5.779   3.597   7.122 -0.2590 -0.5214  0.0927
  154DOPC  H15A18428   5.731   3.506   7.155 -0.7977  0.2919  1.6774
  154DOPC  H15B18429   5.797   3.668   7.202 -1.6253 -0.9344  0.8142
  154DOPC  H15C18430   5.876   3.575   7.081  0.1876 -0.9816  1.3319
  154DOPC   C1118431   5.509   3.567   6.829 -0.1201 -0.4549 -0.0239
  154DOPC  H11A18432   5.559   3.627   6.750  1.3911  0.1931  1.3815
  154DOPC  H11B18433   5.478   3.468   6.788 -0.5551 -0.2873 -0.1053
  154DOPC     P18434   5.297   3.545   6.971 -0.0454  0.0025 -0.0393
  154DOPC   O1318435   5.226   3.638   7.056 -0.3300  0.3896  0.5011
  154DOPC   O1418436   5.369   3.436   7.039  0.0893  0.2428  0.5547
  154DOPC   O1218437   5.400   3.631   6.885 -0.2670  0.1642  0.0677
  154DOPC   O1118438   5.194   3.496   6.858 -0.1985 -0.0863 -0.5276
  154DOPC    C118439   5.174   3.536   6.722  0.3012  0.3793 -0.1501
  154DOPC    HA18440   5.141   3.447   6.664 -1.0003  0.8377 -0.1403
  154DOPC    HB18441   5.270   3.574   6.680  0.6587 -0.8393 -0.4858
  154DOPC    C218442   5.066   3.642   6.697  0.5455 -0.4703 -0.0975
  154DOPC    HS18443   5.088   3.723   6.770  0.5879  0.5123 -1.1740
  154DOPC   O2118444   4.937   3.578   6.728 -0.7444  0.1979  0.0294
  154DOPC   C2118445   4.825   3.650   6.717  0.1440  0.4142  0.1343
  154DOPC   O2218446   4.815   3.768   6.680  0.0250 -0.6891  0.4482
  154DOPC   C2218447   4.703   3.558   6.756 -0.2250  0.1627 -0.8475
  154DOPC   H2R18448   4.643   3.611   6.833  1.0642  0.0513  0.2685
  154DOPC   H2S18449   4.750   3.473   6.811 -0.0433  0.1482 -1.0259
  154DOPC    C318450   5.059   3.694   6.552  0.6143  0.1739  0.1710
  154DOPC    HX18451   4.989   3.779   6.541 -1.6987 -1.7826 -1.0020
  154DOPC    HY18452   5.021   3.613   6.486 -0.3100  1.5082 -0.9990
  154DOPC   O3118453   5.195   3.722   6.500  0.0636  0.5290 -0.1374
  154DOPC   C3118454   5.230   3.841   6.444  0.1224 -0.5053 -0.7946
  154DOPC   O3218455   5.165   3.948   6.455  0.2979  0.0666 -0.0398
  154DOPC   C3218456   5.369   3.834   6.373 -0.3228  0.4608  0.5195
  154DOPC   H2X18457   5.415   3.747   6.425 -1.8458 -0.2516  0.7361
  154DOPC   H2Y18458   5.341   3.804   6.270  3.1296  1.1504 -0.7502
  154DOPC   C2318459   4.618   3.508   6.642  0.4468  0.1914  0.5967
  154DOPC   H3R18460   4.683   3.431   6.595 -0.2311  0.5008 -0.9054
  154DOPC   H3S18461   4.615   3.591   6.569  0.3260  0.7320  1.2070
  154DOPC   C2418462   4.472   3.456   6.673  0.5148  0.3364  0.6939
  154DOPC   H4R18463   4.409   3.541   6.706 -1.3438 -0.9962  0.7371
  154DOPC   H4S18464   4.468   3.388   6.761 -1.6879 -1.3761 -0.6400
  154DOPC   C2518465   4.385   3.383   6.566 -0.0327  0.4881 -0.2098
  154DOPC   H5R18466   4.378   3.433   6.467 -2.6218 -1.1076 -0.9114
  154DOPC   H5S18467   4.286   3.356   6.607  0.6150 -2.1919 -0.2360
  154DOPC   C2618468   4.444   3.237   6.536 -0.1480  0.4034 -0.0324
  154DOPC   H6R18469   4.431   3.171   6.624 -2.3125 -0.2961 -0.8087
  154DOPC   H6S18470   4.554   3.254   6.540 -0.4020  2.0160  1.9770
  154DOPC   C2718471   4.393   3.166   6.409 -0.4711  0.1778 -0.4927
  154DOPC   H7R18472   4.401   3.217   6.310  0.3236 -2.9254 -2.1714
  154DOPC   H7S18473   4.286   3.147   6.431 -0.7865  2.8262  0.6030
  154DOPC   C2818474   4.453   3.022   6.401 -0.6321 -0.5819  0.0909
  154DOPC   H8R18475   4.387   2.953   6.345 -1.4110  1.9536 -2.3507
  154DOPC   H8S18476   4.469   2.989   6.506  0.2311  0.5778  0.3485
  154DOPC   C2918477   4.592   3.021   6.347 -0.0053  0.1105  0.1218
  154DOPC   H9R18478   4.670   3.081   6.396 -0.1924 -1.7294  2.8705
  154DOPC  C21018479   4.646   2.945   6.246  0.0355 -0.8046  0.0401
  154DOPC  H10R18480   4.752   2.961   6.224  0.1116 -0.5321  0.5841
  154DOPC  C21118481   4.583   2.851   6.151  0.0712  0.2597  0.1594
  154DOPC  H11R18482   4.486   2.815   6.190  1.2754 -1.5163  1.7279
  154DOPC  H11S18483   4.648   2.761   6.135  1.7853  1.2502  1.2775
  154DOPC  C21218484   4.555   2.920   6.018 -0.3512  0.3442 -0.0492
  154DOPC  H12R18485   4.652   2.952   5.973 -0.5014 -0.9599 -1.3805
  154DOPC  H12S18486   4.478   2.999   6.027 -2.3741 -1.6518  1.1685
  154DOPC  C21318487   4.499   2.813   5.925  0.3599  0.5019  0.2984
  154DOPC  H13R18488   4.404   2.788   5.977  0.8892 -0.7349  0.7126
  154DOPC  H13S18489   4.576   2.733   5.923 -0.0467  0.0460  1.9687
  154DOPC  C21418490   4.476   2.851   5.772 -0.1530 -0.1093  0.2456
  154DOPC  H14R18491   4.561   2.906   5.726 -1.2513  1.2142 -0.2960
  154DOPC  H14S18492   4.390   2.922   5.771 -1.3576 -1.5380 -0.5300
  154DOPC  C21518493   4.450   2.727   5.682 -0.3153  0.4706  0.2987
  154DOPC  H15R18494   4.354   2.679   5.711  0.7435 -1.4711  0.7866
  154DOPC  H15S18495   4.534   2.654   5.683 -0.7517 -0.1000 -1.3173
  154DOPC  C21618496   4.450   2.767   5.532 -0.3276 -0.0400  0.2052
  154DOPC  H16R18497   4.554   2.775   5.494 -0.2391  0.9496  0.6196
  154DOPC  H16S18498   4.398   2.866   5.528 -0.0495  0.1149  0.3777
  154DOPC  C21718499   4.382   2.657   5.450 -0.1140 -0.5147 -0.4312
  154DOPC  H17R18500   4.373   2.672   5.340  1.1758  0.9324 -0.3718
  154DOPC  H17S18501   4.280   2.639   5.491 -0.7880  1.3407 -1.1984
  154DOPC  C21818502   4.457   2.518   5.448  0.1196 -1.0138 -0.4369
  154DOPC  H18R18503   4.404   2.451   5.376 -3.7999  2.7620 -1.4989
  154DOPC  H18S18504   4.452   2.482   5.553 -1.2881 -0.8999 -0.4463
  154DOPC  H18T18505   4.563   2.528   5.415  0.0289  0.3544 -0.3755
  154DOPC   C3318506   5.453   3.959   6.377  0.0907  0.1009  0.4217
  154DOPC   H3X18507   5.473   3.972   6.485  0.3258  0.2642  0.3583
  154DOPC   H3Y18508   5.391   4.042   6.337  1.0056  0.5046 -0.1610
  154DOPC   C3418509   5.593   3.955   6.311  0.0064 -0.1439  0.1700
  154DOPC   H4X18510   5.643   3.857   6.327  0.7319 -0.4691 -3.1934
  154DOPC   H4Y18511   5.645   4.043   6.354  1.5045 -0.0170 -1.7428
  154DOPC   C3518512   5.577   3.955   6.157  0.3594  0.5139 -0.4558
  154DOPC   H5X18513   5.518   4.035   6.108 -3.1169 -2.7605 -2.1537
  154DOPC   H5Y18514   5.518   3.864   6.134  0.6778  0.0876  0.3574
  154DOPC   C3618515   5.720   3.943   6.093 -0.6612  0.1594  0.0771
  154DOPC   H6X18516   5.706   3.968   5.986 -1.8105  1.2093  0.4513
  154DOPC   H6Y18517   5.784   4.021   6.140  0.1193  0.2759 -1.1245
  154DOPC   C3718518   5.784   3.804   6.111  0.2244  0.1377 -0.1688
  154DOPC   H7X18519   5.778   3.765   6.215 -0.5973  1.7352  0.4167
  154DOPC   H7Y18520   5.721   3.730   6.058  0.5250  0.4288 -0.9442
  154DOPC   C3818521   5.930   3.795   6.071 -0.4128 -0.0069 -0.2602
  154DOPC   H8X18522   5.977   3.864   6.144 -1.2215  1.9576 -1.5208
  154DOPC   H8Y18523   5.940   3.836   5.969 -0.6844 -1.3162 -0.8320
  154DOPC   C3918524   5.990   3.660   6.088 -1.6532 -0.2091 -0.4749
  154DOPC   H9X18525   6.002   3.640   6.195 -1.6592 -0.5628 -0.5398
  154DOPC  C31018526   6.033   3.574   5.989  0.8279  0.0690 -0.1484
  154DOPC  H10X18527   6.069   3.474   6.018  1.2282  0.3850  0.4783
  154DOPC  C31118528   6.020   3.608   5.844  0.2264  0.3228  0.4433
  154DOPC  H11X18529   6.122   3.600   5.800  0.1981  0.0653  0.4237
  154DOPC  H11Y18530   5.969   3.702   5.813  3.3658  1.9294 -0.3464
  154DOPC  C31218531   5.945   3.494   5.778  0.9360 -0.1594 -0.3265
  154DOPC  H12X18532   5.838   3.499   5.808 -0.3925 -3.5576 -3.6755
  154DOPC  H12Y18533   5.988   3.392   5.784 -0.0983 -0.5399  2.4802
  154DOPC  C31318534   5.936   3.520   5.623 -0.0791  0.0999 -0.7276
  154DOPC  H13X18535   5.897   3.622   5.603 -1.6623 -0.7112 -2.0956
  154DOPC  H13Y18536   6.036   3.508   5.577  0.8576 -1.1718  1.4787
  154DOPC  C31418537   5.850   3.412   5.550 -0.8420  0.4796 -0.4028
  154DOPC  H14X18538   5.888   3.308   5.561 -2.8150 -0.5699 -2.5993
  154DOPC  H14Y18539   5.747   3.423   5.590 -1.1904  0.6490 -1.3175
  154DOPC  C31518540   5.841   3.444   5.400  0.8046  0.1122 -0.3178
  154DOPC  H15X18541   5.935   3.404   5.357  2.0038  1.5926  0.8098
  154DOPC  H15Y18542   5.826   3.551   5.376 -2.6103 -0.4748 -1.3588
  154DOPC  C31618543   5.735   3.356   5.330  0.2462  0.7472 -0.0991
  154DOPC  H16X18544   5.768   3.330   5.228 -0.7208  1.1699 -0.5298
  154DOPC  H16Y18545   5.726   3.259   5.384 -0.6081  0.1731 -1.2532
  154DOPC  C31718546   5.589   3.413   5.315  0.0221  0.4201  0.8274
  154DOPC  H17X18547   5.543   3.403   5.416  2.4047  0.9216  2.0151
  154DOPC  H17Y18548   5.592   3.521   5.289  0.7307 -0.2685 -2.4724
  154DOPC  C31818549   5.503   3.339   5.207  0.4448 -0.0720 -0.3485
  154DOPC  H18X18550   5.398   3.372   5.197  0.5914  1.3305  2.0401
  154DOPC  H18Y18551   5.551   3.344   5.107 -1.0765  0.4509 -1.0661
  154DOPC  H18Z18552   5.490   3.231   5.229  2.6329 -0.2262  0.4483
  155DOPC     N18553   1.457   1.882   7.149  0.7012 -0.2429  0.4471
  155DOPC   C1218554   1.533   1.897   7.015  0.0308  0.1584 -0.3063
  155DOPC  H12A18555   1.616   1.965   7.027 -0.6375  1.0480 -0.6563
  155DOPC  H12B18556   1.466   1.948   6.948 -0.2458  1.7241  1.0891
  155DOPC   C1318557   1.552   1.839   7.253  0.4755 -0.8892 -0.0759
  155DOPC  H13A18558   1.499   1.828   7.347 -1.5898  1.1329 -0.9195
  155DOPC  H13B18559   1.588   1.740   7.230  2.1158 -0.6978  1.4170
  155DOPC  H13C18560   1.637   1.904   7.268 -0.6847  0.4712  0.8934
  155DOPC   C1418561   1.352   1.776   7.154  0.0443  0.0604  0.0853
  155DOPC  H14A18562   1.316   1.769   7.256  1.9313  0.2319  0.8062
  155DOPC  H14B18563   1.276   1.802   7.081 -0.8804  1.4825  1.4933
  155DOPC  H14C18564   1.396   1.681   7.126  0.2245  0.0867  0.2807
  155DOPC   C1518565   1.406   2.019   7.190 -0.5409 -0.8783 -0.3375
  155DOPC  H15A18566   1.325   2.057   7.129  0.6566  1.8556 -0.3573
  155DOPC  H15B18567   1.485   2.093   7.186 -0.6516 -0.7660 -0.4740
  155DOPC  H15C18568   1.384   2.015   7.295 -2.4523 -1.9171 -0.7318
  155DOPC   C1118569   1.585   1.769   6.944  0.3755 -0.3530 -0.0210
  155DOPC  H11A18570   1.500   1.703   6.918 -1.8023  1.1987  2.5723
  155DOPC  H11B18571   1.637   1.793   6.849  0.7558 -0.3798  0.1749
  155DOPC     P18572   1.828   1.736   7.035 -0.2729 -0.2824  0.3368
  155DOPC   O1318573   1.911   1.636   7.107  0.6112  0.2046  0.1447
  155DOPC   O1418574   1.828   1.872   7.093 -0.2287 -0.0270  0.0974
  155DOPC   O1218575   1.679   1.690   7.023 -0.6903 -0.3763 -0.1129
  155DOPC   O1118576   1.871   1.749   6.888 -0.3079  0.8224  0.1912
  155DOPC    C118577   1.910   1.633   6.816 -0.1831  0.3163  0.3996
  155DOPC    HA18578   1.829   1.556   6.814 -0.5697  0.6723 -2.9662
  155DOPC    HB18579   2.003   1.586   6.853  1.3088  2.5097 -0.3424
  155DOPC    C218580   1.933   1.675   6.664 -0.4390  0.9070 -0.4282
  155DOPC    HS18581   1.977   1.583   6.619  0.6893  1.6569 -0.9057
  155DOPC   O2118582   2.013   1.789   6.647  0.0430  0.1202 -0.3237
  155DOPC   C2118583   2.145   1.793   6.690 -0.5452  0.2589  0.5347
  155DOPC   O2218584   2.210   1.706   6.742  0.4498 -0.1905  0.1428
  155DOPC   C2218585   2.210   1.924   6.641 -0.0242 -0.2743  0.2095
  155DOPC   H2R18586   2.271   1.965   6.724 -2.3937  0.0435  1.9016
  155DOPC   H2S18587   2.132   1.999   6.618 -0.0155  0.5329  2.5397
  155DOPC    C318588   1.790   1.700   6.601 -0.3306  0.1136 -0.4220
  155DOPC    HX18589   1.742   1.790   6.643 -0.5371 -1.0559  1.9872
  155DOPC    HY18590   1.717   1.627   6.641 -0.0238  0.5104  0.9139
  155DOPC   O3118591   1.800   1.700   6.456 -0.7891 -0.0840 -0.1091
  155DOPC   C3118592   1.743   1.802   6.399  0.2625  0.6794  0.1644
  155DOPC   O3218593   1.696   1.902   6.451  0.7926 -0.2645 -0.1166
  155DOPC   C3218594   1.757   1.771   6.250 -0.2476 -0.2397 -0.3744
  155DOPC   H2X18595   1.863   1.758   6.220  0.8286  3.9062  0.9067
  155DOPC   H2Y18596   1.706   1.674   6.234  0.4120 -0.8160  0.8656
  155DOPC   C2318597   2.296   1.896   6.514  0.0484  0.4081  0.4911
  155DOPC   H3R18598   2.372   1.818   6.533  1.8289  2.3361  1.6672
  155DOPC   H3S18599   2.345   1.990   6.479  1.3975 -0.4453  0.0348
  155DOPC   C2418600   2.201   1.833   6.410  0.1791  0.0573 -0.5051
  155DOPC   H4R18601   2.127   1.900   6.361  1.1004  0.9869 -0.6475
  155DOPC   H4S18602   2.144   1.743   6.444  0.8394 -0.8110 -1.6088
  155DOPC   C2518603   2.279   1.776   6.294  0.4377  0.2684 -0.1689
  155DOPC   H5R18604   2.355   1.700   6.322  0.6745  0.1065 -1.1896
  155DOPC   H5S18605   2.335   1.856   6.240 -0.7782  0.9546 -0.4485
  155DOPC   C2618606   2.190   1.701   6.181 -0.1225  0.2260 -0.3710
  155DOPC   H6R18607   2.257   1.674   6.097 -0.1642 -1.2119  0.0346
  155DOPC   H6S18608   2.107   1.771   6.160  0.5554  1.0499 -0.3521
  155DOPC   C2718609   2.134   1.562   6.225 -0.2367 -0.2348  0.0824
  155DOPC   H7R18610   2.045   1.553   6.159  0.0230  1.6471 -0.6001
  155DOPC   H7S18611   2.104   1.570   6.332  0.4659 -0.4206  0.2979
  155DOPC   C2818612   2.232   1.452   6.203 -0.1138 -0.7223  0.3485
  155DOPC   H8R18613   2.315   1.474   6.274  0.9466 -1.2867 -0.6751
  155DOPC   H8S18614   2.277   1.461   6.102 -1.9867 -2.4044 -0.7107
  155DOPC   C2918615   2.181   1.314   6.221  0.0058  0.5070  0.3157
  155DOPC   H9R18616   2.188   1.271   6.322 -0.9856 -1.4797 -0.3992
  155DOPC  C21018617   2.138   1.229   6.129 -0.5483 -0.0755 -0.2333
  155DOPC  H10R18618   2.106   1.130   6.166  1.4935 -0.5161  0.4925
  155DOPC  C21118619   2.130   1.257   5.978  0.8319  0.1726  0.2414
  155DOPC  H11R18620   2.153   1.365   5.960 -0.1634  0.8787  2.7834
  155DOPC  H11S18621   2.023   1.246   5.947  0.3841  0.0373  1.7415
  155DOPC  C21218622   2.221   1.176   5.890 -0.6190 -0.3196 -0.2061
  155DOPC  H12R18623   2.193   1.072   5.915 -0.8340 -0.4242 -0.8685
  155DOPC  H12S18624   2.331   1.184   5.906 -0.6430  0.8351 -0.4841
  155DOPC  C21318625   2.191   1.192   5.740  0.4449 -0.6196 -0.3569
  155DOPC  H13R18626   2.235   1.278   5.686 -1.6135 -0.2974 -1.6198
  155DOPC  H13S18627   2.081   1.205   5.731  0.3972 -0.4713  0.3718
  155DOPC  C21418628   2.242   1.075   5.655  0.2223  0.7647  0.1074
  155DOPC  H14R18629   2.192   1.085   5.556  0.1374 -2.0885 -0.2218
  155DOPC  H14S18630   2.190   0.981   5.684  0.5513 -0.2349 -2.2938
  155DOPC  C21518631   2.390   1.064   5.634  0.3684  0.5950  0.8262
  155DOPC  H15R18632   2.447   1.062   5.730  0.9263 -0.2124  0.4951
  155DOPC  H15S18633   2.418   1.159   5.584 -0.4679  0.5955  0.3488
  155DOPC  C21618634   2.431   0.948   5.528  0.2100  0.2070 -0.1655
  155DOPC  H16R18635   2.373   0.957   5.434  2.3372 -1.2546 -1.7051
  155DOPC  H16S18636   2.414   0.849   5.575  0.6720  0.3603  0.3391
  155DOPC  C21718637   2.585   0.954   5.488 -0.0900  0.0212 -0.0999
  155DOPC  H17R18638   2.615   0.859   5.438  2.5699  0.1159  1.1309
  155DOPC  H17S18639   2.643   0.957   5.583 -0.8003 -1.0246  0.3847
  155DOPC  C21818640   2.623   1.073   5.404 -0.3964 -0.1175  0.9462
  155DOPC  H18R18641   2.731   1.068   5.375 -0.6835  1.8760 -0.7089
  155DOPC  H18S18642   2.584   1.164   5.453 -2.2709  0.2417 -1.0472
  155DOPC  H18T18643   2.561   1.067   5.311 -0.0616  2.1774  0.5152
  155DOPC   C3318644   1.703   1.883   6.162  0.0531 -0.0432 -0.7503
  155DOPC   H3X18645   1.616   1.932   6.212  1.1941  1.1559  0.1235
  155DOPC   H3Y18646   1.664   1.830   6.072 -2.0515  1.7056 -0.9569
  155DOPC   C3418647   1.791   1.990   6.097 -0.2070  0.6331 -0.0444
  155DOPC   H4X18648   1.732   2.062   6.037  0.8282  0.0678 -1.7930
  155DOPC   H4Y18649   1.860   1.935   6.029 -1.9475  0.4602 -1.7545
  155DOPC   C3518650   1.888   2.057   6.201 -0.1129 -0.6271  0.6479
  155DOPC   H5X18651   1.954   1.978   6.243 -0.7817 -0.7997  1.3907
  155DOPC   H5Y18652   1.834   2.112   6.281  2.3293 -0.0378  2.0094
  155DOPC   C3618653   1.988   2.161   6.144  0.4070  1.0106 -0.5848
  155DOPC   H6X18654   1.931   2.248   6.104  1.5775  1.8068 -0.5569
  155DOPC   H6Y18655   2.041   2.214   6.226 -1.2751  0.5312  0.8966
  155DOPC   C3718656   2.076   2.113   6.036 -0.3363  0.0461  0.1343
  155DOPC   H7X18657   2.078   2.003   6.047  0.1316  0.1759  1.7138
  155DOPC   H7Y18658   2.049   2.157   5.938  1.3090  1.8262  0.4094
  155DOPC   C3818659   2.222   2.155   6.049  0.5345 -0.4540  0.7040
  155DOPC   H8X18660   2.286   2.112   5.968  0.3640  0.9012 -0.1848
  155DOPC   H8Y18661   2.263   2.120   6.146  2.0711 -0.7804 -0.0314
  155DOPC   C3918662   2.231   2.308   6.047  0.2322 -0.0207  0.4224
  155DOPC   H9X18663   2.178   2.361   6.128 -0.9678 -0.6291  0.0665
  155DOPC  C31018664   2.281   2.379   5.948 -0.0366 -0.2894 -0.0072
  155DOPC  H10X18665   2.271   2.489   5.952  0.6579 -0.2108 -0.3317
  155DOPC  C31118666   2.344   2.330   5.823 -0.2847 -0.4062 -0.1309
  155DOPC  H11X18667   2.353   2.219   5.816 -0.2054 -0.2950 -2.9321
  155DOPC  H11Y18668   2.446   2.374   5.826 -1.5373  2.7699 -0.5825
  155DOPC  C31218669   2.259   2.389   5.703  0.5976 -0.0539 -0.0934
  155DOPC  H12X18670   2.261   2.499   5.718 -0.2166 -0.0149 -0.2153
  155DOPC  H12Y18671   2.158   2.343   5.701  1.1833 -1.4418  0.6487
  155DOPC  C31318672   2.316   2.348   5.567 -0.1432  0.3745 -0.5465
  155DOPC  H13X18673   2.419   2.392   5.563 -0.9176  2.3507 -0.0585
  155DOPC  H13Y18674   2.316   2.238   5.554  0.4560  0.2325  0.5364
  155DOPC  C31418675   2.231   2.408   5.451 -0.9324  0.4250  0.0072
  155DOPC  H14X18676   2.128   2.378   5.480  0.7505 -3.4141  2.9349
  155DOPC  H14Y18677   2.244   2.518   5.447 -2.7521  0.6830  0.1917
  155DOPC  C31518678   2.268   2.344   5.321 -0.1057  0.8396  0.0874
  155DOPC  H15X18679   2.194   2.374   5.244 -0.3201  0.7847  0.2728
  155DOPC  H15Y18680   2.271   2.233   5.317  0.7033  0.8822 -1.4869
  155DOPC  C31618681   2.415   2.375   5.264  0.7650  0.3324  0.1309
  155DOPC  H16X18682   2.447   2.477   5.294 -0.9672  0.9504 -0.0001
  155DOPC  H16Y18683   2.484   2.299   5.307 -0.5994 -0.9638  0.1251
  155DOPC  C31718684   2.425   2.370   5.114 -0.5866 -0.1767  0.1804
  155DOPC  H17X18685   2.360   2.443   5.060  1.1379  0.5535 -1.0017
  155DOPC  H17Y18686   2.528   2.391   5.079 -0.3082 -1.4931  0.1703
  155DOPC  C31818687   2.409   2.226   5.066  0.8347  0.7830 -0.0107
  155DOPC  H18X18688   2.433   2.211   4.958  0.0238  0.7594 -0.1941
  155DOPC  H18Y18689   2.471   2.157   5.127  1.6007 -0.7359 -2.3554
  155DOPC  H18Z18690   2.312   2.178   5.091  1.5238 -0.1286  1.0017
  156DOPC     N18691   6.113   5.472   7.222 -0.2570 -0.3079 -0.2625
  156DOPC   C1218692   6.189   5.534   7.105 -0.2208 -0.7672 -0.0454
  156DOPC  H12A18693   6.261   5.464   7.066 -0.0113 -0.1682 -0.7459
  156DOPC  H12B18694   6.253   5.611   7.145 -0.8988 -0.7202  1.0103
  156DOPC   C1318695   6.013   5.573   7.273 -0.9878  0.4184 -0.5517
  156DOPC  H13A18696   5.947   5.601   7.192 -2.5435 -2.6319 -0.4670
  156DOPC  H13B18697   5.952   5.541   7.356 -2.2927  1.4353 -1.0781
  156DOPC  H13C18698   6.062   5.659   7.316 -0.5738 -0.4584  0.8111
  156DOPC   C1418699   6.221   5.433   7.317  1.3187  0.1373  0.0084
  156DOPC  H14A18700   6.264   5.520   7.364  0.6632  0.7740 -0.5475
  156DOPC  H14B18701   6.186   5.363   7.392  0.0199 -1.2806 -1.8161
  156DOPC  H14C18702   6.295   5.376   7.262 -0.1674 -0.4521 -1.4820
  156DOPC   C1518703   6.039   5.355   7.175  0.0760 -0.2443  0.5155
  156DOPC  H15A18704   5.985   5.299   7.250  1.5169  1.1273  2.6748
  156DOPC  H15B18705   6.106   5.285   7.127 -2.4603 -2.2795 -0.3501
  156DOPC  H15C18706   5.971   5.382   7.095  0.9434  0.9029  0.1407
  156DOPC   C1118707   6.113   5.609   6.990 -0.0633 -0.6698  0.3650
  156DOPC  H11A18708   6.086   5.709   7.030 -0.2561 -0.0053 -1.3144
  156DOPC  H11B18709   6.177   5.629   6.901  0.8387  0.7922  1.3095
  156DOPC     P18710   5.854   5.588   6.917 -0.2034  0.1320  0.2158
  156DOPC   O1318711   5.807   5.661   7.039  0.0584 -0.2897  0.0987
  156DOPC   O1418712   5.768   5.473   6.866 -0.3451 -0.1006 -0.7995
  156DOPC   O1218713   5.997   5.536   6.949 -0.0253 -0.3217 -0.1218
  156DOPC   O1118714   5.885   5.692   6.800  0.2454  0.1648 -0.2439
  156DOPC    C118715   5.960   5.651   6.691  0.0651 -0.2367  0.1518
  156DOPC    HA18716   5.946   5.545   6.661  1.0727 -0.0254 -1.1550
  156DOPC    HB18717   6.067   5.662   6.720  0.6457  1.1107 -2.2207
  156DOPC    C218718   5.925   5.741   6.568 -1.1129  0.9114 -0.3624
  156DOPC    HS18719   5.980   5.700   6.481 -1.2561  2.2221 -1.0861
  156DOPC   O2118720   5.957   5.881   6.593  0.6834 -0.7485 -0.1805
  156DOPC   C2118721   6.086   5.906   6.600  0.9855 -0.7298 -0.1002
  156DOPC   O2218722   6.171   5.824   6.585 -0.4102  0.3545 -0.5691
  156DOPC   C2218723   6.109   6.059   6.620 -0.4328 -0.0083 -0.1822
  156DOPC   H2R18724   6.133   6.065   6.728 -1.8405  0.1000  0.1532
  156DOPC   H2S18725   6.015   6.118   6.609 -0.4003 -0.2453 -2.1114
  156DOPC    C318726   5.777   5.719   6.534  0.4626 -0.9198  0.2552
  156DOPC    HX18727   5.740   5.772   6.443 -0.9670  0.1731  1.4349
  156DOPC    HY18728   5.723   5.771   6.616 -2.0364 -2.3607 -0.3710
  156DOPC   O3118729   5.740   5.577   6.535 -0.2132  0.4404  0.2781
  156DOPC   C3118730   5.611   5.553   6.569  0.1028 -0.3993  0.2522
  156DOPC   O3218731   5.530   5.635   6.611  0.1860  0.4454  0.1304
  156DOPC   C3218732   5.565   5.414   6.533  0.4725  0.7334 -1.1116
  156DOPC   H2X18733   5.561   5.353   6.626  0.2511  0.7658 -1.0997
  156DOPC   H2Y18734   5.456   5.421   6.513  0.3027  0.5993 -0.2712
  156DOPC   C2318735   6.227   6.109   6.537  0.4254 -0.0239  0.3631
  156DOPC   H3R18736   6.308   6.033   6.536  1.0899  0.6809 -0.2985
  156DOPC   H3S18737   6.275   6.201   6.576 -2.7788  1.8803  0.0813
  156DOPC   C2418738   6.200   6.133   6.388 -0.2913 -0.7405 -0.1882
  156DOPC   H4R18739   6.178   6.033   6.342 -1.1124 -1.0318  0.8058
  156DOPC   H4S18740   6.296   6.164   6.343 -1.6574  0.2654 -2.6162
  156DOPC   C2518741   6.098   6.238   6.361 -0.0343  0.1424  0.0804
  156DOPC   H5R18742   6.128   6.342   6.386 -2.7886  0.6370  1.7505
  156DOPC   H5S18743   6.005   6.205   6.414 -1.1197 -0.3926 -2.0441
  156DOPC   C2618744   6.062   6.257   6.211  0.0300 -0.1691 -1.3095
  156DOPC   H6R18745   6.144   6.317   6.169  1.4807  2.4688  4.3422
  156DOPC   H6S18746   5.974   6.325   6.209 -0.7995 -0.9164  2.1637
  156DOPC   C2718747   6.036   6.135   6.123  0.0618 -0.1673  0.1803
  156DOPC   H7R18748   5.947   6.076   6.154  1.5682 -2.2683  0.7784
  156DOPC   H7S18749   6.124   6.067   6.130 -1.2962 -1.9372  0.6755
  156DOPC   C2818750   6.016   6.169   5.971 -0.8712  0.1360  0.3670
  156DOPC   H8R18751   6.032   6.073   5.919  0.5755  0.2443  0.5782
  156DOPC   H8S18752   6.111   6.221   5.947 -1.5124  0.0039 -2.8610
  156DOPC   C2918753   5.894   6.250   5.936  0.1783  0.4444  0.4243
  156DOPC   H9R18754   5.867   6.327   6.010 -0.8942  1.3645 -0.8585
  156DOPC  C21018755   5.811   6.228   5.830 -0.5830 -0.3587 -0.2080
  156DOPC  H10R18756   5.728   6.301   5.829 -0.0784  0.2715  0.9886
  156DOPC  C21118757   5.817   6.120   5.720 -0.2360 -0.4392 -0.2862
  156DOPC  H11R18758   5.716   6.073   5.727 -0.6510  0.5256  0.3957
  156DOPC  H11S18759   5.901   6.050   5.735 -0.4994 -0.4122  1.5377
  156DOPC  C21218760   5.813   6.173   5.567  0.0210  0.8037 -0.4846
  156DOPC  H12R18761   5.829   6.084   5.504  2.4154  0.9239 -0.1181
  156DOPC  H12S18762   5.900   6.241   5.554  0.9087 -0.2265 -0.0853
  156DOPC  C21318763   5.673   6.223   5.520 -0.0746 -0.0373  1.1212
  156DOPC  H13R18764   5.650   6.312   5.583  0.1670 -2.0832  4.3597
  156DOPC  H13S18765   5.612   6.136   5.553  0.8412 -0.5713  1.4675
  156DOPC  C21418766   5.674   6.256   5.373  0.3001 -0.3858  0.1794
  156DOPC  H14R18767   5.704   6.172   5.306  2.4360  0.6264 -0.2015
  156DOPC  H14S18768   5.749   6.334   5.348  0.2622 -0.2900  0.3675
  156DOPC  C21518769   5.533   6.313   5.335  0.0062 -0.9322 -0.4099
  156DOPC  H15R18770   5.501   6.387   5.411 -0.1177 -2.4447  1.0578
  156DOPC  H15S18771   5.450   6.240   5.346 -1.2967  0.3043 -1.6602
  156DOPC  C21618772   5.539   6.382   5.196 -0.0896  0.5428  0.8313
  156DOPC  H16R18773   5.609   6.466   5.217 -0.4698  0.7526  1.2772
  156DOPC  H16S18774   5.436   6.419   5.179 -0.6120 -1.1258  0.0997
  156DOPC  C21718775   5.589   6.299   5.080 -0.5426  0.0081  0.4103
  156DOPC  H17R18776   5.545   6.197   5.078 -0.1124 -0.1807 -1.0764
  156DOPC  H17S18777   5.698   6.284   5.095 -0.2703  0.1585 -1.2287
  156DOPC  C21818778   5.569   6.357   4.939 -0.0647  0.1531 -0.3556
  156DOPC  H18R18779   5.589   6.466   4.930 -1.8309  0.7603  2.0206
  156DOPC  H18S18780   5.464   6.338   4.911 -0.5504 -1.1450  2.1133
  156DOPC  H18T18781   5.627   6.298   4.865 -2.0326 -1.9608 -0.3159
  156DOPC   C3318782   5.646   5.332   6.435  0.1184 -0.4518 -0.6263
  156DOPC   H3X18783   5.618   5.225   6.443 -0.1848 -0.4465 -1.5663
  156DOPC   H3Y18784   5.756   5.341   6.453 -0.2085  1.3804  0.7162
  156DOPC   C3418785   5.620   5.380   6.293  0.5217  0.2238  0.5749
  156DOPC   H4X18786   5.688   5.313   6.235  0.6312  0.0060  0.9557
  156DOPC   H4Y18787   5.644   5.488   6.278  0.6131 -0.1413 -2.5760
  156DOPC   C3518788   5.484   5.351   6.234 -0.5314  0.0885  0.3245
  156DOPC   H5X18789   5.404   5.409   6.285  0.2291  0.9906  0.5151
  156DOPC   H5Y18790   5.470   5.240   6.236  2.5459 -0.3692  0.7906
  156DOPC   C3618791   5.476   5.399   6.086  0.1144 -0.3590 -0.3950
  156DOPC   H6X18792   5.447   5.506   6.089 -0.4592 -0.5469  1.3455
  156DOPC   H6Y18793   5.581   5.393   6.049  0.8510  2.0387  1.1013
  156DOPC   C3718794   5.376   5.324   5.994  0.6523 -0.1426  0.7140
  156DOPC   H7X18795   5.370   5.367   5.892 -2.5326  0.8003  1.1791
  156DOPC   H7Y18796   5.417   5.221   5.983 -0.2668 -0.8762  3.3006
  156DOPC   C3818797   5.226   5.322   6.049 -0.1606 -0.4761  0.1316
  156DOPC   H8X18798   5.227   5.263   6.144 -0.5159 -0.0056  0.4332
  156DOPC   H8Y18799   5.178   5.258   5.972  0.8839 -1.1134 -0.0047
  156DOPC   C3918800   5.163   5.455   6.071  0.0946  0.3046 -0.8612
  156DOPC   H9X18801   5.213   5.544   6.028 -0.8783  0.1428 -2.4235
  156DOPC  C31018802   5.050   5.467   6.146 -0.0209 -0.5027 -0.1342
  156DOPC  H10X18803   5.015   5.571   6.153 -2.5463 -1.2899 -0.1245
  156DOPC  C31118804   4.970   5.356   6.211 -0.6119 -0.2524 -0.2458
  156DOPC  H11X18805   5.023   5.259   6.198 -0.8498 -0.5934  1.1813
  156DOPC  H11Y18806   4.879   5.342   6.148  0.8086  0.5733 -2.6412
  156DOPC  C31218807   4.941   5.396   6.353  0.1001  0.5177 -0.2652
  156DOPC  H12X18808   4.888   5.494   6.356 -0.2007  0.3399  0.5397
  156DOPC  H12Y18809   5.031   5.405   6.418 -1.1152  0.6030  1.4649
  156DOPC  C31318810   4.848   5.293   6.426 -0.1723  0.1221  0.6446
  156DOPC  H13X18811   4.749   5.291   6.377  0.0104 -0.2836  0.2889
  156DOPC  H13Y18812   4.898   5.195   6.408  0.6270  0.8644 -1.4773
  156DOPC  C31418813   4.826   5.320   6.580  0.6047 -0.3257 -0.4962
  156DOPC  H14X18814   4.916   5.299   6.640 -0.0515 -0.9496  0.2921
  156DOPC  H14Y18815   4.794   5.426   6.594  0.1045 -0.5567  0.1727
  156DOPC  C31518816   4.725   5.223   6.642  0.6137  0.2650  0.6933
  156DOPC  H15X18817   4.754   5.117   6.624 -3.0357 -0.6040 -1.2390
  156DOPC  H15Y18818   4.636   5.236   6.575  1.7167 -1.3788 -1.2130
  156DOPC  C31618819   4.692   5.254   6.790  0.0758  0.0272  0.5767
  156DOPC  H16X18820   4.669   5.362   6.798 -1.2058 -0.2610  1.0983
  156DOPC  H16Y18821   4.596   5.202   6.811 -2.3050  2.8165 -2.3410
  156DOPC  C31718822   4.798   5.210   6.888 -0.1242  0.6742  0.8444
  156DOPC  H17X18823   4.815   5.101   6.875  2.3739  1.1404 -0.4583
  156DOPC  H17Y18824   4.895   5.262   6.873  0.0848  0.2581  0.7342
  156DOPC  C31818825   4.733   5.229   7.030  0.7192 -0.0443  0.8756
  156DOPC  H18X18826   4.643   5.167   7.051  0.1086  0.6635  0.4411
  156DOPC  H18Y18827   4.810   5.227   7.110  2.0850 -0.0257 -0.4011
  156DOPC  H18Z18828   4.689   5.331   7.041 -0.6690 -0.5504  0.3563
  157DOPC     N18829   5.611   2.435   7.336 -0.9646  0.2524 -0.0901
  157DOPC   C1218830   5.521   2.524   7.256 -1.1089  0.4476  0.2739
  157DOPC  H12A18831   5.558   2.625   7.263  1.5016 -0.2713 -1.9074
  157DOPC  H12B18832   5.421   2.519   7.297 -1.0300 -1.7971  0.3190
  157DOPC   C1318833   5.568   2.296   7.347 -0.4202 -0.6148  0.0172
  157DOPC  H13A18834   5.620   2.253   7.431 -2.1620  0.5060  1.7350
  157DOPC  H13B18835   5.464   2.286   7.374 -0.5317  0.6340  0.1219
  157DOPC  H13C18836   5.594   2.244   7.256  0.5807 -0.3986  0.1675
  157DOPC   C1418837   5.618   2.484   7.476 -0.4181 -0.5109 -0.8097
  157DOPC  H14A18838   5.689   2.435   7.541 -1.7567 -0.1476  0.9653
  157DOPC  H14B18839   5.676   2.575   7.472  1.2685 -1.2275  2.9418
  157DOPC  H14C18840   5.527   2.498   7.532  0.7428  0.2096  0.9803
  157DOPC   C1518841   5.753   2.446   7.280  0.7458 -0.4588 -0.5112
  157DOPC  H15A18842   5.798   2.542   7.293  0.2353 -0.2849  0.0178
  157DOPC  H15B18843   5.740   2.436   7.173  0.9126 -0.8394 -0.4986
  157DOPC  H15C18844   5.813   2.360   7.304  0.3199 -0.7221 -0.3646
  157DOPC   C1118845   5.500   2.491   7.105 -0.1798  0.2589 -0.2464
  157DOPC  H11A18846   5.450   2.392   7.108 -1.1130  0.7374  0.2430
  157DOPC  H11B18847   5.422   2.553   7.056  0.1675  0.3591 -0.6835
  157DOPC     P18848   5.683   2.603   6.964 -0.3356  0.0666 -0.2375
  157DOPC   O1318849   5.826   2.595   7.001  0.3700  0.4616 -0.0197
  157DOPC   O1418850   5.611   2.729   7.004  0.3898  0.4896 -0.1651
  157DOPC   O1218851   5.618   2.475   7.025 -0.0925  0.5279  0.4292
  157DOPC   O1118852   5.661   2.577   6.810 -0.2644  0.1030 -0.1882
  157DOPC    C118853   5.554   2.495   6.757 -0.3457 -0.1717  0.4548
  157DOPC    HA18854   5.458   2.540   6.791  0.7814  1.5417  1.5485
  157DOPC    HB18855   5.558   2.387   6.782  1.9289 -0.5765 -1.2467
  157DOPC    C218856   5.546   2.513   6.606  0.4015  0.4744  0.2845
  157DOPC    HS18857   5.482   2.435   6.560  0.0766  0.8402  0.1040
  157DOPC   O2118858   5.676   2.507   6.542  0.1754  0.1182 -0.3895
  157DOPC   C2118859   5.745   2.397   6.556 -0.3603  0.2077  0.0155
  157DOPC   O2218860   5.706   2.293   6.606 -0.0405  0.1674 -0.3675
  157DOPC   C2218861   5.894   2.418   6.499 -0.2047 -0.2496 -0.3619
  157DOPC   H2R18862   5.954   2.432   6.591  0.6336 -0.3235 -0.8959
  157DOPC   H2S18863   5.899   2.514   6.443 -0.2622  0.8575  1.4434
  157DOPC    C318864   5.487   2.650   6.577  1.0490  0.0269  0.1859
  157DOPC    HX18865   5.542   2.728   6.633 -4.1897  2.3994  2.7394
  157DOPC    HY18866   5.380   2.647   6.608 -0.0683  0.4649 -3.1414
  157DOPC   O3118867   5.503   2.677   6.433  0.1659 -0.0720 -0.3052
  157DOPC   C3118868   5.439   2.593   6.355  0.0434 -0.2645 -0.2569
  157DOPC   O3218869   5.351   2.514   6.380 -1.0527  0.1642 -0.2878
  157DOPC   C3218870   5.483   2.616   6.211  0.5624 -0.3407  0.2951
  157DOPC   H2X18871   5.471   2.722   6.179 -1.0012 -0.1327  1.4599
  157DOPC   H2Y18872   5.590   2.593   6.191 -0.1832 -1.4184 -3.1807
  157DOPC   C2318873   5.965   2.299   6.430  0.4672 -0.3119 -0.5892
  157DOPC   H3R18874   5.911   2.275   6.336  0.9892 -0.3338 -0.8846
  157DOPC   H3S18875   5.956   2.210   6.496  0.8559  0.4542  0.5351
  157DOPC   C2418876   6.112   2.323   6.398 -0.7276 -0.2997 -0.3740
  157DOPC   H4R18877   6.158   2.225   6.376 -2.1354 -1.0572 -0.0928
  157DOPC   H4S18878   6.152   2.365   6.493  0.6283 -1.2578 -0.5094
  157DOPC   C2518879   6.147   2.430   6.294  0.5595  0.4328  0.5605
  157DOPC   H5R18880   6.253   2.454   6.315  0.8992 -1.4510  1.1804
  157DOPC   H5S18881   6.085   2.520   6.311 -0.8203 -0.1157 -1.2254
  157DOPC   C2618882   6.117   2.396   6.146 -0.2732  0.2836  0.1600
  157DOPC   H6R18883   6.138   2.489   6.089 -1.3166 -0.1722 -1.0150
  157DOPC   H6S18884   6.011   2.366   6.128 -0.5730 -0.2875  2.5673
  157DOPC   C2718885   6.191   2.270   6.099  0.1514 -0.0061  0.2651
  157DOPC   H7R18886   6.170   2.237   5.995  0.6336  0.6135 -0.0371
  157DOPC   H7S18887   6.156   2.193   6.171 -3.1228  0.4372 -0.7039
  157DOPC   C2818888   6.346   2.299   6.117 -0.5871  0.1424  0.5125
  157DOPC   H8R18889   6.361   2.301   6.227  0.3227 -0.7634  0.4205
  157DOPC   H8S18890   6.373   2.398   6.072 -1.5187  0.8703  1.5120
  157DOPC   C2918891   6.440   2.188   6.067  0.7086  0.9018  0.8926
  157DOPC   H9R18892   6.409   2.090   6.105 -1.2000  1.7959  1.8056
  157DOPC  C21018893   6.550   2.203   5.994  0.2762 -0.6144 -0.6985
  157DOPC  H10R18894   6.603   2.113   5.958  0.1877 -1.6194  1.5535
  157DOPC  C21118895   6.600   2.337   5.947 -0.4375 -1.4580 -1.1060
  157DOPC  H11R18896   6.711   2.332   5.955  0.0753  2.1874 -3.4795
  157DOPC  H11S18897   6.576   2.423   6.014 -0.6523 -1.7122 -0.8521
  157DOPC  C21218898   6.568   2.360   5.808  0.1935 -0.6088  0.3372
  157DOPC  H12R18899   6.461   2.384   5.790  0.6777  0.3310 -1.5584
  157DOPC  H12S18900   6.587   2.266   5.752  1.2549 -0.8316  1.0330
  157DOPC  C21318901   6.645   2.477   5.734 -0.0704  0.5034  0.1583
  157DOPC  H13R18902   6.751   2.472   5.768 -0.1961  1.0761  0.6535
  157DOPC  H13S18903   6.611   2.577   5.768  0.1210  1.1393 -1.4208
  157DOPC  C21418904   6.647   2.474   5.581  0.3205 -0.0449 -0.0901
  157DOPC  H14R18905   6.542   2.487   5.549 -0.5645  3.4793  3.3880
  157DOPC  H14S18906   6.691   2.377   5.550 -0.5958 -1.0163  1.5011
  157DOPC  C21518907   6.734   2.586   5.516 -0.0677 -0.5934  0.0617
  157DOPC  H15R18908   6.838   2.572   5.554 -0.8547 -2.4112  1.7927
  157DOPC  H15S18909   6.687   2.683   5.542  1.8076  0.4114 -0.1415
  157DOPC  C21618910   6.750   2.570   5.358  0.1586 -1.0594  0.5880
  157DOPC  H16R18911   6.648   2.573   5.315  0.6560  0.5553 -0.5675
  157DOPC  H16S18912   6.790   2.470   5.332  0.2934 -1.4691  2.2201
  157DOPC  C21718913   6.845   2.681   5.303  0.3239  0.2656 -0.3583
  157DOPC  H17R18914   6.947   2.660   5.341  0.0407 -0.7408 -0.1131
  157DOPC  H17S18915   6.823   2.772   5.363  2.3354 -1.2506  2.9169
  157DOPC  C21818916   6.837   2.698   5.152  0.1079 -0.4671 -0.0489
  157DOPC  H18R18917   6.880   2.608   5.104 -1.0729 -1.7280  1.1386
  157DOPC  H18S18918   6.889   2.794   5.130  0.5716 -0.0594  2.5609
  157DOPC  H18T18919   6.731   2.699   5.118  0.3988 -2.4255 -1.1530
  157DOPC   C3318920   5.408   2.527   6.109 -0.5437 -0.8821  0.9401
  157DOPC   H3X18921   5.305   2.562   6.089 -0.5463 -0.6762  1.3075
  157DOPC   H3Y18922   5.402   2.420   6.141  0.6528 -1.8766 -1.8389
  157DOPC   C3418923   5.476   2.534   5.969 -0.3784  0.1589 -0.3201
  157DOPC   H4X18924   5.584   2.513   5.986 -0.1985 -0.1393 -1.7052
  157DOPC   H4Y18925   5.475   2.635   5.924 -0.0467 -0.7854 -2.5679
  157DOPC   C3518926   5.418   2.423   5.879 -0.6604 -0.0162 -0.0193
  157DOPC   H5X18927   5.309   2.435   5.859 -0.8642 -0.9669  0.4585
  157DOPC   H5Y18928   5.418   2.326   5.933 -2.3629  0.1148  0.2921
  157DOPC   C3618929   5.490   2.389   5.747 -0.2555  0.2368 -0.1040
  157DOPC   H6X18930   5.600   2.380   5.761 -0.2038  2.3518  1.3085
  157DOPC   H6Y18931   5.440   2.295   5.716 -1.0564  0.5029  0.3584
  157DOPC   C3718932   5.477   2.495   5.640 -0.3960 -0.2213  0.2001
  157DOPC   H7X18933   5.379   2.547   5.636 -0.0551  0.3084 -2.0006
  157DOPC   H7Y18934   5.552   2.575   5.655  0.1157 -0.1172 -2.4516
  157DOPC   C3818935   5.502   2.438   5.500  0.0879  0.2972  0.7193
  157DOPC   H8X18936   5.420   2.364   5.490  0.1786  0.4268 -1.6251
  157DOPC   H8Y18937   5.601   2.391   5.521 -0.4579 -0.3325  1.9993
  157DOPC   C3918938   5.515   2.536   5.386 -0.1278 -0.3158 -0.1194
  157DOPC   H9X18939   5.610   2.590   5.377  0.1340 -0.8342 -0.5578
  157DOPC  C31018940   5.432   2.551   5.279  0.5890  0.1209 -0.0720
  157DOPC  H10X18941   5.465   2.600   5.186  2.0614 -1.8322 -0.6225
  157DOPC  C31118942   5.312   2.465   5.250  0.2769  0.5002 -0.6233
  157DOPC  H11X18943   5.230   2.529   5.210 -0.0114  1.6296  1.6199
  157DOPC  H11Y18944   5.273   2.421   5.345  0.1660  2.8227  0.4947
  157DOPC  C31218945   5.324   2.356   5.140  0.3488  0.0140  0.3359
  157DOPC  H12X18946   5.335   2.405   5.040 -0.7328  1.9435  1.1182
  157DOPC  H12Y18947   5.224   2.307   5.140  2.0974 -3.9463  0.7163
  157DOPC  C31318948   5.434   2.251   5.155 -0.3118  0.4846  0.3819
  157DOPC  H13X18949   5.523   2.308   5.120 -1.3395  0.2228 -3.0617
  157DOPC  H13Y18950   5.456   2.214   5.257 -0.8999 -4.5556 -1.0397
  157DOPC  C31418951   5.413   2.128   5.054  0.3666  0.0906  0.3116
  157DOPC  H14X18952   5.454   2.163   4.957 -0.1057  0.4356  0.2343
  157DOPC  H14Y18953   5.489   2.053   5.085  0.4800 -0.1948 -0.6402
  157DOPC  C31518954   5.272   2.063   5.053 -0.0255  0.6438  0.6166
  157DOPC  H15X18955   5.282   1.993   4.968  3.3051 -0.8951  2.1061
  157DOPC  H15Y18956   5.195   2.141   5.031 -1.0916 -0.7528 -0.8159
  157DOPC  C31618957   5.250   1.980   5.180  0.2090 -0.3321 -0.6836
  157DOPC  H16X18958   5.345   1.948   5.228  0.0428  0.0302 -0.1017
  157DOPC  H16Y18959   5.213   2.052   5.255  0.3751  0.0195 -0.9374
  157DOPC  C31718960   5.146   1.863   5.162  0.1038  0.4444 -0.1580
  157DOPC  H17X18961   5.071   1.908   5.094 -0.5612  2.3561  1.7364
  157DOPC  H17Y18962   5.196   1.791   5.093  2.0972  1.5083  0.0788
  157DOPC  C31818963   5.083   1.811   5.288  0.2053  0.1144  0.4927
  157DOPC  H18X18964   5.017   1.724   5.266  1.8860 -0.7441 -1.3692
  157DOPC  H18Y18965   5.157   1.780   5.364 -0.1471 -2.3037 -0.0739
  157DOPC  H18Z18966   5.012   1.892   5.317  0.3826  1.4757 -2.5135
  158DOPC     N18967   4.942   7.326   7.262  0.2991 -0.4316  0.1643
  158DOPC   C1218968   4.980   7.195   7.187 -0.0826 -0.8490  0.0673
  158DOPC  H12A18969   4.926   7.110   7.227  1.9469 -2.6002 -0.7126
  158DOPC  H12B18970   5.087   7.193   7.199  0.1607  0.7469 -1.5303
  158DOPC   C1318971   4.976   7.308   7.413 -0.3650 -0.0077 -0.4640
  158DOPC  H13A18972   4.927   7.219   7.449  0.6316 -0.5871 -0.4808
  158DOPC  H13B18973   5.082   7.284   7.416 -0.9650 -2.9593 -0.5118
  158DOPC  H13C18974   4.960   7.398   7.471 -1.5849 -0.8675  0.5691
  158DOPC   C1418975   4.796   7.359   7.248 -0.4284  0.1045  0.4370
  158DOPC  H14A18976   4.740   7.269   7.268 -0.9607 -0.0172 -1.4419
  158DOPC  H14B18977   4.773   7.440   7.316  0.6811  0.9064 -0.1052
  158DOPC  H14C18978   4.771   7.396   7.150 -1.6106 -0.7654  0.3860
  158DOPC   C1518979   5.012   7.443   7.209 -0.3401  0.3734 -0.1735
  158DOPC  H15A18980   4.995   7.531   7.269  1.9177 -0.1724  1.3841
  158DOPC  H15B18981   4.991   7.471   7.107 -1.9775  0.3732  0.1421
  158DOPC  H15C18982   5.118   7.424   7.220 -0.2681 -1.2980 -2.9433
  158DOPC   C1118983   4.959   7.192   7.031 -0.1873 -0.2987 -0.5166
  158DOPC  H11A18984   5.011   7.283   6.994 -0.9726  0.5575  0.4043
  158DOPC  H11B18985   5.015   7.107   6.986  0.7718  1.1783 -2.2409
  158DOPC     P18986   4.775   7.254   6.860 -0.3480  0.2544 -0.2052
  158DOPC   O1318987   4.705   7.385   6.876 -0.4120 -0.1824 -0.1525
  158DOPC   O1418988   4.699   7.150   6.792  0.2127  0.4365  0.1701
  158DOPC   O1218989   4.816   7.194   6.996 -0.1739 -0.2904 -0.0195
  158DOPC   O1118990   4.905   7.267   6.778 -0.5525  0.0349 -0.2460
  158DOPC    C118991   4.928   7.366   6.677  0.4362  0.3142  0.9706
  158DOPC    HA18992   5.035   7.366   6.646 -0.0763 -1.6474 -1.0662
  158DOPC    HB18993   4.915   7.473   6.706  0.0182  0.6336 -0.3245
  158DOPC    C218994   4.841   7.348   6.550 -0.3133  0.7036 -0.0765
  158DOPC    HS18995   4.736   7.347   6.587  0.0511 -0.2097  0.9745
  158DOPC   O2118996   4.884   7.217   6.487 -0.4870  0.1572  0.4584
  158DOPC   C2118997   4.775   7.159   6.440  0.4975  0.2365 -1.0058
  158DOPC   O2218998   4.659   7.191   6.454  0.0431  0.0767 -0.5498
  158DOPC   C2218999   4.808   7.042   6.362  0.1446 -0.2444 -1.4409
  158DOPC   H2R19000   4.720   6.996   6.312 -0.1171 -0.5547 -0.6990
  158DOPC   H2S19001   4.856   6.972   6.433 -0.4825  2.6506  2.1543
  158DOPC    C319002   4.849   7.464   6.453  1.0625  0.1163 -0.2505
  158DOPC    HX19003   4.952   7.483   6.414  2.6165 -1.1794  2.8170
  158DOPC    HY19004   4.812   7.551   6.511  0.5050 -0.6411  0.5506
  158DOPC   O3119005   4.772   7.450   6.330  0.3023 -0.0965  0.0216
  158DOPC   C3119006   4.652   7.491   6.338 -0.1091  0.2359  0.3322
  158DOPC   O3219007   4.586   7.502   6.442 -1.0230  0.5086 -0.1640
  158DOPC   C3219008   4.616   7.528   6.194  0.0851 -0.8605 -0.4527
  158DOPC   H2X19009   4.704   7.587   6.159  0.1261 -1.5777 -1.6222
  158DOPC   H2Y19010   4.586   7.446   6.126 -0.5628 -0.5228 -0.5815
  158DOPC   C2319011   4.907   7.080   6.250 -0.4129  0.4143  0.3435
  158DOPC   H3R19012   4.960   6.990   6.215 -1.7565 -0.9980  1.7655
  158DOPC   H3S19013   4.982   7.147   6.297  0.1869 -1.1501  1.6976
  158DOPC   C2419014   4.834   7.144   6.133  0.0704  0.1599  0.1673
  158DOPC   H4R19015   4.820   7.253   6.155  0.2956  0.1761  0.2333
  158DOPC   H4S19016   4.736   7.094   6.121  0.9080 -1.1202 -1.7765
  158DOPC   C2519017   4.905   7.132   5.996 -0.3690 -0.3141  0.4011
  158DOPC   H5R19018   5.014   7.147   6.010 -0.4693 -0.0538  0.9282
  158DOPC   H5S19019   4.866   7.217   5.936 -1.0034  0.2765  1.5964
  158DOPC   C2619020   4.875   6.997   5.931 -0.4941 -0.0804 -0.0075
  158DOPC   H6R19021   4.769   6.980   5.904  0.0587 -1.3744 -1.4864
  158DOPC   H6S19022   4.885   6.918   6.009 -0.2675  0.3052  0.3579
  158DOPC   C2719023   4.957   6.975   5.804  0.2882  0.2989  0.2965
  158DOPC   H7R19024   5.065   6.960   5.825  0.4101  0.2439 -0.3471
  158DOPC   H7S19025   4.940   7.059   5.733  1.4608  1.5837  1.4665
  158DOPC   C2819026   4.933   6.837   5.735  0.0135  0.1905  0.6214
  158DOPC   H8R19027   4.934   6.771   5.824 -0.0092 -0.0428  0.4511
  158DOPC   H8S19028   5.018   6.811   5.668 -1.5377  0.4986 -1.5543
  158DOPC   C2919029   4.796   6.849   5.668 -0.1890  0.0044  0.0046
  158DOPC   H9R19030   4.714   6.855   5.741  0.6890 -0.6081  1.0815
  158DOPC  C21019031   4.771   6.875   5.539 -0.2561  0.6257  0.4621
  158DOPC  H10R19032   4.669   6.898   5.504  0.4689  2.1996 -0.7801
  158DOPC  C21119033   4.880   6.893   5.436 -0.0443  0.4681 -1.2982
  158DOPC  H11R19034   4.851   6.817   5.360  0.4708 -1.0519 -0.0086
  158DOPC  H11S19035   4.983   6.871   5.469  0.3556 -0.3650 -3.0152
  158DOPC  C21219036   4.878   7.029   5.372  0.0754 -0.3410  0.1381
  158DOPC  H12R19037   4.966   7.035   5.305  0.0957  0.3740  0.2222
  158DOPC  H12S19038   4.908   7.099   5.453  1.2427  0.9915 -1.3857
  158DOPC  C21319039   4.750   7.082   5.309 -0.6937  0.3538 -0.5209
  158DOPC  H13R19040   4.770   7.188   5.284 -0.4573  0.7631  1.2508
  158DOPC  H13S19041   4.668   7.076   5.384 -1.1458  0.2935 -1.0185
  158DOPC  C21419042   4.714   7.012   5.182 -1.2765 -0.1678  0.1432
  158DOPC  H14R19043   4.692   6.904   5.198  2.8099 -0.9438  1.4589
  158DOPC  H14S19044   4.798   7.007   5.109  0.7938 -1.3086  2.4758
  158DOPC  C21519045   4.598   7.080   5.114  0.3063  0.1584  0.0833
  158DOPC  H15R19046   4.618   7.188   5.100  3.8956 -0.4270 -0.2438
  158DOPC  H15S19047   4.508   7.066   5.178  0.2539  0.6958  0.1350
  158DOPC  C21619048   4.561   7.009   4.981 -0.9003 -0.3065 -0.0544
  158DOPC  H16R19049   4.454   7.034   4.962 -1.0420  0.1709  1.2970
  158DOPC  H16S19050   4.567   6.901   5.005  1.0194 -0.0765  0.6624
  158DOPC  C21719051   4.641   7.067   4.866 -0.3525  0.3481  0.1095
  158DOPC  H17R19052   4.745   7.028   4.863 -0.3606  0.3250 -3.3121
  158DOPC  H17S19053   4.649   7.178   4.859  0.9388  0.2691  0.0891
  158DOPC  C21819054   4.567   7.018   4.734 -0.3685 -0.4850 -0.1407
  158DOPC  H18R19055   4.470   7.072   4.739  1.3173  2.7040  2.5644
  158DOPC  H18S19056   4.556   6.908   4.737  0.5573 -0.7271 -3.1972
  158DOPC  H18T19057   4.631   7.049   4.649 -2.6354  3.6395 -0.6378
  158DOPC   C3319058   4.499   7.633   6.195 -0.3964  0.6300 -0.2951
  158DOPC   H3X19059   4.513   7.713   6.270  1.5359  0.0162  0.0392
  158DOPC   H3Y19060   4.411   7.570   6.223  0.9169 -1.2864 -0.2728
  158DOPC   C3419061   4.487   7.687   6.052 -0.2309  0.9758 -0.2575
  158DOPC   H4X19062   4.461   7.610   5.977  0.8296  1.0040 -0.6686
  158DOPC   H4Y19063   4.579   7.742   6.022 -0.1501  1.7259  1.2248
  158DOPC   C3519064   4.375   7.793   6.042  0.0595 -0.1629  0.3445
  158DOPC   H5X19065   4.387   7.856   6.133  0.1963  1.3981 -0.7281
  158DOPC   H5Y19066   4.276   7.744   6.055  0.0862  0.0349  1.3640
  158DOPC   C3619067   4.376   7.883   5.918  0.0607 -0.4058  0.3057
  158DOPC   H6X19068   4.279   7.936   5.921 -0.5087 -1.3833 -0.2509
  158DOPC   H6Y19069   4.468   7.945   5.921  0.9792 -1.6196 -1.2609
  158DOPC   C3719070   4.376   7.803   5.789 -0.3893  0.4179 -0.5166
  158DOPC   H7X19071   4.456   7.727   5.777 -3.7110 -3.6097  0.5073
  158DOPC   H7Y19072   4.288   7.735   5.792  1.0425 -1.4913  1.0574
  158DOPC   C3819073   4.359   7.895   5.667 -0.3425 -0.7743  0.7153
  158DOPC   H8X19074   4.263   7.946   5.691  0.1720  1.8565 -2.1466
  158DOPC   H8Y19075   4.352   7.830   5.577  1.8196  1.2378 -1.0269
  158DOPC   C3919076   4.483   7.992   5.650  0.5280  0.5298  0.3828
  158DOPC   H9X19077   4.579   7.939   5.654 -0.3533 -1.1435  0.6429
  158DOPC  C31019078   4.491   8.127   5.633  0.5023 -0.2405  0.4270
  158DOPC  H10X19079   4.592   8.172   5.634  0.9336 -1.1337  2.4385
  158DOPC  C31119080   4.365   8.208   5.631 -0.0313 -0.5654  0.0071
  158DOPC  H11X19081   4.341   8.250   5.731 -0.9458 -0.5651 -0.2048
  158DOPC  H11Y19082   4.278   8.144   5.606 -0.1667  0.2110 -1.6077
  158DOPC  C31219083   4.383   8.329   5.541 -0.2447  0.7317  0.4515
  158DOPC  H12X19084   4.419   8.284   5.445 -0.7727  1.3283 -0.0304
  158DOPC  H12Y19085   4.468   8.391   5.574  0.5612 -0.2283  0.2484
  158DOPC  C31319086   4.258   8.415   5.517  0.1692 -0.2523 -0.2801
  158DOPC  H13X19087   4.218   8.463   5.609 -0.2830 -0.8184 -0.1777
  158DOPC  H13Y19088   4.300   8.496   5.454  0.8543 -0.5014 -0.1615
  158DOPC  C31419089   4.143   8.342   5.440  0.1549  0.7858  0.1041
  158DOPC  H14X19090   4.192   8.309   5.347  0.0997 -0.4379  0.4985
  158DOPC  H14Y19091   4.110   8.258   5.505  1.0135  0.1610 -0.2496
  158DOPC  C31519092   4.022   8.423   5.386 -0.0014 -1.0491  0.6526
  158DOPC  H15X19093   4.071   8.514   5.346 -2.7994 -0.4811 -1.8606
  158DOPC  H15Y19094   3.955   8.441   5.472  1.8316 -0.3241  2.0002
  158DOPC  C31619095   3.943   8.343   5.290  0.1581  0.2872  0.0456
  158DOPC  H16X19096   3.918   8.240   5.324 -1.0377  0.6154  0.1989
  158DOPC  H16Y19097   3.846   8.396   5.276  0.0365  0.2707  0.8100
  158DOPC  C31719098   3.998   8.339   5.149 -0.2533 -0.1246 -0.0990
  158DOPC  H17X19099   4.074   8.257   5.146 -0.7718 -0.6734  1.1723
  158DOPC  H17Y19100   3.917   8.316   5.077  0.5890  0.5402 -1.2937
  158DOPC  C31819101   4.067   8.467   5.085  0.0620  0.2042  0.0224
  158DOPC  H18X19102   4.000   8.556   5.086 -0.3353 -0.0802  1.3927
  158DOPC  H18Y19103   4.157   8.504   5.139 -0.6613  0.9491  0.7494
  158DOPC  H18Z19104   4.100   8.441   4.983  1.8100 -1.0468  0.8533
  159DOPC     N19105   6.547   3.353   7.054  0.3679 -0.1675  0.8669
  159DOPC   C1219106   6.641   3.342   6.933  0.0740 -0.0817 -0.9131
  159DOPC  H12A19107   6.737   3.307   6.967 -0.4443 -0.1682  0.5577
  159DOPC  H12B19108   6.652   3.442   6.894 -2.9889  0.7832  0.1011
  159DOPC   C1319109   6.476   3.217   7.077  0.5451  0.3503 -0.0901
  159DOPC  H13A19110   6.557   3.156   7.115  0.7702  1.3219  1.0320
  159DOPC  H13B19111   6.389   3.226   7.140  0.4351 -0.3935 -0.1280
  159DOPC  H13C19112   6.438   3.172   6.986 -0.1053 -0.4703  0.5729
  159DOPC   C1419113   6.434   3.455   7.025 -0.4655  0.2865  0.1782
  159DOPC  H14A19114   6.374   3.424   6.941 -0.6783 -0.5586  0.6379
  159DOPC  H14B19115   6.372   3.463   7.113  0.9676 -1.2880  1.4094
  159DOPC  H14C19116   6.473   3.551   6.995 -0.9609  0.0716 -1.2124
  159DOPC   C1519117   6.624   3.404   7.173  0.3847  0.6706 -0.4605
  159DOPC  H15A19118   6.566   3.423   7.263  1.8996 -2.1866  1.2456
  159DOPC  H15B19119   6.660   3.504   7.154 -0.2610  0.9050 -0.4669
  159DOPC  H15C19120   6.714   3.350   7.197  0.5233  0.8533 -0.5666
  159DOPC   C1119121   6.584   3.259   6.814 -0.2573 -0.1239 -0.0477
  159DOPC  H11A19122   6.482   3.291   6.783 -0.7463 -2.0922 -0.6725
  159DOPC  H11B19123   6.649   3.274   6.725 -1.2858 -2.0464 -1.1912
  159DOPC     P19124   6.689   3.010   6.804 -0.0075  0.0039  0.0808
  159DOPC   O1319125   6.630   2.885   6.861 -0.4129  0.5676  0.4510
  159DOPC   O1419126   6.825   3.045   6.859  0.3505 -0.4445  0.1568
  159DOPC   O1219127   6.582   3.124   6.832  0.5534  0.1617 -0.1349
  159DOPC   O1119128   6.694   3.008   6.648 -0.6321  0.3280 -0.2525
  159DOPC    C119129   6.575   2.968   6.570 -0.1626 -0.0279 -0.1399
  159DOPC    HA19130   6.588   2.994   6.463  2.7165 -4.3776 -1.1138
  159DOPC    HB19131   6.478   3.002   6.611 -0.0443 -0.8191  0.8483
  159DOPC    C219132   6.551   2.810   6.554  0.2815  0.4435 -1.1616
  159DOPC    HS19133   6.566   2.770   6.657 -2.6319  0.9522 -0.4626
  159DOPC   O2119134   6.654   2.752   6.472  0.3974 -0.2194 -0.0795
  159DOPC   C2119135   6.671   2.623   6.459  0.0459  0.1705 -0.4559
  159DOPC   O2219136   6.600   2.533   6.504 -0.2636 -0.1725  0.0964
  159DOPC   C2219137   6.805   2.605   6.385 -0.4659  0.1936  0.3780
  159DOPC   H2R19138   6.853   2.518   6.433 -0.1180 -0.1901 -0.6540
  159DOPC   H2S19139   6.874   2.687   6.417  2.7290 -2.7191  1.5131
  159DOPC    C319140   6.407   2.786   6.503  0.3393  0.3773 -0.2248
  159DOPC    HX19141   6.348   2.825   6.588  0.9132 -0.4218  0.5563
  159DOPC    HY19142   6.393   2.676   6.489 -0.6971  0.6434 -1.4997
  159DOPC   O3119143   6.370   2.864   6.387 -0.2847 -0.3272  0.1773
  159DOPC   C3119144   6.389   2.798   6.271 -0.2829 -0.4873  0.0782
  159DOPC   O3219145   6.411   2.678   6.260 -0.3100  0.3758 -1.0119
  159DOPC   C3219146   6.391   2.895   6.161  0.8605  0.4410 -0.1666
  159DOPC   H2X19147   6.284   2.919   6.145 -0.2881 -3.7828 -0.0236
  159DOPC   H2Y19148   6.448   2.986   6.187 -0.4874  1.7663 -1.6257
  159DOPC   C2319149   6.777   2.596   6.230 -0.6101  0.1377 -0.7224
  159DOPC   H3R19150   6.718   2.686   6.206 -1.2369  0.1929  0.9119
  159DOPC   H3S19151   6.710   2.509   6.216 -0.8089 -0.1826  1.8451
  159DOPC   C2419152   6.911   2.578   6.152  0.2108  0.4680  0.5025
  159DOPC   H4R19153   6.954   2.479   6.176 -1.1690  0.0528  1.3885
  159DOPC   H4S19154   6.987   2.647   6.195 -0.8374  1.1164  1.3784
  159DOPC   C2519155   6.906   2.602   5.999 -0.1374 -0.0489 -0.2985
  159DOPC   H5R19156   6.856   2.700   5.982 -0.9267 -0.5871 -1.2124
  159DOPC   H5S19157   6.842   2.522   5.955  0.2848 -1.0136  0.7995
  159DOPC   C2619158   7.048   2.590   5.926  0.3072 -0.4484 -0.0385
  159DOPC   H6R19159   7.095   2.491   5.946  1.3015  0.2663  1.3747
  159DOPC   H6S19160   7.121   2.657   5.977  1.3893  0.4835 -2.6583
  159DOPC   C2719161   7.032   2.626   5.779  0.3189  0.2025  0.6604
  159DOPC   H7R19162   6.996   2.731   5.768 -0.6762 -0.2701 -1.0488
  159DOPC   H7S19163   6.955   2.555   5.740  0.2718  1.2064 -1.2122
  159DOPC   C2819164   7.162   2.608   5.702 -0.2131  0.4917 -0.1151
  159DOPC   H8R19165   7.209   2.514   5.739 -0.1259  0.1405 -1.0857
  159DOPC   H8S19166   7.236   2.683   5.735  0.7050 -0.6507  0.5184
  159DOPC   C2919167   7.152   2.599   5.550  0.5307 -0.5464  0.1600
  159DOPC   H9R19168   7.110   2.504   5.513 -1.7705 -0.0627  1.3190
  159DOPC  C21019169   7.193   2.703   5.465  0.3281  0.8844 -0.2455
  159DOPC  H10R19170   7.180   2.685   5.358 -1.8250  1.0221 -0.0440
  159DOPC  C21119171   7.246   2.837   5.493  0.2953  0.0961  0.7692
  159DOPC  H11R19172   7.353   2.841   5.463  0.2344 -0.1368  0.5171
  159DOPC  H11S19173   7.250   2.870   5.599 -1.0296  1.4101  0.4300
  159DOPC  C21219174   7.166   2.957   5.429 -0.4487  0.1275 -0.1022
  159DOPC  H12R19175   7.221   3.051   5.448  0.2212 -0.3783  0.5673
  159DOPC  H12S19176   7.064   2.976   5.469 -0.7563 -0.1836 -0.7217
  159DOPC  C21319177   7.155   2.959   5.274  0.3521  0.1449 -0.7780
  159DOPC  H13R19178   7.081   3.036   5.247 -0.5168 -1.1915 -2.4013
  159DOPC  H13S19179   7.103   2.866   5.240  0.3870 -0.0747 -0.2374
  159DOPC  C21419180   7.276   2.977   5.185  0.4487 -0.5149 -0.1654
  159DOPC  H14R19181   7.356   2.908   5.220  0.2892 -0.5263  0.1780
  159DOPC  H14S19182   7.312   3.083   5.187 -1.3094  0.1066  2.0466
  159DOPC  C21519183   7.253   2.926   5.039 -0.1458 -0.2022 -0.0748
  159DOPC  H15R19184   7.197   2.830   5.037  0.9584 -0.9951  2.4181
  159DOPC  H15S19185   7.355   2.923   4.995  0.7545 -1.1628  1.9370
  159DOPC  C21619186   7.179   3.022   4.950  0.6719 -0.1703  0.1676
  159DOPC  H16R19187   7.234   3.117   4.969 -1.4132  1.2765 -0.6889
  159DOPC  H16S19188   7.075   3.027   4.989  0.8597  1.0827  0.5760
  159DOPC  C21719189   7.192   2.997   4.801  0.5023  0.2819 -0.4508
  159DOPC  H17R19190   7.170   2.891   4.779 -2.4301  0.6552  0.2176
  159DOPC  H17S19191   7.298   3.023   4.778  0.2686  2.4432  0.5646
  159DOPC  C21819192   7.104   3.093   4.719 -0.5257  0.0816 -0.3040
  159DOPC  H18R19193   6.996   3.080   4.737 -0.5301  0.0702 -0.3384
  159DOPC  H18S19194   7.132   3.076   4.612  0.2842  1.8891 -0.4185
  159DOPC  H18T19195   7.135   3.193   4.756  1.7215 -0.2043 -1.2446
  159DOPC   C3319196   6.453   2.824   6.036 -0.0073 -0.0633  0.3641
  159DOPC   H3X19197   6.537   2.755   6.061  1.0978  1.2808  0.5097
  159DOPC   H3Y19198   6.499   2.885   5.956 -0.2678 -0.6107 -0.2099
  159DOPC   C3419199   6.353   2.734   5.964  0.9162  0.6729  0.3165
  159DOPC   H4X19200   6.305   2.670   6.041  0.9408  0.3941  0.1040
  159DOPC   H4Y19201   6.412   2.671   5.894 -1.1169 -0.3209 -0.6239
  159DOPC   C3519202   6.242   2.806   5.881  0.2615  0.0239 -0.2473
  159DOPC   H5X19203   6.209   2.893   5.943  0.0910  0.9591 -1.6018
  159DOPC   H5Y19204   6.162   2.731   5.866  0.3740 -0.4107  1.1611
  159DOPC   C3619205   6.284   2.855   5.737  0.4818  0.0788 -0.0430
  159DOPC   H6X19206   6.197   2.918   5.707  0.4881  1.0017  1.7602
  159DOPC   H6Y19207   6.375   2.917   5.744  0.8045 -0.3765 -0.1026
  159DOPC   C3719208   6.292   2.745   5.634  0.4108 -0.1961 -0.1056
  159DOPC   H7X19209   6.369   2.669   5.660  2.2604  1.6473  0.0278
  159DOPC   H7Y19210   6.191   2.700   5.647 -1.6078  3.1726 -2.4503
  159DOPC   C3819211   6.306   2.790   5.482  0.4216  0.0834 -0.0340
  159DOPC   H8X19212   6.226   2.862   5.454 -1.3651 -1.1583  1.5892
  159DOPC   H8Y19213   6.285   2.699   5.422 -1.6667  0.2316  0.3913
  159DOPC   C3919214   6.439   2.849   5.443  0.2245  0.0426  0.2748
  159DOPC   H9X19215   6.522   2.833   5.514 -0.0346 -0.0913  0.5514
  159DOPC  C31019216   6.466   2.903   5.323  0.5244 -0.3037  0.3727
  159DOPC  H10X19217   6.568   2.933   5.295  0.0954  0.6749 -0.1956
  159DOPC  C31119218   6.365   2.919   5.207 -0.8519  0.6572  0.1033
  159DOPC  H11X19219   6.380   3.019   5.162  0.3355 -0.1331 -1.3592
  159DOPC  H11Y19220   6.260   2.895   5.234 -0.0382 -1.1869  1.8304
  159DOPC  C31219221   6.405   2.814   5.102 -0.6885 -0.3730 -0.0288
  159DOPC  H12X19222   6.378   2.710   5.130 -1.7894 -0.0237  0.2536
  159DOPC  H12Y19223   6.515   2.809   5.086 -0.8096 -0.4124 -0.9237
  159DOPC  C31319224   6.338   2.839   4.967  0.0308 -0.2763 -0.1878
  159DOPC  H13X19225   6.232   2.809   4.980 -0.4250  0.0642 -2.6022
  159DOPC  H13Y19226   6.351   2.949   4.956  0.4763 -0.2899  0.1819
  159DOPC  C31419227   6.406   2.766   4.858  0.3320  0.2519  0.7147
  159DOPC  H14X19228   6.509   2.806   4.848  0.5576 -0.6139 -0.7757
  159DOPC  H14Y19229   6.416   2.657   4.879  0.5436  0.0123 -0.5261
  159DOPC  C31519230   6.337   2.784   4.716 -0.1230  0.2091 -0.8081
  159DOPC  H15X19231   6.346   2.892   4.690 -0.8630  0.2685 -0.8638
  159DOPC  H15Y19232   6.232   2.751   4.730 -1.4980  3.5087 -2.1234
  159DOPC  C31619233   6.419   2.700   4.619  0.0218  0.0029 -0.5116
  159DOPC  H16X19234   6.406   2.740   4.516 -0.6684 -0.9219 -0.7929
  159DOPC  H16Y19235   6.529   2.708   4.632 -0.0673 -0.6335  0.7557
  159DOPC  C31719236   6.364   2.559   4.605 -0.8999 -0.4426 -0.2408
  159DOPC  H17X19237   6.353   2.509   4.704  2.4914 -0.0147  0.4739
  159DOPC  H17Y19238   6.265   2.553   4.556 -1.1303 -1.4570  0.3205
  159DOPC  C31819239   6.461   2.473   4.525  0.0949  0.3357 -0.0877
  159DOPC  H18X19240   6.462   2.371   4.568 -2.2238  0.3997  0.1961
  159DOPC  H18Y19241   6.432   2.473   4.418  1.0013 -0.9301 -0.3636
  159DOPC  H18Z19242   6.563   2.516   4.540  0.4995 -0.5257 -0.2920
  160DOPC     N19243   2.420   6.290   7.241 -0.0659 -0.3907  0.1019
  160DOPC   C1219244   2.521   6.294   7.124  0.1466 -0.1241 -0.4534
  160DOPC  H12A19245   2.469   6.317   7.032 -0.0928  1.9295  0.1448
  160DOPC  H12B19246   2.556   6.194   7.104 -1.9246 -0.8693 -0.5244
  160DOPC   C1319247   2.334   6.175   7.217 -0.0261  0.1786  0.4789
  160DOPC  H13A19248   2.301   6.192   7.115 -0.9367  3.8771  1.2432
  160DOPC  H13B19249   2.390   6.083   7.222  0.2062  0.3013  0.1766
  160DOPC  H13C19250   2.251   6.173   7.286 -0.4302 -0.9446 -0.0058
  160DOPC   C1419251   2.333   6.411   7.257 -0.1795  0.9703  0.2257
  160DOPC  H14A19252   2.252   6.419   7.186 -0.3514 -2.0846 -0.0775
  160DOPC  H14B19253   2.285   6.412   7.354 -0.9953 -1.1140 -0.0917
  160DOPC  H14C19254   2.395   6.499   7.249 -0.5525  1.6371  3.2669
  160DOPC   C1519255   2.501   6.267   7.372 -0.6763 -0.2306 -0.1344
  160DOPC  H15A19256   2.540   6.363   7.401 -2.0145  0.1153  0.6112
  160DOPC  H15B19257   2.590   6.207   7.360  0.1862  0.9254  0.3150
  160DOPC  H15C19258   2.438   6.234   7.452 -1.1719  0.4050 -0.2525
  160DOPC   C1119259   2.640   6.399   7.133 -0.5651  0.8970  0.0736
  160DOPC  H11A19260   2.698   6.392   7.227  0.0025 -0.1289 -0.3382
  160DOPC  H11B19261   2.711   6.374   7.051 -0.0296  1.6030  0.3119
  160DOPC     P19262   2.518   6.574   6.992  0.1263 -0.2940  0.3638
  160DOPC   O1319263   2.474   6.717   7.001 -0.0316 -0.2613 -0.0396
  160DOPC   O1419264   2.416   6.480   6.956 -0.6669  0.4826  0.0486
  160DOPC   O1219265   2.591   6.534   7.124  0.0535  0.6240 -0.2400
  160DOPC   O1119266   2.632   6.566   6.884 -0.1913 -0.1069 -0.1624
  160DOPC    C119267   2.607   6.581   6.743  0.5054  0.4615  0.0106
  160DOPC    HA19268   2.679   6.656   6.703  1.5102 -0.8025 -0.6073
  160DOPC    HB19269   2.506   6.622   6.719  0.3670  0.6294  0.8683
  160DOPC    C219270   2.623   6.447   6.663 -0.3531 -0.0224  0.1009
  160DOPC    HS19271   2.729   6.419   6.683  0.0060  1.9069  1.2145
  160DOPC   O2119272   2.607   6.468   6.519  0.1725  0.2004 -0.2639
  160DOPC   C2119273   2.646   6.365   6.435 -0.2379  0.2279 -0.6640
  160DOPC   O2219274   2.710   6.272   6.480 -0.3523 -0.5819 -0.5235
  160DOPC   C2219275   2.593   6.377   6.296 -0.2782 -0.1945  0.1295
  160DOPC   H2R19276   2.623   6.479   6.262 -1.7700  0.0885 -0.4251
  160DOPC   H2S19277   2.483   6.373   6.308 -0.1345  0.4938  1.9417
  160DOPC    C319278   2.519   6.344   6.700  0.3776  0.1189  0.3361
  160DOPC    HX19279   2.535   6.327   6.809  0.9373  0.9378  0.3930
  160DOPC    HY19280   2.537   6.248   6.648 -2.9645 -0.8476  0.7194
  160DOPC   O3119281   2.385   6.385   6.672 -0.6882  0.1646 -0.0877
  160DOPC   C3119282   2.320   6.362   6.561  0.0995  0.4477  0.2900
  160DOPC   O3219283   2.361   6.289   6.467 -0.4465  0.0976 -0.2764
  160DOPC   C3219284   2.182   6.432   6.565  0.4297  0.5718 -0.6754
  160DOPC   H2X19285   2.116   6.393   6.484  1.6457  1.0082 -1.9266
  160DOPC   H2Y19286   2.131   6.407   6.660  1.8684  1.1782  0.2808
  160DOPC   C2319287   2.636   6.262   6.205 -0.2575  0.0395 -0.4520
  160DOPC   H3R19288   2.581   6.173   6.242 -0.5086 -0.4574 -1.9441
  160DOPC   H3S19289   2.745   6.241   6.211 -0.7331 -2.8856 -0.4889
  160DOPC   C2419290   2.605   6.278   6.057 -0.3719 -0.1019  0.2828
  160DOPC   H4R19291   2.679   6.335   5.997 -0.0339 -1.4382 -0.6166
  160DOPC   H4S19292   2.508   6.330   6.044  0.4363  1.2836 -0.3095
  160DOPC   C2519293   2.584   6.138   5.989 -0.4876 -0.2436 -1.0204
  160DOPC   H5R19294   2.517   6.087   6.062  0.0743  1.1628  0.5341
  160DOPC   H5S19295   2.676   6.076   5.994 -0.0002  0.4880 -0.8209
  160DOPC   C2619296   2.537   6.150   5.843  0.6381 -0.1774  0.4803
  160DOPC   H6R19297   2.459   6.228   5.848 -1.1894 -1.8005 -1.1513
  160DOPC   H6S19298   2.500   6.048   5.820  0.4733 -0.3770  1.5978
  160DOPC   C2719299   2.650   6.195   5.747  0.3382  0.0507  0.2646
  160DOPC   H7R19300   2.731   6.120   5.754 -1.0817 -1.6618 -0.7661
  160DOPC   H7S19301   2.704   6.286   5.782 -0.2666  0.6755 -0.4097
  160DOPC   C2819302   2.614   6.205   5.592  0.6850 -0.2183  0.2612
  160DOPC   H8R19303   2.542   6.289   5.604  0.5658 -0.4744  1.4379
  160DOPC   H8S19304   2.546   6.120   5.570 -0.4772  0.4964  1.0093
  160DOPC   C2919305   2.733   6.236   5.503  0.3907 -0.9536 -0.4034
  160DOPC   H9R19306   2.805   6.308   5.545 -0.9587  0.6753 -0.7789
  160DOPC  C21019307   2.755   6.158   5.396  0.1323 -0.6401  0.7128
  160DOPC  H10R19308   2.839   6.196   5.336  0.2374  0.6358  1.6456
  160DOPC  C21119309   2.660   6.046   5.350 -0.5521 -0.0822  0.1546
  160DOPC  H11R19310   2.558   6.088   5.361  0.0374  1.9080 -1.3661
  160DOPC  H11S19311   2.684   5.968   5.426  1.5248  3.4602  3.4858
  160DOPC  C21219312   2.689   5.999   5.209  0.0154 -0.3441 -0.1752
  160DOPC  H12R19313   2.686   6.091   5.146 -1.2007  0.2328  0.6776
  160DOPC  H12S19314   2.618   5.928   5.163 -0.2871  1.5825 -2.9476
  160DOPC  C21319315   2.833   5.948   5.186 -0.6282  0.2291 -0.5953
  160DOPC  H13R19316   2.846   5.853   5.242 -1.3294  0.5944  0.2236
  160DOPC  H13S19317   2.905   6.023   5.225 -0.2396 -0.6357  0.3814
  160DOPC  C21419318   2.850   5.924   5.040  0.0715 -0.2352  0.2821
  160DOPC  H14R19319   2.861   6.029   5.006  2.4107 -0.4551  0.1870
  160DOPC  H14S19320   2.761   5.890   4.984  0.4250  0.4089 -0.7021
  160DOPC  C21519321   2.973   5.833   5.014 -0.4595 -0.0384 -0.8156
  160DOPC  H15R19322   2.940   5.736   5.058  0.6446 -0.5140 -1.0068
  160DOPC  H15S19323   3.065   5.867   5.065 -1.0678  1.4503 -0.6635
  160DOPC  C21619324   3.000   5.802   4.868 -0.2644  0.1366  0.2606
  160DOPC  H16R19325   3.008   5.899   4.815  0.3463  0.6008  1.1743
  160DOPC  H16S19326   2.916   5.750   4.817 -2.1962  0.6948  2.7025
  160DOPC  C21719327   3.133   5.718   4.838  0.4041  0.2515 -0.5371
  160DOPC  H17R19328   3.142   5.712   4.727 -1.4515 -0.2425 -0.6850
  160DOPC  H17S19329   3.113   5.613   4.869  1.9317 -0.2802 -1.2269
  160DOPC  C21819330   3.265   5.756   4.904 -0.0127 -0.2146  0.0660
  160DOPC  H18R19331   3.242   5.770   5.012 -0.1437  2.1300 -0.2328
  160DOPC  H18S19332   3.297   5.857   4.872  0.6481 -0.6493 -0.6655
  160DOPC  H18T19333   3.344   5.679   4.893 -1.9360 -2.5280  1.3789
  160DOPC   C3319334   2.192   6.587   6.547  0.0527  0.4252  0.0061
  160DOPC   H3X19335   2.258   6.627   6.626  0.7981 -0.1380 -0.3217
  160DOPC   H3Y19336   2.089   6.623   6.567 -0.5874 -2.4244  2.6158
  160DOPC   C3419337   2.249   6.644   6.415 -0.5057  0.4627 -0.4204
  160DOPC   H4X19338   2.358   6.623   6.417 -0.5771  0.1019  0.0289
  160DOPC   H4Y19339   2.235   6.754   6.419 -1.4824  0.3239  0.3700
  160DOPC   C3519340   2.193   6.576   6.294  0.1558  0.6029  0.3014
  160DOPC   H5X19341   2.082   6.579   6.299  0.0741 -1.3208  0.3265
  160DOPC   H5Y19342   2.226   6.470   6.292  0.5090  0.7000  0.8272
  160DOPC   C3619343   2.246   6.635   6.160 -0.4241 -0.3043 -0.2925
  160DOPC   H6X19344   2.258   6.555   6.084 -1.3924 -1.7185  0.9996
  160DOPC   H6Y19345   2.174   6.707   6.116 -0.5107 -0.7569 -0.8924
  160DOPC   C3719346   2.380   6.711   6.168 -0.1079  0.6254 -0.2910
  160DOPC   H7X19347   2.357   6.800   6.230  0.1536 -1.0920  2.4210
  160DOPC   H7Y19348   2.454   6.655   6.229 -0.4260 -0.4599 -0.8796
  160DOPC   C3819349   2.455   6.746   6.038 -1.0680 -0.2799 -0.1420
  160DOPC   H8X19350   2.546   6.801   6.068 -0.6618 -1.3771  0.6753
  160DOPC   H8Y19351   2.390   6.817   5.982  0.1375 -0.6461 -2.0687
  160DOPC   C3919352   2.492   6.628   5.952 -0.3910  0.3778 -0.8600
  160DOPC   H9X19353   2.457   6.531   5.992 -0.2235 -0.1834 -2.0433
  160DOPC  C31019354   2.564   6.640   5.834  0.3631 -0.3327 -1.0138
  160DOPC  H10X19355   2.599   6.558   5.770 -0.1466 -0.4660 -1.1334
  160DOPC  C31119356   2.603   6.784   5.800  1.2077 -0.2070 -0.0018
  160DOPC  H11X19357   2.671   6.823   5.879 -1.1987  0.7441  1.6896
  160DOPC  H11Y19358   2.519   6.856   5.788  1.8235  0.5004 -0.1494
  160DOPC  C31219359   2.677   6.791   5.660  0.1275  0.7660  0.3549
  160DOPC  H12X19360   2.774   6.737   5.673 -1.0362 -1.1744  1.4200
  160DOPC  H12Y19361   2.708   6.894   5.630  0.4916  0.1910 -1.3725
  160DOPC  C31319362   2.592   6.728   5.544 -0.3247 -0.0529  0.1434
  160DOPC  H13X19363   2.559   6.626   5.574  0.5308 -0.2701  0.3637
  160DOPC  H13Y19364   2.505   6.796   5.530  0.2503  0.6144 -0.2440
  160DOPC  C31419365   2.668   6.711   5.408  0.2377 -0.2098  0.3247
  160DOPC  H14X19366   2.592   6.685   5.332 -1.6139 -0.3693  2.1235
  160DOPC  H14Y19367   2.715   6.807   5.378 -0.4981  1.2325  3.2983
  160DOPC  C31519368   2.780   6.609   5.407 -0.4355 -0.0942  0.1619
  160DOPC  H15X19369   2.741   6.513   5.447 -0.2864 -0.0830  0.3344
  160DOPC  H15Y19370   2.850   6.644   5.486 -3.6114  1.7938  2.3877
  160DOPC  C31619371   2.841   6.558   5.273  0.2527  0.7801 -0.3992
  160DOPC  H16X19372   2.763   6.492   5.231 -0.6977 -0.1505  2.6168
  160DOPC  H16Y19373   2.862   6.647   5.209  1.3021  0.7044 -0.1742
  160DOPC  C31719374   2.978   6.485   5.277 -0.1963  0.0545  0.1500
  160DOPC  H17X19375   3.051   6.562   5.310  1.5636 -1.3413 -0.3141
  160DOPC  H17Y19376   2.984   6.403   5.351  1.4944  1.7216  1.9639
  160DOPC  C31819377   3.024   6.430   5.138 -0.1779 -1.0630  0.2521
  160DOPC  H18X19378   3.120   6.375   5.151 -0.2764 -0.7597  2.6203
  160DOPC  H18Y19379   2.943   6.367   5.096 -1.9621 -0.4753  2.6010
  160DOPC  H18Z19380   3.030   6.515   5.067  1.3139 -0.0292  1.5433
  161DOPC     N19381   4.021   0.188   7.043 -0.1248 -0.1405  0.3730
  161DOPC   C1219382   4.135   0.244   6.958 -0.1954  0.2629 -0.2759
  161DOPC  H12A19383   4.218   0.177   6.950 -0.7073 -0.3597 -0.4282
  161DOPC  H12B19384   4.171   0.329   7.014 -0.4185 -0.8506  1.6440
  161DOPC   C1319385   3.913   0.294   7.064 -0.3970  0.4761  0.9995
  161DOPC  H13A19386   3.874   0.335   6.972 -1.4996 -1.7701  0.3928
  161DOPC  H13B19387   3.827   0.251   7.114 -1.8859  1.0512 -0.9625
  161DOPC  H13C19388   3.943   0.379   7.125 -0.7770  0.9366  0.5513
  161DOPC   C1419389   4.073   0.151   7.174  0.0148  0.0629  1.2945
  161DOPC  H14A19390   4.121   0.236   7.221  1.0246  0.5261 -0.4941
  161DOPC  H14B19391   3.987   0.113   7.227 -0.4252 -0.6735  0.0946
  161DOPC  H14C19392   4.142   0.069   7.164  0.0099  0.1446  0.5605
  161DOPC   C1519393   3.965   0.069   6.977  0.2180 -0.2303  0.4272
  161DOPC  H15A19394   4.036  -0.010   6.995  0.3518 -0.4214 -0.8460
  161DOPC  H15B19395   3.963   0.082   6.869  0.5099 -1.0639  0.3207
  161DOPC  H15C19396   3.871   0.047   7.025 -0.3579 -0.7724 -0.8997
  161DOPC   C1119397   4.101   0.287   6.807 -0.5579  1.1232 -0.4937
  161DOPC  H11A19398   4.191   0.322   6.750 -1.3203 -0.6183 -2.9504
  161DOPC  H11B19399   4.071   0.190   6.762 -1.9399  0.4771  1.6709
  161DOPC     P19400   4.019   0.522   6.779 -0.2908  0.2959 -0.4714
  161DOPC   O1319401   4.137   0.548   6.860  0.3404  0.2334 -0.1634
  161DOPC   O1419402   3.896   0.598   6.806  0.8574 -0.3838 -0.1749
  161DOPC   O1219403   3.986   0.372   6.793  0.4533  0.3127  0.3482
  161DOPC   O1119404   4.046   0.538   6.619 -0.3651  0.5905 -0.1475
  161DOPC    C119405   4.019   0.436   6.525 -0.5661  0.0760  0.0155
  161DOPC    HA19406   3.962   0.477   6.439 -2.8805 -0.1106  1.3892
  161DOPC    HB19407   3.967   0.346   6.564 -0.8750 -0.2658 -1.1336
  161DOPC    C219408   4.146   0.362   6.462  0.1052 -0.0089 -0.4106
  161DOPC    HS19409   4.225   0.344   6.537  1.0879 -1.2062 -1.6807
  161DOPC   O2119410   4.195   0.455   6.368 -0.5261  0.0645 -0.2535
  161DOPC   C2119411   4.325   0.428   6.323  0.5362 -0.2051 -0.2059
  161DOPC   O2219412   4.395   0.344   6.373  0.4417  0.0576 -0.1544
  161DOPC   C2219413   4.373   0.525   6.212  0.1962  0.3561  0.7524
  161DOPC   H2R19414   4.336   0.627   6.237  2.3792  1.4823 -0.2138
  161DOPC   H2S19415   4.331   0.502   6.112  0.0222  0.5054  0.7917
  161DOPC    C319416   4.111   0.220   6.407 -0.4579 -0.6851 -0.5996
  161DOPC    HX19417   4.123   0.146   6.488 -0.2556 -0.6800 -0.6242
  161DOPC    HY19418   4.197   0.178   6.350  0.0053 -1.4500  0.6295
  161DOPC   O3119419   3.992   0.203   6.337  0.0614 -0.5705  0.5512
  161DOPC   C3119420   3.994   0.224   6.208 -0.2310  0.2543 -0.4022
  161DOPC   O3219421   4.095   0.250   6.146  0.3637 -0.0051 -0.3427
  161DOPC   C3219422   3.849   0.219   6.143 -0.5338  0.3436 -1.1571
  161DOPC   H2X19423   3.823   0.111   6.140  2.4170 -0.5439  0.7405
  161DOPC   H2Y19424   3.781   0.285   6.201 -0.0377 -1.5982  1.9074
  161DOPC   C2319425   4.524   0.537   6.201 -0.0810  0.4917 -0.6273
  161DOPC   H3R19426   4.574   0.441   6.176  2.8423  1.6908  0.1481
  161DOPC   H3S19427   4.574   0.559   6.298  1.4164  1.3108 -1.5294
  161DOPC   C2419428   4.578   0.638   6.096 -0.0761  0.1766  0.5790
  161DOPC   H4R19429   4.556   0.743   6.124 -0.0695  0.3402 -0.0101
  161DOPC   H4S19430   4.539   0.615   5.994 -0.9535 -0.2578  1.0042
  161DOPC   C2519431   4.736   0.633   6.083  0.1388 -0.0279 -0.5792
  161DOPC   H5R19432   4.771   0.528   6.092 -0.1642 -0.3918 -3.0154
  161DOPC   H5S19433   4.792   0.686   6.163 -1.2642  0.7383 -0.0646
  161DOPC   C2619434   4.783   0.682   5.941  0.4357  0.1088  0.1842
  161DOPC   H6R19435   4.741   0.614   5.864 -3.1810  1.8257  0.4183
  161DOPC   H6S19436   4.894   0.680   5.952  0.5137 -2.4058 -0.3639
  161DOPC   C2719437   4.728   0.826   5.908 -0.7951  0.2446  0.1113
  161DOPC   H7R19438   4.731   0.881   6.005  2.0980 -1.0583  0.8609
  161DOPC   H7S19439   4.630   0.822   5.857 -0.6710  0.6385 -0.1615
  161DOPC   C2819440   4.823   0.894   5.804 -0.2391 -0.5674 -0.2758
  161DOPC   H8R19441   4.927   0.894   5.844 -0.5729  0.1098  0.6292
  161DOPC   H8S19442   4.787   0.999   5.803  1.4157  0.0452  0.3975
  161DOPC   C2919443   4.814   0.828   5.669 -0.3838 -0.1520  0.1153
  161DOPC   H9R19444   4.843   0.722   5.661 -1.0872 -0.5013  1.7208
  161DOPC  C21019445   4.765   0.890   5.561 -0.1040 -0.0782 -0.8641
  161DOPC  H10R19446   4.762   0.843   5.462  0.0952  0.5431 -1.1655
  161DOPC  C21119447   4.713   1.033   5.557  0.4784  0.2830 -0.4411
  161DOPC  H11R19448   4.767   1.108   5.618  0.1337  0.4720 -0.3704
  161DOPC  H11S19449   4.609   1.033   5.596  0.1965  1.4776 -1.1630
  161DOPC  C21219450   4.692   1.084   5.413  0.1172  0.0462  0.5122
  161DOPC  H12R19451   4.787   1.061   5.361  0.0011 -0.4567  0.5222
  161DOPC  H12S19452   4.678   1.194   5.420 -0.0534  0.1711 -1.2487
  161DOPC  C21319453   4.566   1.021   5.332  0.1657  0.2471 -0.9825
  161DOPC  H13R19454   4.546   1.101   5.258  0.2732  1.5553  0.3423
  161DOPC  H13S19455   4.472   1.017   5.391  0.6600 -0.2782 -0.2138
  161DOPC  C21419456   4.583   0.895   5.247 -0.4080  0.4907 -0.0330
  161DOPC  H14R19457   4.619   0.800   5.292  0.7927  0.5327 -0.8461
  161DOPC  H14S19458   4.661   0.906   5.168  0.6843 -0.4434  0.8590
  161DOPC  C21519459   4.450   0.873   5.171  0.0780  0.4375  0.3125
  161DOPC  H15R19460   4.410   0.973   5.143 -0.2331  0.0961 -0.5213
  161DOPC  H15S19461   4.373   0.837   5.242 -0.3711  1.6547  0.4709
  161DOPC  C21619462   4.451   0.792   5.044  0.0584  0.0392 -0.1361
  161DOPC  H16R19463   4.540   0.813   4.981  0.2040  0.6078  0.2483
  161DOPC  H16S19464   4.365   0.819   4.979 -2.2373 -0.0136  2.6898
  161DOPC  C21719465   4.452   0.648   5.084 -0.2361 -0.3088 -0.3834
  161DOPC  H17R19466   4.406   0.620   5.182  1.9929 -2.8743  0.0511
  161DOPC  H17S19467   4.556   0.617   5.105 -1.1804 -2.5625  1.5380
  161DOPC  C21819468   4.403   0.561   4.967  0.2503  0.4228  0.1152
  161DOPC  H18R19469   4.418   0.451   4.971 -0.1446  0.4119  1.7287
  161DOPC  H18S19470   4.449   0.593   4.871  1.3229 -0.1509  0.4161
  161DOPC  H18T19471   4.295   0.584   4.965 -0.1194 -1.0491  1.3513
  161DOPC   C3319472   3.846   0.267   5.995  0.1969  0.5389 -0.5146
  161DOPC   H3X19473   3.752   0.225   5.954 -2.2417  1.2667  3.7564
  161DOPC   H3Y19474   3.940   0.235   5.945  0.1409 -0.5140  0.0336
  161DOPC   C3419475   3.817   0.416   5.982 -0.3212  0.0390  0.2793
  161DOPC   H4X19476   3.903   0.478   6.014 -1.1985  2.3992 -1.5856
  161DOPC   H4Y19477   3.730   0.451   6.041  0.2137  0.6379  0.7214
  161DOPC   C3519478   3.776   0.451   5.834 -0.0618  0.6760  0.0655
  161DOPC   H5X19479   3.800   0.557   5.813 -0.8575  1.0582  1.0009
  161DOPC   H5Y19480   3.666   0.435   5.823  0.1041 -0.7477  0.2833
  161DOPC   C3619481   3.844   0.353   5.727 -0.1241 -0.3921  0.4471
  161DOPC   H6X19482   3.953   0.356   5.750  0.0462 -0.7772 -0.2958
  161DOPC   H6Y19483   3.809   0.248   5.739  0.6301 -0.5577  1.3692
  161DOPC   C3719484   3.826   0.387   5.575  0.0008  0.0002 -1.0608
  161DOPC   H7X19485   3.828   0.498   5.566 -1.8476 -0.0177 -2.3448
  161DOPC   H7Y19486   3.912   0.346   5.518  0.1965  0.9963 -1.4979
  161DOPC   C3819487   3.701   0.318   5.519 -0.2060  0.1938  0.3319
  161DOPC   H8X19488   3.618   0.334   5.592 -0.7700  1.0257 -0.4651
  161DOPC   H8Y19489   3.722   0.210   5.507 -1.3237 -0.0201  0.1112
  161DOPC   C3919490   3.656   0.386   5.389  0.3784 -0.0705  0.2131
  161DOPC   H9X19491   3.639   0.494   5.400 -0.1149 -0.2151  0.9296
  161DOPC  C31019492   3.629   0.328   5.272  0.0190  0.6339  0.1252
  161DOPC  H10X19493   3.587   0.387   5.189  2.6540 -1.0658 -2.6100
  161DOPC  C31119494   3.638   0.178   5.246 -0.2987  0.0184 -0.5284
  161DOPC  H11X19495   3.717   0.134   5.310 -0.6025  1.3094  0.7809
  161DOPC  H11Y19496   3.663   0.163   5.138  1.4847 -0.1268 -0.1284
  161DOPC  C31219497   3.505   0.108   5.283  0.4634  0.7044 -0.4962
  161DOPC  H12X19498   3.415   0.163   5.248  0.7459 -0.1575 -2.7878
  161DOPC  H12Y19499   3.508   0.087   5.392  0.7956 -0.6291 -0.7441
  161DOPC  C31319500   3.502  -0.032   5.221  0.8016 -0.3170 -0.1674
  161DOPC  H13X19501   3.522  -0.024   5.112 -0.3437 -1.1992 -0.4682
  161DOPC  H13Y19502   3.587  -0.086   5.267  0.9515  0.0568 -0.0026
  161DOPC  C31419503   3.365  -0.095   5.254 -0.1658  0.0193  0.2147
  161DOPC  H14X19504   3.341  -0.050   5.352  0.5012  3.3220 -0.9991
  161DOPC  H14Y19505   3.284  -0.060   5.186 -0.3307 -0.0307  0.3853
  161DOPC  C31519506   3.371  -0.251   5.253  0.3828 -0.0504 -0.1633
  161DOPC  H15X19507   3.468  -0.296   5.285 -0.2001 -2.0294 -1.0428
  161DOPC  H15Y19508   3.357  -0.270   5.145  1.2357 -0.2615 -0.2410
  161DOPC  C31619509   3.248  -0.322   5.322 -0.3732  0.1067  0.5904
  161DOPC  H16X19510   3.271  -0.431   5.318 -1.8942 -0.2008 -0.9777
  161DOPC  H16Y19511   3.246  -0.283   5.426  1.0821 -3.0179  1.9273
  161DOPC  C31719512   3.111  -0.307   5.249  0.2315 -0.1266  0.0610
  161DOPC  H17X19513   3.084  -0.199   5.239 -0.8958 -0.3938  0.0697
  161DOPC  H17Y19514   3.120  -0.347   5.146 -0.4503  0.4870 -0.2477
  161DOPC  C31819515   3.004  -0.389   5.324  0.4758 -1.1957  0.1492
  161DOPC  H18X19516   2.919  -0.406   5.255 -0.6754  0.9958  0.9455
  161DOPC  H18Y19517   3.046  -0.490   5.345  1.7984 -0.6683  0.1378
  161DOPC  H18Z19518   2.972  -0.342   5.419 -1.3450 -0.7392 -0.6574
  162DOPC     N19519   1.083   7.079   7.171 -0.5800  0.1882  0.0028
  162DOPC   C1219520   1.053   6.933   7.193 -0.2521 -0.8297  0.3632
  162DOPC  H12A19521   0.949   6.915   7.215 -0.8010  1.4276 -0.1490
  162DOPC  H12B19522   1.098   6.901   7.287  0.0166  1.2179  0.9721
  162DOPC   C1319523   0.993   7.157   7.264  0.5370  0.3111  0.3048
  162DOPC  H13A19524   0.894   7.123   7.237  1.1024 -1.3369  0.2110
  162DOPC  H13B19525   1.003   7.119   7.365  1.8550 -0.0315  0.0656
  162DOPC  H13C19526   1.013   7.263   7.260  2.9231 -0.0026  1.8953
  162DOPC   C1419527   1.051   7.128   7.030  0.2842 -0.4993  0.4733
  162DOPC  H14A19528   0.955   7.104   6.986  0.5370  1.3342 -1.1803
  162DOPC  H14B19529   1.048   7.235   7.017  0.7734 -0.4426  0.7964
  162DOPC  H14C19530   1.125   7.083   6.965  0.5570 -0.3529  0.6793
  162DOPC   C1519531   1.226   7.108   7.200  0.5471  0.5760 -0.4225
  162DOPC  H15A19532   1.290   7.044   7.140  0.2819 -0.2155  0.1389
  162DOPC  H15B19533   1.249   7.087   7.303  0.2860 -1.5806 -0.7582
  162DOPC  H15C19534   1.240   7.213   7.178 -0.1465  0.3890 -1.8723
  162DOPC   C1119535   1.089   6.833   7.088  0.1849  0.5896 -0.0123
  162DOPC  H11A19536   1.068   6.866   6.984 -0.3434 -0.3995 -0.2321
  162DOPC  H11B19537   1.198   6.811   7.090  0.0565 -0.0871 -0.1178
  162DOPC     P19538   0.868   6.687   7.092 -0.1082 -0.1314 -0.4266
  162DOPC   O1319539   0.800   6.811   7.129  0.3508 -0.9317 -0.3280
  162DOPC   O1419540   0.834   6.566   7.167 -0.3171  0.5864 -0.5020
  162DOPC   O1219541   1.025   6.707   7.108  0.3622 -1.0995 -0.1053
  162DOPC   O1119542   0.839   6.651   6.945 -0.0996  0.2361  0.5513
  162DOPC    C119543   0.839   6.756   6.842 -0.3911  0.4777  0.4317
  162DOPC    HA19544   0.850   6.861   6.877 -0.3483  1.2508 -1.7646
  162DOPC    HB19545   0.741   6.757   6.790 -1.8522 -0.6480  2.9640
  162DOPC    C219546   0.945   6.731   6.731 -0.5478 -0.3154 -0.0219
  162DOPC    HS19547   1.041   6.756   6.781 -1.0175 -1.5285  1.5859
  162DOPC   O2119548   0.912   6.824   6.625 -0.1903 -0.0847 -0.8506
  162DOPC   C2119549   0.943   6.952   6.647 -0.1239  0.2137  0.3520
  162DOPC   O2219550   1.001   6.994   6.746 -0.1135  0.1334  0.4345
  162DOPC   C2219551   0.907   7.046   6.539  0.2401  0.4070  0.0795
  162DOPC   H2R19552   0.995   7.102   6.502  0.7420 -0.0744  0.5352
  162DOPC   H2S19553   0.837   7.125   6.575 -0.5462 -0.8096  1.2744
  162DOPC    C319554   0.950   6.584   6.677  0.1618 -0.0073  0.1981
  162DOPC    HX19555   0.848   6.566   6.636  0.8522 -1.1654 -1.1053
  162DOPC    HY19556   0.965   6.512   6.761  2.7506  2.3993  1.9659
  162DOPC   O3119557   1.050   6.569   6.577  0.1751 -0.2850  0.7666
  162DOPC   C3119558   1.174   6.568   6.612 -0.2092  0.5039 -0.6682
  162DOPC   O3219559   1.217   6.593   6.726 -0.4348 -0.5765  0.3818
  162DOPC   C3219560   1.259   6.525   6.499 -0.1861 -0.0827 -0.0385
  162DOPC   H2X19561   1.200   6.503   6.407  0.6758 -1.1604 -0.3658
  162DOPC   H2Y19562   1.321   6.612   6.467 -3.7224  1.9726 -1.8682
  162DOPC   C2319563   0.842   6.992   6.407  0.4147 -0.0156  0.0355
  162DOPC   H3R19564   0.746   6.947   6.439  0.1936  0.2577 -0.2433
  162DOPC   H3S19565   0.904   6.909   6.368 -1.1226 -0.9664 -0.4712
  162DOPC   C2419566   0.822   7.097   6.299 -0.0827  0.5765 -0.6913
  162DOPC   H4R19567   0.921   7.130   6.260  0.8227 -1.5458 -0.3676
  162DOPC   H4S19568   0.758   7.183   6.327 -0.5745  1.4190 -3.9200
  162DOPC   C2519569   0.744   7.029   6.187  0.7431 -0.3453  0.6124
  162DOPC   H5R19570   0.792   6.934   6.155  1.0173  0.4926 -1.6911
  162DOPC   H5S19571   0.755   7.106   6.107 -2.6937 -0.1481  0.1771
  162DOPC   C2619572   0.595   7.007   6.208  0.4825  0.4470  0.2242
  162DOPC   H6R19573   0.559   7.107   6.240 -0.7568 -0.3938  1.6199
  162DOPC   H6S19574   0.572   6.927   6.283 -0.5887  1.4996  1.0544
  162DOPC   C2719575   0.508   6.973   6.085 -0.8948 -0.7156 -0.2229
  162DOPC   H7R19576   0.541   6.874   6.047 -3.8514 -2.4742  1.4408
  162DOPC   H7S19577   0.522   7.054   6.010  0.0735  1.0991  1.8281
  162DOPC   C2819578   0.357   6.978   6.118 -0.0201  0.4285 -0.3245
  162DOPC   H8R19579   0.332   7.078   6.158  0.9762  0.7258 -0.4168
  162DOPC   H8S19580   0.335   6.900   6.194 -0.4761 -0.4607 -1.3420
  162DOPC   C2919581   0.272   6.937   5.994  0.9306 -0.5510 -0.2949
  162DOPC   H9R19582   0.260   6.830   5.968  0.3902  0.0611 -2.8284
  162DOPC  C21019583   0.220   7.028   5.909  0.0725  0.4846 -0.0934
  162DOPC  H10R19584   0.158   7.000   5.823  1.2918 -0.6159 -0.6371
  162DOPC  C21119585   0.233   7.173   5.913 -0.4182 -0.1192  0.1184
  162DOPC  H11R19586   0.237   7.209   5.808  0.5271 -1.5075 -0.3420
  162DOPC  H11S19587   0.321   7.200   5.974 -1.7925  0.8208  1.8022
  162DOPC  C21219588   0.107   7.238   5.984  0.8349  0.7866  0.2401
  162DOPC  H12R19589   0.087   7.182   6.078 -0.2616 -0.3922 -0.6746
  162DOPC  H12S19590   0.010   7.223   5.932  1.3782  0.4138 -0.6833
  162DOPC  C21319591   0.130   7.382   6.027  0.1651  0.7813 -0.2417
  162DOPC  H13R19592   0.157   7.445   5.940 -1.6821 -0.6472 -1.9399
  162DOPC  H13S19593   0.213   7.375   6.101 -0.9759 -2.2093  0.9164
  162DOPC  C21419594   0.003   7.440   6.104 -0.1614 -0.3662  0.0612
  162DOPC  H14R19595  -0.015   7.363   6.183  1.8452 -1.3014 -0.3125
  162DOPC  H14S19596  -0.067   7.459   6.020  0.8468  1.4313 -0.4147
  162DOPC  C21519597   0.030   7.581   6.153  0.2900  0.3872  0.4633
  162DOPC  H15R19598   0.075   7.639   6.070  0.3796  1.4487  1.2426
  162DOPC  H15S19599   0.096   7.575   6.242  2.1795 -0.9348 -0.9432
  162DOPC  C21619600  -0.103   7.653   6.190  0.4625 -0.2939  0.4308
  162DOPC  H16R19601  -0.159   7.583   6.255 -1.2362  1.2360  0.6982
  162DOPC  H16S19602  -0.162   7.670   6.097 -1.3311  0.1692  1.6030
  162DOPC  C21719603  -0.084   7.797   6.257  0.5906 -0.1899 -0.4233
  162DOPC  H17R19604  -0.183   7.847   6.261  0.5950 -0.2185  2.6381
  162DOPC  H17S19605  -0.009   7.850   6.196 -1.7306  0.6428 -2.7131
  162DOPC  C21819606  -0.047   7.774   6.397 -1.3073  0.1543 -0.7741
  162DOPC  H18R19607  -0.022   7.864   6.456  2.0407 -1.9371  1.3767
  162DOPC  H18S19608   0.048   7.716   6.399 -0.3583  1.6908  0.5098
  162DOPC  H18T19609  -0.116   7.706   6.452 -0.5798  0.6947  0.8589
  162DOPC   C3319610   1.356   6.408   6.528 -0.1274 -0.4921  0.3246
  162DOPC   H3X19611   1.420   6.424   6.618  1.8565 -3.0778 -0.4890
  162DOPC   H3Y19612   1.423   6.416   6.440  0.2899 -1.3324  0.5585
  162DOPC   C3419613   1.297   6.272   6.510  0.8972  0.4601  0.0854
  162DOPC   H4X19614   1.187   6.283   6.518  0.6547  0.5423 -2.5332
  162DOPC   H4Y19615   1.310   6.216   6.605 -0.4704 -0.4076 -0.2210
  162DOPC   C3519616   1.354   6.190   6.396 -0.0324 -0.9521 -0.5217
  162DOPC   H5X19617   1.357   6.080   6.408  0.4894 -1.0976 -1.7657
  162DOPC   H5Y19618   1.461   6.212   6.378 -0.2177  0.3905 -0.0759
  162DOPC   C3619619   1.269   6.202   6.270 -0.2815 -0.0318 -0.2443
  162DOPC   H6X19620   1.164   6.189   6.302 -0.7851  2.8718 -0.4080
  162DOPC   H6Y19621   1.258   6.309   6.241 -1.7220 -0.3536 -0.9740
  162DOPC   C3719622   1.314   6.103   6.157  0.1602  0.3786  0.3324
  162DOPC   H7X19623   1.424   6.090   6.148 -0.0188 -0.1527 -1.4966
  162DOPC   H7Y19624   1.289   6.003   6.198 -0.0259  0.2378 -0.1143
  162DOPC   C3819625   1.246   6.147   6.022  0.0516 -0.3709 -0.1503
  162DOPC   H8X19626   1.140   6.176   6.036  0.1829  0.1217 -0.1754
  162DOPC   H8Y19627   1.254   6.071   5.941 -2.7255 -1.6616  0.6718
  162DOPC   C3919628   1.307   6.277   5.980  0.5799 -0.3984  0.1093
  162DOPC   H9X19629   1.256   6.368   6.013  0.9034 -0.1459 -0.0817
  162DOPC  C31019630   1.395   6.287   5.881  0.0546  0.0679  0.0463
  162DOPC  H10X19631   1.447   6.384   5.870  1.5260 -0.6391  0.4137
  162DOPC  C31119632   1.454   6.183   5.790  0.0601  0.1250  0.1409
  162DOPC  H11X19633   1.418   6.078   5.800 -1.1081  0.2799 -1.7743
  162DOPC  H11Y19634   1.564   6.183   5.781 -0.0568  1.7231 -2.0224
  162DOPC  C31219635   1.406   6.224   5.641 -0.3235  1.1034 -0.2912
  162DOPC  H12X19636   1.457   6.321   5.622  1.7643  0.5678  2.0206
  162DOPC  H12Y19637   1.296   6.235   5.647 -0.6470 -0.5634 -2.1878
  162DOPC  C31319638   1.450   6.133   5.523 -0.2331  0.3919 -0.3373
  162DOPC  H13X19639   1.370   6.150   5.446 -0.4311  1.2281  0.0351
  162DOPC  H13Y19640   1.547   6.162   5.477  0.2179  0.3350  0.5711
  162DOPC  C31419641   1.443   5.979   5.543  0.3800  0.2744 -0.0981
  162DOPC  H14X19642   1.525   5.954   5.613  0.1407 -0.8129 -0.1923
  162DOPC  H14Y19643   1.348   5.958   5.597 -0.2333 -2.4260 -2.0301
  162DOPC  C31519644   1.464   5.890   5.418  0.1766  0.0928  0.3238
  162DOPC  H15X19645   1.397   5.906   5.331 -0.7037  0.3657  1.0357
  162DOPC  H15Y19646   1.442   5.790   5.461  1.2854 -0.2894  0.0495
  162DOPC  C31619647   1.603   5.909   5.358 -0.4584 -0.2692 -0.3945
  162DOPC  H16X19648   1.616   5.858   5.260  1.5762 -1.5103  0.4653
  162DOPC  H16Y19649   1.634   6.013   5.335  2.7623 -0.5406  2.1175
  162DOPC  C31719650   1.717   5.854   5.449  0.2328  0.0337  0.2607
  162DOPC  H17X19651   1.714   5.889   5.555  1.1122  2.2248 -0.3720
  162DOPC  H17Y19652   1.703   5.744   5.458  0.2222  0.1696  2.6158
  162DOPC  C31819653   1.859   5.875   5.384 -0.1817 -0.7723 -0.4145
  162DOPC  H18X19654   1.867   5.830   5.283 -0.0840  0.5133 -0.9939
  162DOPC  H18Y19655   1.877   5.985   5.378 -0.7289 -0.6515  0.0898
  162DOPC  H18Z19656   1.942   5.838   5.448 -0.0699  0.3953  0.1526
  163DOPC     N19657   0.406   3.447   7.245 -0.3600  0.3494  0.4132
  163DOPC   C1219658   0.406   3.461   7.093 -0.7237  0.7459  0.4873
  163DOPC  H12A19659   0.509   3.454   7.061 -1.0700 -1.2135 -0.3126
  163DOPC  H12B19660   0.361   3.557   7.074 -3.2194 -0.1287  1.4640
  163DOPC   C1319661   0.269   3.485   7.303  0.2815  0.3628 -0.1706
  163DOPC  H13A19662   0.266   3.471   7.410  0.9206  1.7739  0.0577
  163DOPC  H13B19663   0.246   3.589   7.288  0.9018  0.2922 -1.8208
  163DOPC  H13C19664   0.201   3.421   7.250  1.2233  1.1649 -2.4694
  163DOPC   C1419665   0.513   3.525   7.317  0.0801 -1.0650  0.2276
  163DOPC  H14A19666   0.610   3.497   7.278  0.1158  1.5935 -1.8670
  163DOPC  H14B19667   0.498   3.630   7.301  0.8930 -1.0858 -0.7391
  163DOPC  H14C19668   0.512   3.498   7.422  0.1755 -1.2093  0.1929
  163DOPC   C1519669   0.437   3.303   7.276 -0.0424  0.1939  0.5138
  163DOPC  H15A19670   0.377   3.240   7.211 -2.6058  2.3330  0.6136
  163DOPC  H15B19671   0.408   3.274   7.376 -2.1415 -0.2172 -0.1624
  163DOPC  H15C19672   0.540   3.280   7.253 -0.5503 -1.6108 -0.0785
  163DOPC   C1119673   0.324   3.366   7.008  0.0184  0.2039  0.8526
  163DOPC  H11A19674   0.344   3.409   6.907 -0.8696  1.5277  1.2144
  163DOPC  H11B19675   0.363   3.263   7.001  3.1832  1.2857  0.8622
  163DOPC     P19676   0.083   3.464   6.947  0.4643  0.6367  0.1571
  163DOPC   O1319677   0.132   3.599   6.959 -0.5353 -0.5611  0.1469
  163DOPC   O1419678  -0.063   3.445   6.983  0.3630  0.2651 -0.0339
  163DOPC   O1219679   0.182   3.374   7.037  0.3701 -0.8150 -0.2681
  163DOPC   O1119680   0.113   3.402   6.799 -0.5792 -0.2828 -1.0747
  163DOPC    C119681   0.052   3.282   6.771 -0.9397 -0.7243  0.6606
  163DOPC    HA19682  -0.039   3.312   6.715 -1.0163  1.6536  1.9563
  163DOPC    HB19683   0.008   3.227   6.857 -1.4942 -1.4149 -0.0503
  163DOPC    C219684   0.164   3.191   6.714 -0.1565 -0.3235 -0.0312
  163DOPC    HS19685   0.255   3.197   6.779 -0.0373 -0.6917 -0.1616
  163DOPC   O2119686   0.191   3.241   6.583  0.2757 -0.5827 -0.9286
  163DOPC   C2119687   0.301   3.216   6.525 -0.0894 -0.4659  0.4403
  163DOPC   O2219688   0.404   3.165   6.576  0.1480 -0.6205  0.0877
  163DOPC   C2219689   0.296   3.237   6.368  0.3011 -0.3911  0.4146
  163DOPC   H2R19690   0.386   3.195   6.318 -0.2006 -2.6568  1.3077
  163DOPC   H2S19691   0.293   3.346   6.345 -0.7083 -0.5993 -0.4769
  163DOPC    C319692   0.129   3.039   6.717 -0.1763 -0.3833  0.1951
  163DOPC    HX19693   0.034   3.031   6.659  0.1749  0.4659 -0.5179
  163DOPC    HY19694   0.104   3.012   6.821 -0.6721 -0.3509  0.0868
  163DOPC   O3119695   0.240   2.961   6.670  0.3607  0.1619  0.3433
  163DOPC   C3119696   0.332   2.930   6.760  0.3179 -0.5080 -0.2101
  163DOPC   O3219697   0.326   2.961   6.878  0.0361 -0.1884  0.2851
  163DOPC   C3219698   0.441   2.852   6.699  0.2187 -0.3043  0.8411
  163DOPC   H2X19699   0.443   2.882   6.592 -2.2815 -1.1731  0.4880
  163DOPC   H2Y19700   0.528   2.888   6.756  0.0809  0.2233  0.7203
  163DOPC   C2319701   0.169   3.160   6.313 -0.1771  0.2037 -0.5001
  163DOPC   H3R19702   0.070   3.198   6.347  0.6225 -0.5665  3.0913
  163DOPC   H3S19703   0.173   3.053   6.341 -1.1743  0.4032  0.5077
  163DOPC   C2419704   0.172   3.161   6.162 -0.9866 -0.4074  0.1341
  163DOPC   H4R19705   0.266   3.115   6.124 -2.2186 -1.4064 -1.8959
  163DOPC   H4S19706   0.173   3.267   6.129 -1.6392 -0.1555  0.8894
  163DOPC   C2519707   0.052   3.089   6.092 -0.6659 -0.1387 -0.3121
  163DOPC   H5R19708  -0.045   3.123   6.133  0.0094 -1.7178  2.8782
  163DOPC   H5S19709   0.059   2.979   6.110 -0.8826 -0.3892 -1.6093
  163DOPC   C2619710   0.053   3.098   5.931 -0.2716  0.9916 -0.0781
  163DOPC   H6R19711   0.152   3.080   5.884 -1.2414 -0.9303 -1.5273
  163DOPC   H6S19712   0.033   3.206   5.916  0.1765  1.1428  0.3861
  163DOPC   C2719713  -0.055   3.013   5.877  0.4186 -0.0756  0.3422
  163DOPC   H7R19714  -0.150   3.037   5.930 -0.6327  0.7741 -1.8377
  163DOPC   H7S19715  -0.023   2.908   5.894  1.9752  0.2766 -0.2241
  163DOPC   C2819716  -0.089   3.040   5.727  0.5682 -0.6314  0.1576
  163DOPC   H8R19717  -0.171   2.976   5.689  0.2433 -1.6643  2.4271
  163DOPC   H8S19718  -0.007   3.026   5.655 -1.6764  0.6560 -2.8552
  163DOPC   C2919719  -0.140   3.181   5.704  0.3094 -0.2021 -0.1820
  163DOPC   H9R19720  -0.218   3.219   5.771 -0.4102 -1.1626 -0.4365
  163DOPC  C21019721  -0.089   3.266   5.607  0.4294  0.9523  0.0015
  163DOPC  H10R19722  -0.139   3.364   5.598  0.3902  0.9245 -0.0868
  163DOPC  C21119723   0.021   3.229   5.509  0.4494  0.3619 -0.5486
  163DOPC  H11R19724   0.093   3.159   5.557 -0.5831 -0.5357 -0.2680
  163DOPC  H11S19725   0.072   3.324   5.481  1.0600  0.5586  1.0819
  163DOPC  C21219726  -0.023   3.148   5.386 -0.2144  0.4097  0.0699
  163DOPC  H12R19727  -0.108   3.193   5.330 -0.3765 -1.4427 -1.2597
  163DOPC  H12S19728  -0.075   3.061   5.432  0.4228  0.7720  1.5367
  163DOPC  C21319729   0.084   3.103   5.289 -0.1548 -0.2655 -0.6403
  163DOPC  H13R19730   0.164   3.051   5.345 -0.2760  0.6683  0.4272
  163DOPC  H13S19731   0.130   3.195   5.246  1.2927 -1.1339 -1.0175
  163DOPC  C21419732   0.016   3.021   5.178 -0.0622  0.4500  0.6528
  163DOPC  H14R19733  -0.057   3.084   5.123 -2.5738 -3.5719 -1.1178
  163DOPC  H14S19734  -0.042   2.937   5.223 -0.6824  1.6349  2.1438
  163DOPC  C21519735   0.120   2.966   5.079 -0.2583 -0.1047 -0.5860
  163DOPC  H15R19736   0.171   2.885   5.136 -0.4086  2.4510  3.6580
  163DOPC  H15S19737   0.186   3.049   5.044 -1.3877  0.8583 -0.4890
  163DOPC  C21619738   0.052   2.912   4.952  0.3028  0.0263  0.2087
  163DOPC  H16R19739  -0.029   2.983   4.925  0.2488 -0.0836  0.0844
  163DOPC  H16S19740   0.000   2.817   4.975 -0.4719  0.2852 -0.4234
  163DOPC  C21719741   0.154   2.890   4.845 -0.1760  0.1908 -0.1376
  163DOPC  H17R19742   0.195   2.990   4.818  0.0418  0.5841  1.5861
  163DOPC  H17S19743   0.111   2.845   4.753  3.7199 -3.0452 -0.6753
  163DOPC  C21819744   0.278   2.804   4.875  0.2687  0.5544 -0.5712
  163DOPC  H18R19745   0.353   2.858   4.936  2.4063 -0.3689 -2.2431
  163DOPC  H18S19746   0.330   2.769   4.784 -0.8906 -2.9599 -0.0138
  163DOPC  H18T19747   0.251   2.708   4.923 -1.7196  1.1989 -0.2689
  163DOPC   C3319748   0.419   2.700   6.721 -0.2939 -0.1425  0.4467
  163DOPC   H3X19749   0.397   2.670   6.826  0.8834 -0.4585  0.6143
  163DOPC   H3Y19750   0.514   2.651   6.690  0.4870  1.2684  0.5498
  163DOPC   C3419751   0.304   2.642   6.629 -0.1131  0.2921  0.4843
  163DOPC   H4X19752   0.210   2.689   6.664 -1.8755 -3.3906  1.1797
  163DOPC   H4Y19753   0.282   2.536   6.654 -0.0265  0.2697  0.4674
  163DOPC   C3519754   0.320   2.649   6.472  0.3553  0.6625  0.3463
  163DOPC   H5X19755   0.423   2.621   6.442  0.1159 -0.6519  0.6931
  163DOPC   H5Y19756   0.299   2.755   6.446 -1.5583  0.1023 -0.5057
  163DOPC   C3619757   0.213   2.565   6.400  0.2732 -0.2105  0.1473
  163DOPC   H6X19758   0.237   2.458   6.416 -1.4236 -0.6781 -0.1751
  163DOPC   H6Y19759   0.111   2.583   6.442  0.3193 -1.9790  1.1089
  163DOPC   C3719760   0.209   2.602   6.252  0.2494  0.1968  0.0132
  163DOPC   H7X19761   0.304   2.653   6.226  1.3268 -0.5286  2.3294
  163DOPC   H7Y19762   0.196   2.512   6.188 -1.1480 -1.4463  2.4663
  163DOPC   C3819763   0.081   2.689   6.210  0.0846 -0.0047  0.1890
  163DOPC   H8X19764   0.078   2.782   6.270  0.9300  0.7011 -0.8251
  163DOPC   H8Y19765  -0.007   2.625   6.236  0.8565 -2.5968 -2.8791
  163DOPC   C3919766   0.093   2.714   6.060 -0.5493 -0.2312  0.5641
  163DOPC   H9X19767   0.165   2.790   6.026 -1.8989  1.1387  0.6521
  163DOPC  C31019768   0.032   2.640   5.970  0.2856 -0.1230  1.1297
  163DOPC  H10X19769   0.036   2.669   5.864  3.3678  0.7320  1.3870
  163DOPC  C31119770  -0.063   2.523   5.993 -0.4812  0.5136 -0.2971
  163DOPC  H11X19771  -0.150   2.557   6.052 -0.8567 -1.9886  0.7079
  163DOPC  H11Y19772   0.001   2.459   6.058  1.4639  1.3018 -1.3499
  163DOPC  C31219773  -0.105   2.437   5.872 -0.3679 -0.5618 -0.4305
  163DOPC  H12X19774  -0.017   2.396   5.819  0.1723 -1.0712  0.8164
  163DOPC  H12Y19775  -0.154   2.497   5.792 -0.8032 -0.3188  0.0127
  163DOPC  C31319776  -0.205   2.325   5.916  0.0674  0.2564  1.0124
  163DOPC  H13X19777  -0.156   2.273   6.001 -0.5144 -1.9946  0.0688
  163DOPC  H13Y19778  -0.303   2.369   5.945 -0.7272  0.1344 -1.2046
  163DOPC  C31419779  -0.231   2.212   5.806  0.1754 -0.5692  0.0538
  163DOPC  H14X19780  -0.130   2.168   5.790  0.8045  0.1923  1.7303
  163DOPC  H14Y19781  -0.298   2.133   5.845 -1.0943  0.2236 -0.4590
  163DOPC  C31519782  -0.273   2.272   5.670  0.4347 -0.1236 -0.8397
  163DOPC  H15X19783  -0.192   2.331   5.622  0.0464  1.7816  0.7296
  163DOPC  H15Y19784  -0.358   2.340   5.687 -1.6640 -2.4854 -1.2299
  163DOPC  C31619785  -0.306   2.156   5.569 -0.2717 -0.7987 -0.4415
  163DOPC  H16X19786  -0.208   2.106   5.556 -1.1802 -2.3458 -1.6277
  163DOPC  H16Y19787  -0.376   2.081   5.611  1.2462 -2.3983 -0.6564
  163DOPC  C31719788  -0.353   2.228   5.445  0.0697 -0.4248  0.1449
  163DOPC  H17X19789  -0.305   2.318   5.401 -1.8655 -1.0687 -3.7297
  163DOPC  H17Y19790  -0.343   2.154   5.363 -0.1330 -1.6294  1.1706
  163DOPC  C31819791  -0.503   2.248   5.453  0.5140  0.0819  0.3518
  163DOPC  H18X19792  -0.530   2.321   5.374 -1.5426 -2.0836 -1.0596
  163DOPC  H18Y19793  -0.566   2.159   5.436  1.6015 -0.3705 -1.5426
  163DOPC  H18Z19794  -0.545   2.288   5.548 -2.6519  0.4575 -1.0836
  164DOPC     N19795   1.572   0.827   7.129 -0.8311  0.2882 -0.2342
  164DOPC   C1219796   1.477   0.863   7.009 -0.5628  0.0007 -0.5559
  164DOPC  H12A19797   1.469   0.777   6.945  0.8680 -0.0609 -0.6702
  164DOPC  H12B19798   1.530   0.946   6.965  3.0227 -1.2255  1.0675
  164DOPC   C1319799   1.605   0.936   7.227  0.4933 -0.8949 -0.0703
  164DOPC  H13A19800   1.633   0.884   7.318  0.6794 -0.9426 -0.1551
  164DOPC  H13B19801   1.692   0.992   7.195 -1.3629  1.8572 -0.6605
  164DOPC  H13C19802   1.520   1.001   7.244  0.2829 -1.0053 -0.6721
  164DOPC   C1419803   1.703   0.772   7.073  0.3072 -0.5518 -0.4907
  164DOPC  H14A19804   1.688   0.681   7.016  0.4650  0.4379 -2.1884
  164DOPC  H14B19805   1.747   0.850   7.012  1.6563  0.3285  1.5190
  164DOPC  H14C19806   1.770   0.747   7.154 -0.6741 -1.1853  0.1465
  164DOPC   C1519807   1.512   0.711   7.201 -0.0498  0.3080  0.4670
  164DOPC  H15A19808   1.574   0.696   7.288  0.7187 -1.1688 -0.3013
  164DOPC  H15B19809   1.509   0.620   7.143 -2.0116  1.2918 -1.1247
  164DOPC  H15C19810   1.410   0.732   7.232 -0.6092 -0.6998 -0.5919
  164DOPC   C1119811   1.340   0.917   7.061  0.2832 -0.2097  0.3900
  164DOPC  H11A19812   1.265   0.892   6.983 -1.9435  0.6607  2.1338
  164DOPC  H11B19813   1.310   0.863   7.153  1.0217 -0.8903  0.2482
  164DOPC     P19814   1.229   1.152   7.041 -0.2965 -0.1592  0.2974
  164DOPC   O1319815   1.252   1.283   7.106 -0.5339 -0.2128 -0.3441
  164DOPC   O1419816   1.099   1.079   7.057  0.2762  0.1197 -0.2463
  164DOPC   O1219817   1.341   1.056   7.091  0.0038 -0.4768  0.0659
  164DOPC   O1119818   1.256   1.161   6.880 -0.1112  0.2387  0.0208
  164DOPC    C119819   1.380   1.225   6.839 -0.3504 -0.1325 -0.0338
  164DOPC    HA19820   1.465   1.162   6.874  0.1491  0.2295 -0.5786
  164DOPC    HB19821   1.402   1.325   6.882 -0.0442 -0.6581  1.0962
  164DOPC    C219822   1.396   1.229   6.688  0.0348  0.2405  0.1653
  164DOPC    HS19823   1.500   1.194   6.667  0.4105  0.4470  1.5785
  164DOPC   O2119824   1.369   1.363   6.636 -0.0758 -0.0396 -0.0879
  164DOPC   C2119825   1.476   1.436   6.641  0.8308  0.0351  0.4798
  164DOPC   O2219826   1.580   1.405   6.696  0.3240  0.6230  0.3297
  164DOPC   C2219827   1.445   1.561   6.552 -1.3281 -0.2721 -0.0188
  164DOPC   H2R19828   1.542   1.602   6.515 -1.8196  1.0331  0.1144
  164DOPC   H2S19829   1.407   1.635   6.625  0.4637  1.0788 -0.3926
  164DOPC    C319830   1.299   1.127   6.620  0.3948 -0.6731 -0.4145
  164DOPC    HX19831   1.198   1.157   6.655  0.6634 -0.7538  0.4360
  164DOPC    HY19832   1.317   1.023   6.653 -0.0975 -0.7322 -0.3152
  164DOPC   O3119833   1.292   1.145   6.475 -0.1148 -0.4647 -0.3247
  164DOPC   C3119834   1.389   1.085   6.413  0.1214 -0.1548  0.4837
  164DOPC   O3219835   1.485   1.036   6.466 -0.2260 -0.0594 -0.2007
  164DOPC   C3219836   1.366   1.102   6.264  0.4968  0.1259 -0.3589
  164DOPC   H2X19837   1.258   1.090   6.245  0.6879 -0.3727 -1.1663
  164DOPC   H2Y19838   1.406   1.202   6.238  1.4041  0.1670  1.0284
  164DOPC   C2319839   1.347   1.558   6.431 -0.5721  0.0384 -0.4655
  164DOPC   H3R19840   1.258   1.500   6.462 -0.1528 -0.8441 -0.8655
  164DOPC   H3S19841   1.397   1.496   6.353  0.2963 -0.3081  0.3448
  164DOPC   C2419842   1.312   1.694   6.377  0.8375  0.3631  0.0576
  164DOPC   H4R19843   1.401   1.759   6.365 -0.2097  1.8398  0.0308
  164DOPC   H4S19844   1.237   1.745   6.441  0.0011 -0.7209 -0.0277
  164DOPC   C2519845   1.256   1.683   6.233  0.5337  0.2968 -0.5792
  164DOPC   H5R19846   1.213   1.784   6.219  0.5136  0.2788 -0.6453
  164DOPC   H5S19847   1.178   1.604   6.225 -0.4216  1.1999 -0.4893
  164DOPC   C2619848   1.365   1.672   6.129  0.4049  0.3177 -0.0957
  164DOPC   H6R19849   1.423   1.580   6.152  0.9279  1.0882  1.8619
  164DOPC   H6S19850   1.439   1.754   6.142 -0.7487  1.4032 -0.1522
  164DOPC   C2719851   1.319   1.674   5.983  0.1574 -0.2478 -0.4542
  164DOPC   H7R19852   1.224   1.618   5.981 -0.1287  0.1781  0.4467
  164DOPC   H7S19853   1.398   1.626   5.921  2.1627  0.7043  1.2296
  164DOPC   C2819854   1.289   1.813   5.922  0.2175  0.0803 -0.3515
  164DOPC   H8R19855   1.195   1.848   5.969  1.1584  0.6003  1.2321
  164DOPC   H8S19856   1.251   1.781   5.823  2.2081 -3.2560 -0.1917
  164DOPC   C2919857   1.402   1.918   5.921 -0.1398 -0.3606 -0.1840
  164DOPC   H9R19858   1.491   1.894   5.861 -0.5396 -0.6942 -0.6578
  164DOPC  C21019859   1.397   2.040   5.977 -0.3078 -0.2238 -0.8938
  164DOPC  H10R19860   1.484   2.105   5.963 -0.8219  0.5242 -0.6877
  164DOPC  C21119861   1.275   2.096   6.053 -0.2961 -0.0887  0.4758
  164DOPC  H11R19862   1.182   2.047   6.016 -0.6870  1.4955 -0.7998
  164DOPC  H11S19863   1.268   2.203   6.021  0.8136  0.2885  1.4471
  164DOPC  C21219864   1.286   2.103   6.206  0.2482  0.2892  0.3879
  164DOPC  H12R19865   1.360   2.177   6.245 -1.1877  2.5845 -0.9781
  164DOPC  H12S19866   1.318   2.008   6.253 -0.8701 -0.3477 -0.0824
  164DOPC  C21319867   1.150   2.134   6.273 -0.2624  0.1137 -0.8038
  164DOPC  H13R19868   1.072   2.065   6.234  0.3327 -0.6468 -0.6797
  164DOPC  H13S19869   1.124   2.240   6.254  1.8365  0.9773  0.7503
  164DOPC  C21419870   1.158   2.118   6.428  0.0935  0.9444  0.2699
  164DOPC  H14R19871   1.242   2.174   6.474 -0.1899 -0.8684  3.2490
  164DOPC  H14S19872   1.189   2.012   6.438 -3.6610 -0.4290 -1.0269
  164DOPC  C21519873   1.031   2.156   6.497  0.1254  0.7108  0.1675
  164DOPC  H15R19874   0.946   2.097   6.458  0.7360  0.8611 -1.4859
  164DOPC  H15S19875   0.999   2.262   6.489  0.1218  0.7796  1.0248
  164DOPC  C21619876   1.062   2.143   6.648  0.1158 -0.2989 -0.0019
  164DOPC  H16R19877   1.151   2.200   6.681 -1.0072  1.2302  0.5714
  164DOPC  H16S19878   1.082   2.037   6.674  0.9913 -0.0268  0.4669
  164DOPC  C21719879   0.946   2.195   6.732 -0.0198  0.1726 -0.2281
  164DOPC  H17R19880   0.963   2.151   6.833  1.3264 -3.6946 -1.9509
  164DOPC  H17S19881   0.849   2.157   6.694 -0.5499  1.3160 -0.0641
  164DOPC  C21819882   0.939   2.350   6.734  0.3004  0.4954  0.8584
  164DOPC  H18R19883   0.905   2.395   6.638  2.5843  1.6611  0.5158
  164DOPC  H18S19884   1.036   2.396   6.761  0.9579 -1.4713  2.0687
  164DOPC  H18T19885   0.859   2.382   6.804 -1.5143 -0.4028 -0.6960
  164DOPC   C3319886   1.429   0.986   6.185  0.5579 -0.1459 -0.1138
  164DOPC   H3X19887   1.410   0.888   6.234 -1.4763 -0.6509 -1.7791
  164DOPC   H3Y19888   1.540   0.994   6.179  0.4287  1.1187 -1.2746
  164DOPC   C3419889   1.367   0.964   6.044  0.1520 -0.4482 -0.0604
  164DOPC   H4X19890   1.386   1.053   5.981  0.0643 -1.2173 -1.1986
  164DOPC   H4Y19891   1.256   0.967   6.057  0.0082 -0.8811 -1.0581
  164DOPC   C3519892   1.417   0.828   5.984  0.3855  0.1049  0.5055
  164DOPC   H5X19893   1.369   0.742   6.037  0.8400 -0.4228  0.0765
  164DOPC   H5Y19894   1.527   0.824   5.997  0.7821  1.1719 -2.0277
  164DOPC   C3619895   1.371   0.805   5.832 -0.0231 -0.4997  0.0352
  164DOPC   H6X19896   1.415   0.883   5.766 -1.6621 -0.6609 -1.3217
  164DOPC   H6Y19897   1.427   0.713   5.808  0.3194 -0.5706  1.0579
  164DOPC   C3719898   1.220   0.776   5.821 -0.7006 -0.7694  0.0661
  164DOPC   H7X19899   1.191   0.699   5.895  1.5892 -0.8041  1.0005
  164DOPC   H7Y19900   1.164   0.870   5.842 -0.2211 -0.9737  2.6003
  164DOPC   C3819901   1.187   0.720   5.683  0.3408 -0.1125  0.4742
  164DOPC   H8X19902   1.080   0.691   5.671  0.6290 -0.1774 -2.6770
  164DOPC   H8Y19903   1.235   0.621   5.675  1.4720  0.3841  0.9560
  164DOPC   C3919904   1.230   0.821   5.577  0.4299 -0.4182  0.1326
  164DOPC   H9X19905   1.335   0.806   5.549  0.7888  0.9366  0.6781
  164DOPC  C31019906   1.155   0.917   5.509 -0.2121  0.3200  0.1811
  164DOPC  H10X19907   1.200   0.992   5.442 -0.4386  2.3413  2.1624
  164DOPC  C31119908   1.011   0.937   5.534  0.5113 -0.1628  0.6309
  164DOPC  H11X19909   0.974   0.879   5.621 -0.0553 -2.4306 -1.0240
  164DOPC  H11Y19910   0.955   0.915   5.440  1.1149 -0.1642  0.2724
  164DOPC  C31219911   0.979   1.083   5.564  0.8851 -0.2534  0.1294
  164DOPC  H12X19912   1.007   1.145   5.476 -0.3551  0.1369 -0.0183
  164DOPC  H12Y19913   1.041   1.125   5.646  3.2534 -1.6941 -0.8414
  164DOPC  C31319914   0.836   1.102   5.605 -0.5219  0.0849 -0.6785
  164DOPC  H13X19915   0.756   1.053   5.544 -1.3290  4.2354 -3.3588
  164DOPC  H13Y19916   0.826   1.050   5.703  0.0563  0.3491 -0.4764
  164DOPC  C31419917   0.811   1.251   5.629 -0.0369  0.1002 -0.0002
  164DOPC  H14X19918   0.843   1.307   5.538  2.9883  2.0562  2.1025
  164DOPC  H14Y19919   0.872   1.294   5.711 -2.4974  2.1035  0.9346
  164DOPC  C31519920   0.664   1.278   5.659  0.4685 -0.5739  0.5300
  164DOPC  H15X19921   0.655   1.247   5.765 -0.0707 -1.0480  0.3466
  164DOPC  H15Y19922   0.593   1.225   5.592  1.5730 -0.1843 -0.9977
  164DOPC  C31619923   0.637   1.428   5.657  0.2088  0.0148 -0.1924
  164DOPC  H16X19924   0.536   1.450   5.698 -0.0608  1.3406 -1.4735
  164DOPC  H16Y19925   0.710   1.480   5.723  0.1066 -2.7635  2.3298
  164DOPC  C31719926   0.641   1.494   5.512 -0.0594  0.1235 -0.3836
  164DOPC  H17X19927   0.594   1.594   5.525 -3.4556 -1.4375  0.6312
  164DOPC  H17Y19928   0.749   1.509   5.491  0.2615 -0.5187  0.7052
  164DOPC  C31819929   0.586   1.404   5.398 -0.5201 -0.7737 -0.0284
  164DOPC  H18X19930   0.602   1.458   5.302 -0.0585 -0.8738 -0.0098
  164DOPC  H18Y19931   0.644   1.309   5.388 -1.7472 -1.5368 -0.0637
  164DOPC  H18Z19932   0.480   1.381   5.422  0.0796 -0.8805  2.8795
  165DOPC     N19933   6.530   1.460   7.162  0.0558 -0.0690 -0.8105
  165DOPC   C1219934   6.620   1.506   7.048 -0.3654 -0.3761  0.9031
  165DOPC  H12A19935   6.700   1.433   7.047  0.1169  0.1409  0.4032
  165DOPC  H12B19936   6.660   1.603   7.074  0.9126 -0.1964 -1.4529
  165DOPC   C1319937   6.465   1.331   7.116  0.1700 -0.0945 -0.3230
  165DOPC  H13A19938   6.390   1.294   7.184 -1.3236  0.3996 -1.6409
  165DOPC  H13B19939   6.418   1.352   7.021  1.6233  0.9826 -0.8497
  165DOPC  H13C19940   6.541   1.255   7.111  0.0790 -0.1177 -1.7395
  165DOPC   C1419941   6.424   1.564   7.190 -0.1329  0.7116  0.9784
  165DOPC  H14A19942   6.477   1.651   7.224  1.3630  0.8723 -1.4915
  165DOPC  H14B19943   6.378   1.588   7.094 -0.8230 -1.2688  0.7604
  165DOPC  H14C19944   6.345   1.523   7.251 -0.4685  1.0835  0.8032
  165DOPC   C1519945   6.608   1.431   7.289 -0.1298 -0.0357  0.0814
  165DOPC  H15A19946   6.654   1.521   7.325 -0.4706 -0.6754  2.2373
  165DOPC  H15B19947   6.682   1.354   7.273  0.5777  0.4210  1.0746
  165DOPC  H15C19948   6.536   1.403   7.365  0.2879  0.4296  0.6554
  165DOPC   C1119949   6.567   1.527   6.902 -0.1076 -0.2635 -0.0112
  165DOPC  H11A19950   6.642   1.577   6.837 -0.0514  0.3527  0.5216
  165DOPC  H11B19951   6.535   1.431   6.855 -1.6713 -0.2068  0.8733
  165DOPC     P19952   6.317   1.573   6.830  0.1718  0.1916  0.1439
  165DOPC   O1319953   6.209   1.656   6.878 -0.5999 -0.1434 -0.8704
  165DOPC   O1419954   6.285   1.434   6.852  0.3167  0.5291 -0.1559
  165DOPC   O1219955   6.450   1.605   6.906 -0.7015 -0.0688  0.0567
  165DOPC   O1119956   6.348   1.597   6.676 -0.0788  0.0437 -0.7386
  165DOPC    C119957   6.432   1.709   6.641 -0.3450 -0.1008 -0.1204
  165DOPC    HA19958   6.483   1.689   6.544 -0.3723  1.1748 -0.4085
  165DOPC    HB19959   6.515   1.714   6.715 -1.1622 -2.8631  1.1497
  165DOPC    C219960   6.355   1.845   6.630 -0.0095  0.7450 -0.1157
  165DOPC    HS19961   6.274   1.829   6.705  1.2497  1.3026  1.4260
  165DOPC   O2119962   6.301   1.850   6.500 -0.0143 -0.0645  0.0283
  165DOPC   C2119963   6.200   1.931   6.481  0.4528  0.0109 -0.1796
  165DOPC   O2219964   6.147   2.003   6.569 -0.1961  0.2419 -0.1125
  165DOPC   C2219965   6.135   1.909   6.344  0.1628 -0.1401  0.1355
  165DOPC   H2R19966   6.219   1.915   6.272  1.2585 -0.6373  1.3438
  165DOPC   H2S19967   6.051   1.982   6.334  0.1095  0.0953  1.9698
  165DOPC    C319968   6.445   1.961   6.677  0.0930  0.4047  0.6646
  165DOPC    HX19969   6.488   1.932   6.775 -2.9935 -0.9573  1.7581
  165DOPC    HY19970   6.390   2.056   6.693 -0.9328  0.0357 -0.5000
  165DOPC   O3119971   6.560   1.965   6.588  0.1029  0.2679 -0.1601
  165DOPC   C3119972   6.563   2.052   6.488  0.3591 -0.4986  0.4537
  165DOPC   O3219973   6.476   2.129   6.451 -0.0955 -0.2038 -0.0495
  165DOPC   C3219974   6.700   2.044   6.422 -0.2479  0.0813 -0.1143
  165DOPC   H2X19975   6.728   2.148   6.393  0.3501 -0.0522 -0.0376
  165DOPC   H2Y19976   6.779   2.013   6.494 -0.6444  0.2016  0.3724
  165DOPC   C2319977   6.068   1.775   6.327  0.0387  0.4095 -0.3667
  165DOPC   H3R19978   5.997   1.770   6.413  1.8925  0.3396  1.2305
  165DOPC   H3S19979   6.144   1.698   6.351  1.3158  2.1466  1.5198
  165DOPC   C2419980   5.997   1.759   6.192 -0.0191 -0.0679 -0.0364
  165DOPC   H4R19981   6.090   1.771   6.132  1.2559 -1.9880  1.3780
  165DOPC   H4S19982   5.920   1.838   6.193 -1.2603 -1.1691 -1.9847
  165DOPC   C2519983   5.932   1.619   6.163 -0.1462 -0.2655  0.1783
  165DOPC   H5R19984   5.824   1.627   6.187 -0.4058 -1.0785 -0.6432
  165DOPC   H5S19985   5.973   1.538   6.226 -1.6428 -1.0291  0.2272
  165DOPC   C2619986   5.957   1.581   6.010 -0.3008  0.2987  0.2962
  165DOPC   H6R19987   5.921   1.481   5.980 -0.6856 -0.0509  1.8321
  165DOPC   H6S19988   6.067   1.570   6.007 -0.3740 -0.4164 -2.8502
  165DOPC   C2719989   5.915   1.688   5.901  0.4136 -0.3016  0.1740
  165DOPC   H7R19990   5.967   1.781   5.934  1.2226 -1.1557  1.4291
  165DOPC   H7S19991   5.805   1.697   5.911  0.1281 -1.4737 -1.5618
  165DOPC   C2819992   5.952   1.650   5.758 -0.4748 -0.4866  0.0808
  165DOPC   H8R19993   5.925   1.734   5.691  1.5062  1.6597  1.8041
  165DOPC   H8S19994   5.891   1.559   5.740  0.7725 -1.4348  0.4572
  165DOPC   C2919995   6.099   1.628   5.741  0.6666  0.2670  0.7915
  165DOPC   H9R19996   6.162   1.718   5.733  0.0635  0.5369 -2.7119
  165DOPC  C21019997   6.167   1.510   5.719  0.4611  0.1382 -0.5057
  165DOPC  H10R19998   6.275   1.523   5.699  0.2789 -0.1303 -1.7914
  165DOPC  C21119999   6.113   1.367   5.703 -0.0867 -0.4855 -0.0581
  165DOPC  H11R20000   6.053   1.344   5.794  0.9339  0.5254  0.9139
  165DOPC  H11S20001   6.197   1.294   5.697  1.2649  1.0493 -0.5387
  165DOPC  C21220002   6.019   1.359   5.585  0.3930  0.8188  0.9263
  165DOPC  H12R20003   5.923   1.416   5.591 -0.1609 -0.1221  1.2215
  165DOPC  H12S20004   5.972   1.258   5.586  0.2386  0.8406 -0.7615
  165DOPC  C21320005   6.087   1.398   5.448  0.1866 -0.2672  0.1553
  165DOPC  H13R20006   6.190   1.355   5.454 -0.0440 -0.7531  4.6656
  165DOPC  H13S20007   6.091   1.509   5.444 -1.4132 -0.2127 -0.8601
  165DOPC  C21420008   6.004   1.343   5.330  0.5283 -0.6488  0.0994
  165DOPC  H14R20009   5.900   1.382   5.340 -0.1365 -1.7934 -1.7090
  165DOPC  H14S20010   5.997   1.232   5.333 -0.2758 -0.7347 -2.5527
  165DOPC  C21520011   6.071   1.384   5.196  0.1500 -0.4472  0.0955
  165DOPC  H15R20012   6.175   1.345   5.201  1.1187  1.8332 -0.8597
  165DOPC  H15S20013   6.078   1.495   5.190 -0.5486 -0.2129  2.4053
  165DOPC  C21620014   5.999   1.330   5.067 -0.4757  0.4152  1.0636
  165DOPC  H16R20015   6.001   1.219   5.061 -4.0868  0.3075 -3.5802
  165DOPC  H16S20016   6.059   1.374   4.983  1.0734 -0.0949  1.8605
  165DOPC  C21720017   5.854   1.370   5.048  0.2204  0.6083 -0.0338
  165DOPC  H17R20018   5.848   1.479   5.026  1.2058  0.3656 -1.7113
  165DOPC  H17S20019   5.796   1.347   5.139 -2.1644  0.7809 -1.4426
  165DOPC  C21820020   5.786   1.294   4.934 -0.2348  0.4970  0.2507
  165DOPC  H18R20021   5.682   1.332   4.934  0.8523  3.7631  0.7782
  165DOPC  H18S20022   5.793   1.183   4.943 -1.8114  0.1929 -1.5601
  165DOPC  H18T20023   5.843   1.310   4.840 -1.4410  0.5298 -0.4922
  165DOPC   C3320024   6.683   1.963   6.290 -0.7800 -0.1120  0.6154
  165DOPC   H3X20025   6.596   1.997   6.230 -1.5488 -2.2283  0.4572
  165DOPC   H3Y20026   6.648   1.860   6.310 -0.4755 -0.2890  0.2538
  165DOPC   C3420027   6.806   1.973   6.197 -0.0190 -0.4285 -0.2796
  165DOPC   H4X20028   6.847   2.073   6.222  0.9847 -0.6637 -0.9077
  165DOPC   H4Y20029   6.771   1.963   6.092  0.2701  0.8034 -0.5123
  165DOPC   C3520030   6.903   1.852   6.235  0.6928 -0.0409 -0.3579
  165DOPC   H5X20031   6.926   1.842   6.343 -1.9343 -1.1902  0.1727
  165DOPC   H5Y20032   6.997   1.876   6.182  0.5576 -1.6987 -1.4249
  165DOPC   C3620033   6.860   1.719   6.165  0.0412  0.0619 -0.4927
  165DOPC   H6X20034   6.920   1.637   6.210 -1.8918 -1.0848  0.1203
  165DOPC   H6Y20035   6.757   1.695   6.201  0.0468  0.4669 -0.2024
  165DOPC   C3720036   6.872   1.713   6.018 -0.5530  0.0260 -0.3545
  165DOPC   H7X20037   6.973   1.746   5.988 -0.2155 -1.2247 -0.6473
  165DOPC   H7Y20038   6.788   1.767   5.969  0.2537  1.6821  0.0329
  165DOPC   C3820039   6.873   1.564   5.965 -0.1909 -0.6647  0.4378
  165DOPC   H8X20040   6.786   1.511   6.008 -0.8694 -0.6817 -0.9086
  165DOPC   H8Y20041   6.971   1.530   6.005  0.0751 -0.5053 -0.0617
  165DOPC   C3920042   6.878   1.559   5.818  0.2657  0.3485  0.2715
  165DOPC   H9X20043   6.924   1.640   5.759  0.1106 -0.4307 -0.9412
  165DOPC  C31020044   6.818   1.454   5.749 -0.0488 -0.3876  0.5801
  165DOPC  H10X20045   6.858   1.443   5.647  3.5815  0.7193  1.7441
  165DOPC  C31120046   6.742   1.336   5.794 -0.2155  0.3939 -0.1346
  165DOPC  H11X20047   6.728   1.336   5.905  0.0616  0.1979 -0.0978
  165DOPC  H11Y20048   6.799   1.242   5.775 -2.4694 -0.4974 -3.2352
  165DOPC  C31220049   6.604   1.307   5.728 -0.9485 -0.0882  0.2685
  165DOPC  H12X20050   6.621   1.328   5.620 -1.6277 -2.7387 -0.4314
  165DOPC  H12Y20051   6.536   1.385   5.769 -1.2337 -0.5629  0.7109
  165DOPC  C31320052   6.553   1.166   5.748 -0.2662  0.1910 -0.1107
  165DOPC  H13X20053   6.455   1.152   5.696 -0.3698 -1.0550  0.3903
  165DOPC  H13Y20054   6.634   1.102   5.705 -1.7375 -1.7544 -0.1461
  165DOPC  C31420055   6.544   1.133   5.898 -0.0879  0.1059 -0.1582
  165DOPC  H14X20056   6.647   1.150   5.936 -1.4401 -0.1893  4.1593
  165DOPC  H14Y20057   6.475   1.211   5.935 -0.2749 -0.0756 -0.1220
  165DOPC  C31520058   6.502   0.989   5.928 -0.4675 -0.7096  0.5012
  165DOPC  H15X20059   6.585   0.933   5.880 -0.1029  0.0865  0.1816
  165DOPC  H15Y20060   6.401   0.968   5.887  0.9954 -1.4555 -3.1277
  165DOPC  C31620061   6.523   0.962   6.081 -0.5022 -0.0976  0.7468
  165DOPC  H16X20062   6.625   0.999   6.107 -0.2397 -1.1697  1.2955
  165DOPC  H16Y20063   6.442   1.008   6.141  0.1019 -0.6219  2.0030
  165DOPC  C31720064   6.528   0.811   6.104  0.0865 -0.2879  0.0676
  165DOPC  H17X20065   6.422   0.777   6.099  0.1716 -0.3542 -1.8082
  165DOPC  H17Y20066   6.570   0.759   6.016 -1.2251  1.7007 -1.8588
  165DOPC  C31820067   6.597   0.767   6.235  0.0106 -0.0300  0.2410
  165DOPC  H18X20068   6.589   0.843   6.316  1.9691  0.3438  0.1216
  165DOPC  H18Y20069   6.545   0.669   6.246 -0.8305  0.3517 -0.2287
  165DOPC  H18Z20070   6.705   0.745   6.225  0.6542  2.3724  1.1222
  166DOPC     N20071   7.519   2.974   7.371 -0.7897 -0.0398 -0.3306
  166DOPC   C1220072   7.563   3.039   7.245 -0.1431  0.0004  0.3848
  166DOPC  H12A20073   7.670   3.031   7.234 -0.4389 -0.6231 -3.2511
  166DOPC  H12B20074   7.555   3.147   7.248  2.1729  0.2871 -1.2681
  166DOPC   C1320075   7.600   3.027   7.490 -0.0760 -0.0575  1.0350
  166DOPC  H13A20076   7.699   2.987   7.508  0.2184  0.7335  1.2153
  166DOPC  H13B20077   7.632   3.129   7.471  1.3942 -0.4142  1.4705
  166DOPC  H13C20078   7.539   3.028   7.579 -0.0064 -1.2071  1.1124
  166DOPC   C1420079   7.543   2.827   7.362 -0.5877 -0.6513  0.0973
  166DOPC  H14A20080   7.647   2.802   7.347 -0.7215 -2.2001  1.4109
  166DOPC  H14B20081   7.509   2.775   7.451  0.7235 -1.5768  0.0944
  166DOPC  H14C20082   7.484   2.783   7.283 -2.0493  0.8918  0.2783
  166DOPC   C1520083   7.374   2.998   7.398 -0.4704  1.0366 -0.3513
  166DOPC  H15A20084   7.318   2.963   7.313 -0.5197 -0.7248  0.3634
  166DOPC  H15B20085   7.365   3.105   7.404  1.1872  1.2376 -1.0855
  166DOPC  H15C20086   7.330   2.945   7.482 -0.8342  1.6935 -0.1216
  166DOPC   C1120087   7.503   2.978   7.112 -0.2307  0.1283 -0.1059
  166DOPC  H11A20088   7.570   3.012   7.030  1.3015 -0.5460  0.8187
  166DOPC  H11B20089   7.512   2.867   7.114  1.0875  0.2127  2.3766
  166DOPC     P20090   7.302   3.147   7.060  0.2025  0.1828  0.0821
  166DOPC   O1320091   7.376   3.254   7.130  0.1519 -0.2291  0.0968
  166DOPC   O1420092   7.156   3.143   7.068  0.3112  0.0374  0.9830
  166DOPC   O1220093   7.365   3.005   7.092  0.6641 -0.2065 -0.5639
  166DOPC   O1120094   7.332   3.159   6.912 -0.6600 -0.3498  0.2203
  166DOPC    C120095   7.325   3.053   6.816 -0.2244  0.5200  0.4513
  166DOPC    HA20096   7.280   2.962   6.860  0.2028  1.4539  2.9678
  166DOPC    HB20097   7.427   3.018   6.789 -0.7875 -0.7761 -0.0388
  166DOPC    C220098   7.243   3.092   6.684 -0.1788  0.5975 -0.0953
  166DOPC    HS20099   7.260   3.011   6.609  1.9477  1.0810 -0.2113
  166DOPC   O2120100   7.263   3.224   6.632 -0.0829 -0.8692 -0.5171
  166DOPC   C2120101   7.381   3.231   6.582 -0.9301 -0.9258 -0.3479
  166DOPC   O2220102   7.473   3.153   6.589 -0.0071 -0.6752 -0.2942
  166DOPC   C2220103   7.381   3.344   6.478 -0.7847  0.5554  0.6343
  166DOPC   H2R20104   7.366   3.445   6.523 -0.2286  0.1320  1.7924
  166DOPC   H2S20105   7.285   3.319   6.429 -0.2026 -1.7186  0.5450
  166DOPC    C320106   7.087   3.086   6.714  0.0363 -0.0465  0.4080
  166DOPC    HX20107   7.057   3.162   6.789 -0.8379  0.8932 -0.8452
  166DOPC    HY20108   7.060   2.985   6.751 -0.4869  0.0260  0.2292
  166DOPC   O3120109   7.006   3.124   6.599  0.2894 -0.6422  0.9339
  166DOPC   C3120110   6.976   3.024   6.523 -0.6275  0.3229 -0.1093
  166DOPC   O3220111   7.009   2.905   6.529 -0.0130 -0.2476  0.1180
  166DOPC   C3220112   6.902   3.095   6.406  0.2984  0.4786  0.1979
  166DOPC   H2X20113   6.805   3.130   6.447  0.4641  1.5668 -0.3174
  166DOPC   H2Y20114   6.960   3.179   6.364 -0.9520  0.5185 -1.5421
  166DOPC   C2320115   7.498   3.350   6.381  0.0183  0.5209  0.6635
  166DOPC   H3R20116   7.495   3.251   6.331 -0.5947  0.6905  0.3636
  166DOPC   H3S20117   7.596   3.357   6.433  0.0049  1.4253  0.5746
  166DOPC   C2420118   7.488   3.455   6.278 -0.1277 -0.8119  0.0004
  166DOPC   H4R20119   7.500   3.555   6.324  2.3391  0.5316 -3.1177
  166DOPC   H4S20120   7.388   3.459   6.230  0.4585  0.3458 -1.1947
  166DOPC   C2520121   7.599   3.449   6.173  0.8183 -0.4215  0.0533
  166DOPC   H5R20122   7.613   3.342   6.146 -1.3732 -1.1210  1.4883
  166DOPC   H5S20123   7.698   3.479   6.215  0.3871  0.5011  0.4315
  166DOPC   C2620124   7.583   3.547   6.055  0.8524  0.0166  0.0301
  166DOPC   H6R20125   7.601   3.652   6.086  0.0467 -0.1949  1.2893
  166DOPC   H6S20126   7.475   3.537   6.029  0.7550 -1.5030  0.8710
  166DOPC   C2720127   7.682   3.524   5.940  0.7044 -0.0494  0.2253
  166DOPC   H7R20128   7.669   3.423   5.895 -0.6747 -0.4522  1.4402
  166DOPC   H7S20129   7.779   3.524   5.994 -0.0942  1.9852  1.7822
  166DOPC   C2820130   7.702   3.639   5.838  0.4040 -0.0322  0.3885
  166DOPC   H8R20131   7.785   3.600   5.774 -0.6199 -0.3600 -0.7722
  166DOPC   H8S20132   7.742   3.729   5.888  1.2090 -0.6807  0.9549
  166DOPC   C2920133   7.568   3.658   5.762  0.1512 -0.2270 -0.2183
  166DOPC   H9R20134   7.485   3.690   5.827 -0.3765  0.4182 -1.1793
  166DOPC  C21020135   7.544   3.652   5.631 -0.1670 -0.5510 -0.4019
  166DOPC  H10R20136   7.442   3.655   5.592 -0.3929 -2.6002 -0.0893
  166DOPC  C21120137   7.649   3.625   5.533 -0.7118  0.6473 -0.0550
  166DOPC  H11R20138   7.615   3.612   5.428  4.3786  0.0840 -1.9168
  166DOPC  H11S20139   7.698   3.527   5.550  0.3628  1.0362 -0.8150
  166DOPC  C21220140   7.746   3.741   5.530  0.0894  0.3890  0.1730
  166DOPC  H12R20141   7.824   3.712   5.456  0.0860 -0.5787  0.5336
  166DOPC  H12S20142   7.799   3.770   5.624  2.7724  0.4487 -1.2617
  166DOPC  C21320143   7.700   3.876   5.466  0.5739 -0.1869 -1.1263
  166DOPC  H13R20144   7.785   3.948   5.459  1.4121 -0.8051  1.5191
  166DOPC  H13S20145   7.625   3.913   5.539 -0.0234 -2.0304 -0.7688
  166DOPC  C21420146   7.637   3.850   5.331 -0.2444  0.3186 -0.2385
  166DOPC  H14R20147   7.541   3.803   5.360  0.6318 -1.1480  0.3700
  166DOPC  H14S20148   7.705   3.781   5.278 -1.0249  0.4330 -1.4125
  166DOPC  C21520149   7.622   3.973   5.241  1.3622  0.2522  0.2170
  166DOPC  H15R20150   7.722   4.022   5.248  2.2485 -1.5862  1.1737
  166DOPC  H15S20151   7.540   4.033   5.286  0.5486 -1.9571  1.8477
  166DOPC  C21620152   7.587   3.933   5.097 -0.4356  0.5865  0.5390
  166DOPC  H16R20153   7.551   4.022   5.043 -0.5436 -0.0084 -0.3885
  166DOPC  H16S20154   7.507   3.855   5.095 -1.2088  1.3811  0.2595
  166DOPC  C21720155   7.708   3.882   5.022 -0.7605  0.3369  0.6820
  166DOPC  H17R20156   7.756   3.804   5.084 -0.5862 -0.8455 -0.8905
  166DOPC  H17S20157   7.784   3.963   5.020  0.6339 -0.8505  2.6722
  166DOPC  C21820158   7.672   3.825   4.877  0.2503  0.0274 -0.3769
  166DOPC  H18R20159   7.599   3.895   4.832 -1.0525 -2.1003 -1.7016
  166DOPC  H18S20160   7.619   3.729   4.894  0.9305 -1.0097 -3.4973
  166DOPC  H18T20161   7.762   3.813   4.812  0.2549  2.6600 -0.9966
  166DOPC   C3320162   6.870   3.000   6.289  0.0210  0.4777  0.4908
  166DOPC   H3X20163   6.817   2.907   6.317  0.2013  0.4815  0.8430
  166DOPC   H3Y20164   6.969   2.957   6.262 -0.6489  0.6579 -2.7734
  166DOPC   C3420165   6.814   3.064   6.166  0.3953 -0.7536  0.6120
  166DOPC   H4X20166   6.879   3.153   6.149  0.6886 -0.6865  1.9697
  166DOPC   H4Y20167   6.714   3.103   6.194  0.1983 -0.5552 -0.3413
  166DOPC   C3520168   6.818   2.970   6.037  0.0306  0.4243 -0.0986
  166DOPC   H5X20169   6.771   2.874   6.066  2.3992 -0.1979  2.1430
  166DOPC   H5Y20170   6.926   2.955   6.013  0.5599  1.9025  1.1170
  166DOPC   C3620171   6.751   3.041   5.918 -0.1556 -0.6537 -0.2222
  166DOPC   H6X20172   6.645   3.054   5.945 -0.7326 -1.3788 -1.9690
  166DOPC   H6Y20173   6.803   3.137   5.902  0.0123 -0.8795 -1.0995
  166DOPC   C3720174   6.786   2.975   5.780  0.1442 -0.2939  0.5404
  166DOPC   H7X20175   6.890   2.991   5.745 -0.5009  1.1746 -0.8157
  166DOPC   H7Y20176   6.777   2.865   5.797 -0.5899  0.0415  2.5813
  166DOPC   C3820177   6.686   3.018   5.662  0.0443  0.2428  0.1249
  166DOPC   H8X20178   6.584   2.986   5.692 -0.1161  1.0143  0.4310
  166DOPC   H8Y20179   6.713   2.960   5.572 -1.2316  0.1789 -0.2263
  166DOPC   C3920180   6.691   3.162   5.620 -0.2230  0.5186  0.2263
  166DOPC   H9X20181   6.655   3.229   5.700 -0.2713 -0.0259  0.6681
  166DOPC  C31020182   6.729   3.211   5.497 -0.0262 -0.2298  0.0551
  166DOPC  H10X20183   6.733   3.320   5.483  0.7287 -0.3714 -0.9107
  166DOPC  C31120184   6.776   3.136   5.375  0.0838  0.1355  0.4326
  166DOPC  H11X20185   6.798   3.030   5.399  1.7300  0.6094  1.1618
  166DOPC  H11Y20186   6.880   3.173   5.360  0.6294 -0.0807  3.1844
  166DOPC  C31220187   6.690   3.172   5.255  0.3101 -0.4843  0.0722
  166DOPC  H12X20188   6.689   3.283   5.245  0.7686 -0.3984  0.8999
  166DOPC  H12Y20189   6.589   3.140   5.290 -0.0817  1.6392  1.0191
  166DOPC  C31320190   6.731   3.119   5.114  0.0797 -0.3734 -0.4013
  166DOPC  H13X20191   6.831   3.159   5.086  0.2274  1.3563  2.1464
  166DOPC  H13Y20192   6.729   3.008   5.116  0.0572 -0.3921  1.8253
  166DOPC  C31420193   6.632   3.157   5.001  0.3144 -0.1143 -0.4664
  166DOPC  H14X20194   6.534   3.136   5.047  0.4388  0.5390  0.1143
  166DOPC  H14Y20195   6.638   3.267   4.987  0.1425 -0.0719 -0.2134
  166DOPC  C31520196   6.646   3.084   4.869  0.9331  0.5131 -0.2441
  166DOPC  H15X20197   6.653   2.975   4.889 -0.4824 -0.0376 -2.4090
  166DOPC  H15Y20198   6.747   3.107   4.826  0.4667  2.1947 -0.5005
  166DOPC  C31620199   6.531   3.106   4.765 -0.0628  0.1406  0.8299
  166DOPC  H16X20200   6.541   3.023   4.692  2.2854 -0.4056  1.6939
  166DOPC  H16Y20201   6.434   3.107   4.819  0.4830 -1.6080  1.9390
  166DOPC  C31720202   6.535   3.246   4.705 -0.1416  0.0175  0.0143
  166DOPC  H17X20203   6.528   3.325   4.782 -0.0191 -0.2921  0.3490
  166DOPC  H17Y20204   6.624   3.254   4.638 -0.9163  1.4267 -0.8868
  166DOPC  C31820205   6.396   3.248   4.639  0.1793 -0.1323 -0.2485
  166DOPC  H18X20206   6.311   3.234   4.710  0.0578 -1.0174 -0.5557
  166DOPC  H18Y20207   6.372   3.349   4.599  2.6969  0.8049  0.3788
  166DOPC  H18Z20208   6.391   3.171   4.560 -0.9701 -0.5672  0.2195
  167DOPC     N20209   6.664   2.516   6.915  0.0262  0.2763  0.4511
  167DOPC   C1220210   6.644   2.377   6.866  0.1325 -0.1442 -0.1654
  167DOPC  H12A20211   6.587   2.379   6.774 -0.2840  0.2275  0.0942
  167DOPC  H12B20212   6.591   2.330   6.947  0.7420  0.7915  0.8075
  167DOPC   C1320213   6.750   2.597   6.824  0.0530  0.4573  0.0672
  167DOPC  H13A20214   6.710   2.590   6.724  1.2886 -0.8942 -0.3522
  167DOPC  H13B20215   6.739   2.702   6.848  0.2917  0.3389  0.7208
  167DOPC  H13C20216   6.855   2.574   6.820  0.1961  0.8119  1.3957
  167DOPC   C1420217   6.725   2.523   7.053  0.3412  0.2235 -0.5330
  167DOPC  H14A20218   6.658   2.491   7.131  2.3268 -0.1763  1.1139
  167DOPC  H14B20219   6.803   2.448   7.051  0.0287 -0.1783  1.0580
  167DOPC  H14C20220   6.764   2.618   7.085 -0.6643  0.6669 -0.5891
  167DOPC   C1520221   6.516   2.573   6.919 -0.3586 -0.3083 -0.3239
  167DOPC  H15A20222   6.516   2.676   6.950 -1.2265  0.3581 -2.3899
  167DOPC  H15B20223   6.459   2.508   6.984  1.5687 -2.5157 -0.6831
  167DOPC  H15C20224   6.468   2.572   6.822 -0.7824  1.0848 -0.1432
  167DOPC   C1120225   6.776   2.299   6.841 -0.1991  0.4196 -0.2861
  167DOPC  H11A20226   6.749   2.207   6.785  0.1589  1.0812 -1.5851
  167DOPC  H11B20227   6.848   2.351   6.775  2.5033 -0.2165  1.9839
  167DOPC     P20228   6.777   2.168   7.060  0.1489  0.5003  0.1390
  167DOPC   O1320229   6.626   2.174   7.072  0.0010 -0.5735  0.5867
  167DOPC   O1420230   6.850   2.176   7.190  0.1013 -0.6936 -0.0971
  167DOPC   O1220231   6.841   2.277   6.967  0.2772  0.0645  0.4618
  167DOPC   O1120232   6.797   2.028   6.989 -0.0719  0.1864  0.0829
  167DOPC    C120233   6.931   1.980   6.961 -0.2869  0.0266  0.1112
  167DOPC    HA20234   6.952   1.898   7.033 -1.0373 -0.5816 -0.3523
  167DOPC    HB20235   7.014   2.053   6.976  0.8629 -1.1759 -0.1685
  167DOPC    C220236   6.948   1.918   6.819  0.0779  0.2191 -0.2245
  167DOPC    HS20237   7.039   1.854   6.814  0.3768 -0.2849  5.2818
  167DOPC   O2120238   6.941   2.013   6.708  1.0916 -0.4046  0.3150
  167DOPC   C2120239   7.047   2.085   6.689 -0.6009 -0.9354  0.3466
  167DOPC   O2220240   7.152   2.079   6.754 -0.0121 -0.7960 -0.5838
  167DOPC   C2220241   7.031   2.154   6.552  0.8343 -0.0015 -0.2755
  167DOPC   H2R20242   6.938   2.215   6.549  1.1420  0.4344 -1.0120
  167DOPC   H2S20243   7.028   2.065   6.485  0.7639  0.4655 -0.9003
  167DOPC    C320244   6.826   1.820   6.806  0.1837 -0.2878 -0.2746
  167DOPC    HX20245   6.730   1.872   6.825  0.6884  1.2767 -1.7773
  167DOPC    HY20246   6.829   1.753   6.895  2.2191 -0.5507 -0.5117
  167DOPC   O3120247   6.804   1.763   6.677 -0.2942  0.2317  0.4170
  167DOPC   C3120248   6.857   1.638   6.676 -0.3383  0.7579  0.6567
  167DOPC   O3220249   6.919   1.582   6.763  0.6156 -0.4781 -0.2397
  167DOPC   C3220250   6.830   1.574   6.538 -0.1630  0.1422 -0.5065
  167DOPC   H2X20251   6.722   1.582   6.516 -0.6863  1.3026  2.1494
  167DOPC   H2Y20252   6.875   1.641   6.462 -0.8963  0.7058 -0.4546
  167DOPC   C2320253   7.148   2.237   6.518 -0.9570 -0.2072 -0.0266
  167DOPC   H3R20254   7.241   2.177   6.513 -0.0875  1.0489  0.4839
  167DOPC   H3S20255   7.151   2.323   6.588 -0.0568  1.5181 -2.0436
  167DOPC   C2420256   7.152   2.308   6.383  0.3125  0.6718  0.3402
  167DOPC   H4R20257   7.222   2.394   6.382  0.5319  0.5041 -1.6800
  167DOPC   H4S20258   7.049   2.347   6.370  0.7134  1.2584 -1.2169
  167DOPC   C2520259   7.181   2.207   6.276 -1.3210 -0.1483  0.1208
  167DOPC   H5R20260   7.126   2.114   6.299 -0.2608 -0.8304  0.0004
  167DOPC   H5S20261   7.288   2.184   6.255 -1.9256 -1.2156 -2.1698
  167DOPC   C2620262   7.123   2.247   6.142  0.3302 -0.5277  0.2317
  167DOPC   H6R20263   7.168   2.346   6.121 -1.3386 -0.1312 -1.7633
  167DOPC   H6S20264   7.012   2.253   6.151  0.1485 -0.7280 -1.4786
  167DOPC   C2720265   7.154   2.150   6.032  0.0126  0.0828  0.5881
  167DOPC   H7R20266   7.121   2.047   6.057 -0.2774 -0.0827 -0.4436
  167DOPC   H7S20267   7.262   2.159   6.007  0.0989  1.9530  1.4333
  167DOPC   C2820268   7.074   2.201   5.906  0.4128 -0.3901  0.1821
  167DOPC   H8R20269   7.137   2.284   5.866  2.5938 -2.0866 -0.1035
  167DOPC   H8S20270   6.972   2.244   5.921  1.0278  1.5545 -0.7821
  167DOPC   C2920271   7.074   2.091   5.798  0.0426 -0.1113 -0.7505
  167DOPC   H9R20272   7.174   2.051   5.777 -1.1741 -2.5481 -2.3655
  167DOPC  C21020273   6.968   2.046   5.732  0.4887  0.6939 -0.1824
  167DOPC  H10R20274   6.983   1.969   5.655  0.9891 -1.8244  2.2493
  167DOPC  C21120275   6.821   2.095   5.743  0.2333 -0.5481 -0.5510
  167DOPC  H11R20276   6.804   2.174   5.667  0.6530 -0.6164 -0.7210
  167DOPC  H11S20277   6.809   2.147   5.840  2.1766  0.7483 -0.9353
  167DOPC  C21220278   6.711   1.987   5.723  0.1793 -0.7864 -0.1192
  167DOPC  H12R20279   6.723   1.905   5.797  0.6566  0.9602  1.8468
  167DOPC  H12S20280   6.610   2.033   5.730 -0.6504 -2.6243  0.4615
  167DOPC  C21320281   6.715   1.918   5.585 -0.2468 -0.5729  0.2956
  167DOPC  H13R20282   6.820   1.915   5.550 -0.4660 -0.4286 -0.3937
  167DOPC  H13S20283   6.659   1.986   5.517 -1.3346 -2.0085 -0.3065
  167DOPC  C21420284   6.653   1.776   5.575  0.8254 -0.1124  0.0328
  167DOPC  H14R20285   6.543   1.774   5.592  0.8503 -1.8446  0.1139
  167DOPC  H14S20286   6.705   1.729   5.661 -0.4866 -0.7272  0.5047
  167DOPC  C21520287   6.677   1.699   5.451 -0.4643  0.3016 -0.4315
  167DOPC  H15R20288   6.739   1.617   5.493 -1.8291  0.8823  3.0576
  167DOPC  H15S20289   6.746   1.760   5.389  1.5249 -0.2475  1.1309
  167DOPC  C21620290   6.548   1.669   5.379  0.1193  0.1614 -0.2940
  167DOPC  H16R20291   6.513   1.768   5.342  0.3213  1.5026  2.7965
  167DOPC  H16S20292   6.472   1.617   5.441 -1.0500  0.9599 -1.0191
  167DOPC  C21720293   6.572   1.580   5.263  0.8667  0.0731 -0.4788
  167DOPC  H17R20294   6.657   1.615   5.199 -0.0061  0.0393 -1.7001
  167DOPC  H17S20295   6.487   1.596   5.193  0.7750  0.7327 -0.2244
  167DOPC  C21820296   6.576   1.434   5.300  0.3773  0.6026 -0.4874
  167DOPC  H18R20297   6.478   1.401   5.340  2.2418 -0.0000  4.1721
  167DOPC  H18S20298   6.650   1.423   5.382  0.7130 -1.9125 -1.0455
  167DOPC  H18T20299   6.617   1.362   5.226 -1.3941  1.0642 -1.9875
  167DOPC   C3320300   6.867   1.424   6.527 -0.2781 -0.6956  0.2661
  167DOPC   H3X20301   6.783   1.368   6.572 -1.0457 -1.5676 -2.0801
  167DOPC   H3Y20302   6.958   1.400   6.586  1.3200  0.9490 -1.4086
  167DOPC   C3420303   6.889   1.373   6.385  0.3689 -0.1531  0.3300
  167DOPC   H4X20304   6.947   1.455   6.338 -1.0354  0.6924  0.0236
  167DOPC   H4Y20305   6.791   1.376   6.333  0.2609 -1.1006  0.4586
  167DOPC   C3520306   6.964   1.243   6.368  0.3102 -0.3317 -0.5966
  167DOPC   H5X20307   6.909   1.158   6.413  0.9204  0.2972  1.4454
  167DOPC   H5Y20308   7.057   1.259   6.426 -0.0536 -1.2186  0.2523
  167DOPC   C3620309   7.016   1.213   6.225  0.2069  0.2348 -0.0636
  167DOPC   H6X20310   7.048   1.302   6.166  1.4787 -0.1563  0.0158
  167DOPC   H6Y20311   7.100   1.142   6.235  0.3571  0.2799 -0.9323
  167DOPC   C3720312   6.896   1.145   6.147 -0.0305  0.5680 -0.3776
  167DOPC   H7X20313   6.860   1.054   6.199 -0.6588  1.5211  0.9101
  167DOPC   H7Y20314   6.818   1.223   6.143  1.2820  1.9218 -0.5474
  167DOPC   C3820315   6.928   1.106   6.004 -0.6342  0.6039  0.8611
  167DOPC   H8X20316   6.955   1.189   5.937  0.9874  0.8570  1.7894
  167DOPC   H8Y20317   6.838   1.066   5.952  0.9797 -1.9276 -0.1571
  167DOPC   C3920318   7.035   0.990   5.998  0.2960 -0.3413 -0.0901
  167DOPC   H9X20319   7.132   1.028   6.032  2.0647 -3.0989 -1.6550
  167DOPC  C31020320   7.010   0.865   5.971 -0.3422 -0.1338 -0.6486
  167DOPC  H10X20321   7.100   0.802   5.976  0.6907  1.3505  0.0750
  167DOPC  C31120322   6.882   0.797   5.946 -0.1871  0.2294  0.3802
  167DOPC  H11X20323   6.790   0.859   5.953 -1.2642 -1.1691 -0.6514
  167DOPC  H11Y20324   6.873   0.704   6.007 -1.8069 -0.4271 -0.7889
  167DOPC  C31220325   6.887   0.758   5.796 -0.9169 -0.2814 -0.7558
  167DOPC  H12X20326   6.803   0.686   5.788 -1.2171 -0.1967  1.1945
  167DOPC  H12Y20327   6.976   0.697   5.770  0.7618  0.4303  2.6903
  167DOPC  C31320328   6.868   0.876   5.695 -0.3383  0.1698  0.1218
  167DOPC  H13X20329   6.759   0.878   5.675 -0.9062  0.9869  2.9263
  167DOPC  H13Y20330   6.896   0.977   5.730  0.4623 -0.5988  1.8389
  167DOPC  C31420331   6.937   0.851   5.562  0.2388  0.2054 -0.0065
  167DOPC  H14X20332   7.046   0.865   5.579  0.0449  0.4273  1.1139
  167DOPC  H14Y20333   6.914   0.747   5.532  3.5414 -0.9599  1.1036
  167DOPC  C31520334   6.885   0.953   5.456 -0.4897  0.5043 -0.0736
  167DOPC  H15X20335   6.775   0.941   5.451 -0.4941  0.4825  0.0609
  167DOPC  H15Y20336   6.921   0.915   5.358  0.7138 -0.9687  0.8838
  167DOPC  C31620337   6.933   1.098   5.464 -0.4528 -0.3480 -0.1490
  167DOPC  H16X20338   6.909   1.140   5.364 -0.0807  1.8459  0.6228
  167DOPC  H16Y20339   6.870   1.152   5.538  1.3368 -1.5223  2.3367
  167DOPC  C31720340   7.081   1.124   5.498 -0.0305  0.2516 -0.7445
  167DOPC  H17X20341   7.112   1.082   5.596  0.3298  2.6160  0.2080
  167DOPC  H17Y20342   7.146   1.075   5.423  0.1744 -0.0521 -0.3737
  167DOPC  C31820343   7.110   1.274   5.494  0.3905 -0.3590 -0.1637
  167DOPC  H18X20344   7.068   1.317   5.587  3.0900 -0.2934  1.1130
  167DOPC  H18Y20345   7.220   1.287   5.492  0.6958 -2.6249 -1.1437
  167DOPC  H18Z20346   7.060   1.322   5.406 -0.8869 -0.0357  0.7131
  168DOPC     N20347   2.513   0.609   7.308  0.0596 -0.7358 -0.6085
  168DOPC   C1220348   2.590   0.577   7.185  0.5258 -0.1580  0.1106
  168DOPC  H12A20349   2.612   0.472   7.171 -0.2564 -0.3194  0.0363
  168DOPC  H12B20350   2.682   0.632   7.198 -0.6831  1.6573  1.2948
  168DOPC   C1320351   2.464   0.754   7.299  0.7367  0.2463 -0.3031
  168DOPC  H13A20352   2.383   0.772   7.369  1.1784  2.9832 -0.3964
  168DOPC  H13B20353   2.542   0.828   7.303 -0.0308  1.3426 -3.3669
  168DOPC  H13C20354   2.430   0.775   7.199 -0.4373 -2.2793 -0.5153
  168DOPC   C1420355   2.592   0.584   7.434  0.0890  0.1158 -0.0729
  168DOPC  H14A20356   2.532   0.610   7.520 -1.1263 -2.1005 -0.1763
  168DOPC  H14B20357   2.610   0.479   7.450 -2.4284 -0.0510  2.5628
  168DOPC  H14C20358   2.689   0.633   7.433 -1.1961  2.9502  1.6193
  168DOPC   C1520359   2.386   0.519   7.315 -0.7926 -0.2234 -0.4876
  168DOPC  H15A20360   2.336   0.517   7.219 -1.0403 -0.0873 -0.3632
  168DOPC  H15B20361   2.316   0.560   7.386 -1.7149 -1.3881 -0.7014
  168DOPC  H15C20362   2.404   0.421   7.355 -0.9280 -0.0787 -0.0646
  168DOPC   C1120363   2.530   0.628   7.045 -1.0723  0.4829 -0.2788
  168DOPC  H11A20364   2.549   0.737   7.054  2.5415 -0.0643  0.5001
  168DOPC  H11B20365   2.594   0.581   6.967  0.6924  0.8863  0.8688
  168DOPC     P20366   2.295   0.698   6.952 -0.1420  0.4752  0.4147
  168DOPC   O1320367   2.300   0.830   7.009  0.2983 -0.3409  0.4591
  168DOPC   O1420368   2.166   0.626   6.946 -0.0246  0.5062 -0.0890
  168DOPC   O1220369   2.389   0.596   7.027 -0.5428 -0.2378 -0.3587
  168DOPC   O1120370   2.359   0.703   6.808  0.2840 -0.6639 -0.0249
  168DOPC    C120371   2.375   0.597   6.717  0.3280  0.2766 -0.3955
  168DOPC    HA20372   2.406   0.505   6.771 -1.0270  0.1927  0.2950
  168DOPC    HB20373   2.454   0.617   6.642 -0.1675  0.8141 -0.7892
  168DOPC    C220374   2.243   0.571   6.637  0.0605 -0.4652  0.0749
  168DOPC    HS20375   2.163   0.579   6.714  0.3567 -0.1662  0.3553
  168DOPC   O2120376   2.250   0.436   6.590 -0.5535  0.1072 -0.1012
  168DOPC   C2120377   2.139   0.367   6.579 -0.2140  0.2607  0.1245
  168DOPC   O2220378   2.034   0.394   6.630  0.3858  0.0350  0.2181
  168DOPC   C2220379   2.171   0.244   6.500  0.1962  0.3766  0.4061
  168DOPC   H2R20380   2.172   0.157   6.569  0.1417  0.2842  0.2921
  168DOPC   H2S20381   2.278   0.233   6.472  0.9794 -0.1424  3.2832
  168DOPC    C320382   2.217   0.673   6.522  0.3846  0.1072 -0.3763
  168DOPC    HX20383   2.303   0.655   6.454 -0.4199 -0.5396 -1.2327
  168DOPC    HY20384   2.225   0.779   6.557  1.8130 -0.1111  0.0390
  168DOPC   O3120385   2.093   0.639   6.458 -0.1485  0.0210  0.2890
  168DOPC   C3120386   1.983   0.692   6.511  0.6257  0.2459 -0.2655
  168DOPC   O3220387   1.984   0.756   6.610 -0.9696 -0.2978 -0.4880
  168DOPC   C3220388   1.859   0.643   6.432  0.3900 -0.1641 -0.8152
  168DOPC   H2X20389   1.883   0.545   6.386  1.4215  0.4795 -1.7195
  168DOPC   H2Y20390   1.779   0.632   6.508 -0.6161 -0.1782 -1.8486
  168DOPC   C2320391   2.079   0.222   6.383  0.1287 -0.0130  0.9944
  168DOPC   H3R20392   1.973   0.215   6.412 -0.1752  1.4870  0.3176
  168DOPC   H3S20393   2.091   0.129   6.323 -2.1308  1.8262 -2.6582
  168DOPC   C2420394   2.094   0.330   6.267 -0.4969  0.3749 -1.0955
  168DOPC   H4R20395   2.191   0.383   6.265  0.1226 -0.4517  2.1809
  168DOPC   H4S20396   2.033   0.409   6.316 -0.7875 -1.6119  2.0391
  168DOPC   C2520397   2.056   0.275   6.130  0.2286 -0.5273 -0.7610
  168DOPC   H5R20398   1.951   0.238   6.130 -0.6944  1.8701 -1.8060
  168DOPC   H5S20399   2.126   0.193   6.105 -0.5698 -1.2383 -0.7173
  168DOPC   C2620400   2.066   0.387   6.023 -0.2107  0.4307 -0.0611
  168DOPC   H6R20401   2.164   0.440   6.018  0.5317 -0.6448  1.8025
  168DOPC   H6S20402   1.994   0.464   6.056 -1.2778 -1.1314  1.4113
  168DOPC   C2720403   2.030   0.335   5.882  0.3254  0.2091  0.5668
  168DOPC   H7R20404   1.946   0.263   5.888  1.4379 -1.0516  1.6147
  168DOPC   H7S20405   2.110   0.273   5.835 -0.4073 -0.1831 -0.1933
  168DOPC   C2820406   1.982   0.448   5.793  0.2175  0.0266  0.4503
  168DOPC   H8R20407   1.888   0.488   5.836  0.3438 -1.5639  2.3414
  168DOPC   H8S20408   1.959   0.402   5.694  0.5970 -0.1894  0.4601
  168DOPC   C2920409   2.086   0.557   5.774  0.5230 -0.4385 -0.1372
  168DOPC   H9R20410   2.083   0.635   5.851 -1.6679 -1.3712  0.7863
  168DOPC  C21020411   2.191   0.558   5.686  1.0598 -0.0262  0.3867
  168DOPC  H10R20412   2.260   0.644   5.684  0.5954  0.5542  3.4020
  168DOPC  C21120413   2.230   0.446   5.596 -0.2730  0.8970  0.2778
  168DOPC  H11R20414   2.171   0.442   5.502  0.7011 -1.3163 -0.2927
  168DOPC  H11S20415   2.205   0.352   5.649  0.9752 -0.4137 -1.3652
  168DOPC  C21220416   2.384   0.439   5.556  0.2900  0.4071  0.0713
  168DOPC  H12R20417   2.412   0.335   5.529 -0.6686 -0.2477  1.4357
  168DOPC  H12S20418   2.435   0.472   5.649 -1.4804  1.0142  0.8698
  168DOPC  C21320419   2.415   0.537   5.436 -0.6580 -0.4302  0.4342
  168DOPC  H13R20420   2.402   0.645   5.457 -2.1166  0.0262 -2.3713
  168DOPC  H13S20421   2.349   0.515   5.349  1.9900  0.3474 -1.9678
  168DOPC  C21420422   2.555   0.505   5.382  0.2380  0.2965  0.0549
  168DOPC  H14R20423   2.570   0.395   5.373 -1.0675  0.0710  0.4301
  168DOPC  H14S20424   2.628   0.539   5.459  0.0348  1.9674 -0.4455
  168DOPC  C21520425   2.587   0.576   5.251 -1.0254 -0.0285  0.0986
  168DOPC  H15R20426   2.577   0.684   5.274 -3.1125 -0.1484 -0.0440
  168DOPC  H15S20427   2.505   0.553   5.179 -1.9169 -1.4661  1.5099
  168DOPC  C21620428   2.729   0.543   5.199  0.7137  0.6351  0.0271
  168DOPC  H16R20429   2.733   0.433   5.186  0.6875  0.8837 -2.6135
  168DOPC  H16S20430   2.808   0.570   5.273 -0.1563  0.7581  0.9452
  168DOPC  C21720431   2.756   0.593   5.054 -0.4849 -0.2264 -0.1893
  168DOPC  H17R20432   2.848   0.655   5.063 -0.0899 -1.0362  1.6891
  168DOPC  H17S20433   2.664   0.646   5.020  0.1234  0.9567 -0.0331
  168DOPC  C21820434   2.790   0.481   4.955 -1.0906 -0.4502 -0.4807
  168DOPC  H18R20435   2.714   0.400   4.943 -1.1141 -0.4247 -0.5046
  168DOPC  H18S20436   2.888   0.442   4.990 -0.1212  1.3772 -1.0392
  168DOPC  H18T20437   2.816   0.526   4.857  2.1909  2.6761  1.5856
  168DOPC   C3320438   1.801   0.747   6.336  0.2346  0.1051 -0.7972
  168DOPC   H3X20439   1.754   0.834   6.387  0.5558  0.9101 -1.8402
  168DOPC   H3Y20440   1.714   0.693   6.293 -1.3560 -0.3783  2.6448
  168DOPC   C3420441   1.897   0.768   6.224  0.5723  0.2368 -0.0440
  168DOPC   H4X20442   1.921   0.678   6.164 -0.2534  0.4621 -0.7235
  168DOPC   H4Y20443   1.992   0.819   6.252  0.1436  1.2472 -0.3901
  168DOPC   C3520444   1.825   0.866   6.123 -0.4233  0.1208  0.1641
  168DOPC   H5X20445   1.801   0.963   6.171 -0.5861  0.4919 -0.6503
  168DOPC   H5Y20446   1.728   0.829   6.084  0.4943 -1.4119 -0.7805
  168DOPC   C3620447   1.904   0.889   5.994 -0.4234 -0.0176  0.2933
  168DOPC   H6X20448   1.997   0.943   6.018 -1.5378  1.2974  1.8273
  168DOPC   H6Y20449   1.929   0.793   5.945 -1.6821  0.2497 -0.9476
  168DOPC   C3720450   1.838   0.978   5.877 -0.0530  0.3883 -0.1442
  168DOPC   H7X20451   1.766   1.051   5.919  1.4152  0.5968  2.1573
  168DOPC   H7Y20452   1.915   1.037   5.823 -1.3790  1.5244 -0.8774
  168DOPC   C3820453   1.764   0.891   5.778 -0.3722  0.3845 -0.2135
  168DOPC   H8X20454   1.696   0.963   5.726  0.5761  2.1682  0.8903
  168DOPC   H8Y20455   1.697   0.813   5.819  1.9681 -1.7536 -0.2696
  168DOPC   C3920456   1.863   0.837   5.669  0.0568  1.2820  0.2341
  168DOPC   H9X20457   1.961   0.885   5.659  0.8731 -0.8223 -4.0288
  168DOPC  C31020458   1.835   0.737   5.577 -0.1521  0.0345  0.1971
  168DOPC  H10X20459   1.918   0.705   5.512  0.3840 -1.4401  1.5472
  168DOPC  C31120460   1.709   0.656   5.567  0.4740  0.0819  0.3022
  168DOPC  H11X20461   1.682   0.625   5.670  1.9224  2.8722  1.6130
  168DOPC  H11Y20462   1.741   0.563   5.514  1.3697  1.1830 -1.1778
  168DOPC  C31220463   1.590   0.713   5.504 -0.3897  0.6209 -0.5207
  168DOPC  H12X20464   1.546   0.789   5.571 -1.2396  0.7351 -1.1846
  168DOPC  H12Y20465   1.512   0.634   5.492  1.0318 -0.8219 -0.6565
  168DOPC  C31320466   1.619   0.757   5.358 -0.4539  0.1019 -0.0548
  168DOPC  H13X20467   1.702   0.831   5.361 -0.2927 -0.0543 -0.6458
  168DOPC  H13Y20468   1.652   0.668   5.301  1.8758  0.5207  0.5261
  168DOPC  C31420469   1.493   0.819   5.286  0.2075  0.4059 -0.2762
  168DOPC  H14X20470   1.416   0.739   5.289  0.8953 -0.2378  1.5945
  168DOPC  H14Y20471   1.464   0.912   5.340 -1.3898 -0.1522 -0.1474
  168DOPC  C31520472   1.520   0.846   5.140  0.3016  0.3808 -0.1992
  168DOPC  H15X20473   1.424   0.891   5.106  0.2113  1.5821  1.5171
  168DOPC  H15Y20474   1.542   0.758   5.076  0.3522  0.1677  0.1102
  168DOPC  C31620475   1.641   0.938   5.110 -0.0158 -0.5090  0.5508
  168DOPC  H16X20476   1.613   1.036   5.155 -3.0234 -0.4523 -1.1521
  168DOPC  H16Y20477   1.733   0.887   5.145 -0.5985 -1.1337  1.1946
  168DOPC  C31720478   1.665   0.964   4.958 -0.7439  0.1523  0.5027
  168DOPC  H17X20479   1.578   1.019   4.917 -0.6525 -1.7569 -2.6205
  168DOPC  H17Y20480   1.751   1.033   4.945 -0.1431 -0.3855  1.5133
  168DOPC  C31820481   1.694   0.840   4.876  0.3989 -0.1486  0.4443
  168DOPC  H18X20482   1.757   0.867   4.789 -0.5284 -0.0839 -0.2285
  168DOPC  H18Y20483   1.749   0.767   4.938  0.9743 -0.2795 -0.2177
  168DOPC  H18Z20484   1.599   0.794   4.840 -1.0197  2.1740  0.9256
  169DOPC     N20485   7.440   1.878   7.218 -0.2027 -0.1553 -0.2461
  169DOPC   C1220486   7.432   1.888   7.071 -0.5187 -0.5570  0.0836
  169DOPC  H12A20487   7.353   1.957   7.046  0.6509 -0.2355 -3.2482
  169DOPC  H12B20488   7.410   1.787   7.040  3.2348 -2.7003  3.4069
  169DOPC   C1320489   7.313   1.817   7.267  0.3226  0.2951  0.3184
  169DOPC  H13A20490   7.315   1.807   7.374  2.7096 -1.0246  0.2160
  169DOPC  H13B20491   7.218   1.854   7.230 -0.6912 -1.8779  0.6248
  169DOPC  H13C20492   7.316   1.712   7.242 -1.2932  0.8641 -2.8455
  169DOPC   C1420493   7.453   2.010   7.285 -0.8375  0.0355  0.0018
  169DOPC  H14A20494   7.536   2.066   7.244 -2.5340  1.6545 -1.4464
  169DOPC  H14B20495   7.367   2.074   7.273  0.0586  1.0999 -1.0337
  169DOPC  H14C20496   7.474   2.013   7.391 -0.6101  0.1733 -0.0463
  169DOPC   C1520497   7.555   1.785   7.261 -0.2291  0.0580  0.8442
  169DOPC  H15A20498   7.566   1.775   7.368 -1.5093 -3.3829  0.7719
  169DOPC  H15B20499   7.642   1.825   7.211 -0.9355 -1.6104 -1.9421
  169DOPC  H15C20500   7.535   1.689   7.217 -1.3060  0.5111  0.2844
  169DOPC   C1120501   7.564   1.931   6.998  0.4071  0.0325  0.0576
  169DOPC  H11A20502   7.548   1.947   6.889  1.3198 -0.3123 -0.1379
  169DOPC  H11B20503   7.577   2.031   7.044 -1.0286  0.5287 -0.5673
  169DOPC     P20504   7.809   1.846   6.979  0.3574  0.1540 -0.5751
  169DOPC   O1320505   7.871   1.717   6.991  0.1815  0.1121  0.4013
  169DOPC   O1420506   7.861   1.943   7.075 -0.4296 -0.2617 -0.1411
  169DOPC   O1220507   7.659   1.833   7.019  0.0778  0.5639  0.2881
  169DOPC   O1120508   7.802   1.882   6.824 -0.7464 -0.1254 -0.0431
  169DOPC    C120509   7.745   1.790   6.730 -0.1304  0.0658  0.9597
  169DOPC    HA20510   7.639   1.819   6.709  0.2249  0.1813 -0.9003
  169DOPC    HB20511   7.739   1.687   6.772  1.3654 -0.3873  0.1456
  169DOPC    C220512   7.831   1.785   6.602 -0.3532 -0.4064 -0.4432
  169DOPC    HS20513   7.935   1.769   6.638 -0.7930  0.0468  1.1200
  169DOPC   O2120514   7.816   1.917   6.532 -0.0454  0.5822 -0.1683
  169DOPC   C2120515   7.910   2.010   6.565 -0.2372 -0.1719 -0.4681
  169DOPC   O2220516   7.998   1.995   6.645  0.3950  0.3089 -0.4580
  169DOPC   C2220517   7.887   2.140   6.485  0.0515  0.4308  0.5720
  169DOPC   H2R20518   7.989   2.185   6.484  0.0901  0.3895  1.3984
  169DOPC   H2S20519   7.820   2.201   6.550  0.8380  0.6105  1.2359
  169DOPC    C320520   7.776   1.675   6.506  0.1307 -0.1875  0.0857
  169DOPC    HX20521   7.666   1.679   6.525 -0.2105 -0.7618 -1.6006
  169DOPC    HY20522   7.821   1.583   6.549 -1.4725 -1.0633 -0.0109
  169DOPC   O3120523   7.808   1.695   6.373 -0.5374  0.1204  0.0989
  169DOPC   C3120524   7.868   1.601   6.310 -0.0454  0.0916 -0.0169
  169DOPC   O3220525   7.902   1.493   6.356  0.1696 -0.6199  0.6222
  169DOPC   C3220526   7.903   1.656   6.165  0.1877  0.9344 -0.9055
  169DOPC   H2X20527   7.807   1.691   6.121 -0.8717  0.2262  0.7512
  169DOPC   H2Y20528   7.960   1.751   6.173 -0.8553  1.6843 -1.9502
  169DOPC   C2320529   7.824   2.115   6.350  0.1242  0.1342  0.1418
  169DOPC   H3R20530   7.816   2.214   6.300 -0.6768  1.2807  2.3846
  169DOPC   H3S20531   7.726   2.066   6.367  0.5700  0.4360  4.9094
  169DOPC   C2420532   7.920   2.034   6.267  0.0101  0.4880  0.3151
  169DOPC   H4R20533   7.923   1.929   6.302 -3.8889  0.3954  0.8336
  169DOPC   H4S20534   8.023   2.072   6.288  0.5958 -0.8885  0.0278
  169DOPC   C2520535   7.895   2.038   6.113 -0.5462  0.7539 -0.1969
  169DOPC   H5R20536   7.793   2.005   6.083  0.4599 -1.1715 -1.7349
  169DOPC   H5S20537   7.958   1.960   6.064  1.0558  0.8297  1.6102
  169DOPC   C2620538   7.914   2.171   6.044 -0.6019  0.2973  0.7625
  169DOPC   H6R20539   8.010   2.216   6.076  1.7627 -4.1449  0.7016
  169DOPC   H6S20540   7.836   2.238   6.087 -0.9457 -0.4692  1.3734
  169DOPC   C2720541   7.891   2.165   5.893  0.3303  0.1213  0.6240
  169DOPC   H7R20542   7.782   2.148   5.881  0.7148 -1.8717 -0.4736
  169DOPC   H7S20543   7.935   2.069   5.858 -0.9107  0.0696 -0.9152
  169DOPC   C2820544   7.930   2.287   5.811 -0.4011 -0.6342  0.0951
  169DOPC   H8R20545   7.872   2.373   5.851 -1.4314 -1.1901 -0.1903
  169DOPC   H8S20546   7.882   2.267   5.713 -3.5534  2.8137  0.7030
  169DOPC   C2920547   8.078   2.320   5.791  0.4936 -0.2831 -0.2764
  169DOPC   H9R20548   8.138   2.250   5.731 -1.3756 -2.6016  0.3909
  169DOPC  C21020549   8.149   2.418   5.857 -0.0328  0.2462  0.5473
  169DOPC  H10R20550   8.256   2.411   5.832 -0.6184 -2.9962 -1.7951
  169DOPC  C21120551   8.103   2.512   5.965 -0.0111 -0.0887 -0.0475
  169DOPC  H11R20552   8.133   2.486   6.069  1.5996 -0.4146 -0.5728
  169DOPC  H11S20553   7.993   2.531   5.959 -0.1238 -0.1389  1.4117
  169DOPC  C21220554   8.176   2.646   5.937  0.2380  0.2407  0.5322
  169DOPC  H12R20555   8.114   2.733   5.970  1.5993  2.0389 -1.3480
  169DOPC  H12S20556   8.173   2.674   5.830 -2.0811  1.9094  0.9576
  169DOPC  C21320557   8.319   2.665   5.989 -0.3393 -0.1815 -0.4387
  169DOPC  H13R20558   8.371   2.749   5.937  1.4885 -2.2427 -2.1291
  169DOPC  H13S20559   8.391   2.585   5.963  0.6054  0.6463 -0.4478
  169DOPC  C21420560   8.313   2.697   6.140 -1.3770  0.3113 -0.4453
  169DOPC  H14R20561   8.264   2.609   6.187  1.4533 -2.0885 -1.6289
  169DOPC  H14S20562   8.248   2.784   6.162  0.0695  1.2078  0.4093
  169DOPC  C21520563   8.448   2.701   6.212  0.0228  0.5178  0.6459
  169DOPC  H15R20564   8.490   2.798   6.179 -0.0166  0.0335 -0.8885
  169DOPC  H15S20565   8.503   2.615   6.169 -0.1400  0.5882  0.2954
  169DOPC  C21620566   8.439   2.699   6.364 -0.1345  0.7749 -0.2334
  169DOPC  H16R20567   8.384   2.606   6.389  1.0911 -0.0250 -0.4306
  169DOPC  H16S20568   8.389   2.790   6.405  1.4784  1.7826 -0.4103
  169DOPC  C21720569   8.568   2.687   6.436 -0.5704  0.0884  0.0005
  169DOPC  H17R20570   8.654   2.743   6.395  1.8578 -1.6693  2.3951
  169DOPC  H17S20571   8.608   2.584   6.420 -1.2823 -0.8028  3.2920
  169DOPC  C21820572   8.557   2.701   6.585 -0.3862  0.5519  0.2520
  169DOPC  H18R20573   8.523   2.802   6.618 -0.2341  0.1328  1.8042
  169DOPC  H18S20574   8.653   2.673   6.634 -1.2783 -0.4595  1.5256
  169DOPC  H18T20575   8.469   2.638   6.613 -1.4862  0.6216 -2.6607
  169DOPC   C3320576   7.971   1.547   6.080  0.6087 -0.7549  0.6554
  169DOPC   H3X20577   7.908   1.456   6.093 -0.2868 -0.3398 -0.5932
  169DOPC   H3Y20578   8.074   1.526   6.118  1.0292 -3.3415 -1.5587
  169DOPC   C3420579   7.984   1.586   5.934  0.5449  0.1719 -0.1657
  169DOPC   H4X20580   7.881   1.609   5.901  0.1860 -0.5161  0.4768
  169DOPC   H4Y20581   8.017   1.503   5.867  1.1851  1.1256 -1.0700
  169DOPC   C3520582   8.085   1.702   5.913  0.3771 -0.0450 -0.0517
  169DOPC   H5X20583   8.189   1.680   5.947  0.8861  0.4259 -1.2571
  169DOPC   H5Y20584   8.045   1.774   5.988 -0.7300 -1.5342  0.8298
  169DOPC   C3620585   8.090   1.769   5.778 -0.0213  0.6654  0.1041
  169DOPC   H6X20586   8.162   1.852   5.793  0.3292  0.3580  0.1585
  169DOPC   H6Y20587   8.140   1.701   5.705 -1.6863 -0.2465 -0.2384
  169DOPC   C3720588   7.956   1.811   5.720 -0.3084 -0.4123  0.6465
  169DOPC   H7X20589   7.896   1.719   5.704  2.5368 -1.9729 -2.2110
  169DOPC   H7Y20590   7.900   1.882   5.785  0.1076  1.0396 -0.5336
  169DOPC   C3820591   7.966   1.868   5.571  0.4390 -0.4993 -0.5069
  169DOPC   H8X20592   7.873   1.857   5.512  1.2064 -0.4634 -1.7620
  169DOPC   H8Y20593   8.036   1.803   5.513  2.4418 -0.3746  1.6107
  169DOPC   C3920594   8.015   2.007   5.579  0.4177  0.0158  0.7757
  169DOPC   H9X20595   7.941   2.080   5.616  0.6923 -0.5176  2.4639
  169DOPC  C31020596   8.143   2.049   5.548  0.2776 -0.4615  0.0373
  169DOPC  H10X20597   8.170   2.155   5.533  2.8565 -1.3922 -3.2528
  169DOPC  C31120598   8.266   1.963   5.498  0.0016 -0.2964 -1.1700
  169DOPC  H11X20599   8.248   1.858   5.532 -2.8911  0.5410  0.2377
  169DOPC  H11Y20600   8.357   2.006   5.544 -1.3645  1.1509  0.3210
  169DOPC  C31220601   8.281   1.973   5.343  0.0010 -0.0954 -0.2869
  169DOPC  H12X20602   8.315   2.075   5.317 -3.4029  1.4571  0.7320
  169DOPC  H12Y20603   8.185   1.961   5.288 -1.1707 -0.6097  1.7838
  169DOPC  C31320604   8.383   1.868   5.284  0.4985 -0.2311 -0.2427
  169DOPC  H13X20605   8.483   1.889   5.329 -0.0774 -0.5984  1.2820
  169DOPC  H13Y20606   8.359   1.765   5.317 -0.9248 -0.1146 -0.8930
  169DOPC  C31420607   8.392   1.860   5.127 -0.5901  0.6589 -0.1048
  169DOPC  H14X20608   8.289   1.841   5.090 -1.5648  1.1313  2.2104
  169DOPC  H14Y20609   8.430   1.963   5.116  1.2654 -0.1436 -1.7415
  169DOPC  C31520610   8.500   1.763   5.081  0.1248 -0.2526  0.1533
  169DOPC  H15X20611   8.455   1.662   5.095 -1.1378  0.3308  0.4263
  169DOPC  H15Y20612   8.592   1.774   5.143  0.0789  0.0094  0.1766
  169DOPC  C31620613   8.535   1.790   4.934 -0.0468  0.6117  0.1489
  169DOPC  H16X20614   8.446   1.783   4.867  1.2073  0.3193 -1.5421
  169DOPC  H16Y20615   8.563   1.897   4.930 -0.6847  0.8379  1.3308
  169DOPC  C31720616   8.644   1.699   4.883  0.7584  0.2224 -0.2610
  169DOPC  H17X20617   8.646   1.600   4.934  1.2418  1.2914  1.9030
  169DOPC  H17Y20618   8.627   1.698   4.773  0.6047  0.1085 -0.2371
  169DOPC  C31820619   8.785   1.743   4.897  0.2751 -0.3971  0.4688
  169DOPC  H18X20620   8.850   1.681   4.831  1.6498  0.4309  1.0061
  169DOPC  H18Y20621   8.781   1.845   4.852 -1.0078 -1.0981 -1.1248
  169DOPC  H18Z20622   8.829   1.746   4.999  0.5118 -1.0198  0.3906
  170DOPC     N20623   6.394   7.457   7.170  0.4873  0.2442  0.2987
  170DOPC   C1220624   6.367   7.510   7.030  0.5739  0.0624  0.4857
  170DOPC  H12A20625   6.328   7.433   6.966  1.5816  1.6760 -2.2608
  170DOPC  H12B20626   6.458   7.551   6.987  1.1590 -0.8635  0.8162
  170DOPC   C1320627   6.268   7.397   7.231  0.3901 -0.0669 -0.1269
  170DOPC  H13A20628   6.233   7.315   7.170 -0.3073 -0.5057  0.8410
  170DOPC  H13B20629   6.286   7.369   7.333 -1.7059 -0.7535  0.1105
  170DOPC  H13C20630   6.194   7.476   7.241  2.3013  1.8209 -0.0875
  170DOPC   C1420631   6.449   7.562   7.262  0.0433 -0.3592 -0.2382
  170DOPC  H14A20632   6.396   7.656   7.250  0.8508 -0.0322 -1.5467
  170DOPC  H14B20633   6.458   7.533   7.365  0.8461 -1.4240 -0.5900
  170DOPC  H14C20634   6.552   7.580   7.235 -0.4324 -1.4499 -3.1600
  170DOPC   C1520635   6.503   7.351   7.166  0.2708  0.0624 -0.4150
  170DOPC  H15A20636   6.498   7.259   7.109  2.2400 -2.5790  3.2467
  170DOPC  H15B20637   6.513   7.314   7.267 -1.7120 -0.4867 -0.3805
  170DOPC  H15C20638   6.589   7.409   7.136  0.2256  1.4969  1.9286
  170DOPC   C1120639   6.270   7.637   7.020 -0.0899  0.4265  0.2850
  170DOPC  H11A20640   6.290   7.671   6.916  0.1807  0.9283  0.4991
  170DOPC  H11B20641   6.163   7.605   7.017  0.0139  0.0309  0.7512
  170DOPC     P20642   6.360   7.876   7.089 -0.6592 -0.6421 -0.2179
  170DOPC   O1320643   6.458   7.886   7.205  0.4845 -0.1950  0.2661
  170DOPC   O1420644   6.256   7.980   7.086 -0.4679 -0.3916  0.4858
  170DOPC   O1220645   6.278   7.741   7.118  0.6263  0.2230  0.2865
  170DOPC   O1120646   6.446   7.858   6.954  0.3695 -0.3734  0.3657
  170DOPC    C120647   6.520   7.968   6.897 -0.0369 -0.4697 -0.0251
  170DOPC    HA20648   6.604   7.936   6.832 -0.4953 -2.0740  0.1467
  170DOPC    HB20649   6.562   8.028   6.981  0.9076 -1.3807  0.1837
  170DOPC    C220650   6.437   8.057   6.804 -0.2068  0.8376  0.6267
  170DOPC    HS20651   6.349   8.101   6.855 -2.9698 -2.9988 -0.4512
  170DOPC   O2120652   6.394   7.975   6.694  0.0339  0.4077  0.5413
  170DOPC   C2120653   6.267   7.970   6.661 -0.0819 -0.3188 -0.3048
  170DOPC   O2220654   6.178   8.030   6.720 -0.3312 -0.1240 -0.4275
  170DOPC   C2220655   6.250   7.889   6.538  0.3246  0.1023  0.5558
  170DOPC   H2R20656   6.348   7.884   6.485 -0.0216  1.6587 -0.2904
  170DOPC   H2S20657   6.187   7.942   6.464  1.1481  1.0457  0.5042
  170DOPC    C320658   6.512   8.182   6.744 -0.2017 -0.1022  0.0895
  170DOPC    HX20659   6.533   8.258   6.822  0.1013  0.0614 -0.1496
  170DOPC    HY20660   6.439   8.225   6.673 -0.3026 -0.5906 -0.1056
  170DOPC   O3120661   6.625   8.148   6.664 -0.0560  0.6157  0.7618
  170DOPC   C3120662   6.748   8.152   6.722  0.1560  0.0711  0.1889
  170DOPC   O3220663   6.774   8.172   6.839 -0.4621  0.1997  0.1230
  170DOPC   C3220664   6.849   8.157   6.604 -0.0786  0.5176 -0.2023
  170DOPC   H2X20665   6.945   8.167   6.660 -0.9101 -2.4696  2.0124
  170DOPC   H2Y20666   6.840   8.065   6.542 -1.7456  1.1410 -0.9489
  170DOPC   C2320667   6.204   7.746   6.567 -0.0522 -0.1160  0.6391
  170DOPC   H3R20668   6.112   7.752   6.630 -0.3709 -1.4652  0.3498
  170DOPC   H3S20669   6.283   7.684   6.615 -0.4277 -0.8470  0.3418
  170DOPC   C2420670   6.169   7.671   6.437  0.0799 -0.0462  0.0791
  170DOPC   H4R20671   6.072   7.704   6.394  0.5262  0.1715 -0.7817
  170DOPC   H4S20672   6.156   7.563   6.459  0.5169  0.0266  0.7218
  170DOPC   C2520673   6.285   7.672   6.328  0.0899 -0.5763 -0.1115
  170DOPC   H5R20674   6.374   7.651   6.390 -1.2057  1.2677  2.5687
  170DOPC   H5S20675   6.295   7.775   6.287  0.5508 -0.2444  0.8159
  170DOPC   C2620676   6.275   7.570   6.219 -0.4622  0.3613  0.4903
  170DOPC   H6R20677   6.358   7.574   6.146 -0.4610  1.0586  0.5222
  170DOPC   H6S20678   6.181   7.582   6.161 -0.1053 -2.6651 -0.8981
  170DOPC   C2720679   6.269   7.414   6.260  0.1755  0.0990 -0.4546
  170DOPC   H7R20680   6.216   7.358   6.180  0.9114  0.7998 -1.4609
  170DOPC   H7S20681   6.216   7.406   6.358 -0.0625  0.7906 -0.5209
  170DOPC   C2820682   6.404   7.353   6.259  0.2165 -0.1783  0.0009
  170DOPC   H8R20683   6.467   7.395   6.178  2.2632 -0.9102  1.1438
  170DOPC   H8S20684   6.397   7.244   6.237  3.3982 -0.8117  1.5010
  170DOPC   C2920685   6.489   7.380   6.387 -0.1994 -0.2216 -0.0431
  170DOPC   H9R20686   6.443   7.432   6.472  1.7465 -1.5998  1.9695
  170DOPC  C21020687   6.619   7.361   6.398 -1.3852 -0.6626  0.0736
  170DOPC  H10R20688   6.668   7.383   6.494  0.2474  1.6017 -1.1868
  170DOPC  C21120689   6.712   7.312   6.288 -0.3010 -0.1860 -0.6285
  170DOPC  H11R20690   6.815   7.353   6.292 -1.2462  2.5533 -1.7618
  170DOPC  H11S20691   6.676   7.343   6.187 -2.1274 -0.2486 -0.0490
  170DOPC  C21220692   6.727   7.161   6.299  0.6149  0.6484  0.5865
  170DOPC  H12R20693   6.621   7.129   6.297  0.9120 -0.3426 -0.1404
  170DOPC  H12S20694   6.767   7.117   6.393  0.5290  0.4349  0.5220
  170DOPC  C21320695   6.801   7.102   6.175 -0.2710  0.0427 -0.1756
  170DOPC  H13R20696   6.783   6.993   6.187 -0.3726  0.0645 -0.1273
  170DOPC  H13S20697   6.909   7.125   6.183 -0.1257  0.2150 -2.1209
  170DOPC  C21420698   6.764   7.155   6.037 -0.0373  0.1037  1.0004
  170DOPC  H14R20699   6.798   7.260   6.027 -0.5762  0.3141  1.2967
  170DOPC  H14S20700   6.654   7.166   6.027 -0.1893 -1.8046  0.1883
  170DOPC  C21520701   6.828   7.080   5.916  1.1032  0.0959 -0.0436
  170DOPC  H15R20702   6.789   6.976   5.923  1.5227 -0.0823 -0.2827
  170DOPC  H15S20703   6.938   7.074   5.934  1.4644  0.6979 -1.8310
  170DOPC  C21620704   6.795   7.154   5.781  0.2630  0.3427  0.1427
  170DOPC  H16R20705   6.844   7.253   5.787 -1.5321  1.2377  0.8527
  170DOPC  H16S20706   6.686   7.176   5.777  0.4437  1.4515  0.8442
  170DOPC  C21720707   6.856   7.086   5.657 -0.3471 -0.1350 -0.0031
  170DOPC  H17R20708   6.820   6.981   5.669  0.7148 -0.3910  1.1141
  170DOPC  H17S20709   6.967   7.085   5.662 -0.2220  2.4043 -0.6659
  170DOPC  C21820710   6.811   7.134   5.519  0.0133 -0.2205  0.3217
  170DOPC  H18R20711   6.831   7.243   5.513 -1.8537  0.1594  0.2187
  170DOPC  H18S20712   6.704   7.110   5.499  0.5193 -2.5741  0.1200
  170DOPC  H18T20713   6.851   7.078   5.431  0.4374  1.0053 -0.2945
  170DOPC   C3320714   6.836   8.292   6.529  0.4634 -0.0851  0.0105
  170DOPC   H3X20715   6.845   8.377   6.599  0.0577  1.8624 -2.1833
  170DOPC   H3Y20716   6.747   8.296   6.464  1.4671 -2.7825 -1.6952
  170DOPC   C3420717   6.962   8.319   6.436 -0.0862  0.1020 -1.1545
  170DOPC   H4X20718   7.054   8.286   6.489  0.8587 -0.6141 -3.1285
  170DOPC   H4Y20719   6.970   8.424   6.404 -0.2554 -0.1682 -2.1131
  170DOPC   C3520720   6.959   8.235   6.310 -0.5996  0.5624 -0.3939
  170DOPC   H5X20721   6.918   8.307   6.235  1.7935  2.5091  0.0436
  170DOPC   H5Y20722   6.891   8.151   6.335  0.4124 -0.3348 -0.6239
  170DOPC   C3620723   7.096   8.170   6.270 -0.3324 -0.3671  0.4175
  170DOPC   H6X20724   7.162   8.259   6.265  0.7426 -1.2027 -0.5893
  170DOPC   H6Y20725   7.125   8.109   6.358  0.9709  0.0418  0.2948
  170DOPC   C3720726   7.083   8.084   6.142  0.0931  0.0278 -0.5691
  170DOPC   H7X20727   7.033   7.989   6.170 -0.0151  0.3720  0.4434
  170DOPC   H7Y20728   7.019   8.150   6.079  0.4670  1.9517  0.9989
  170DOPC   C3820729   7.225   8.055   6.077  0.1868  0.1025  0.2777
  170DOPC   H8X20730   7.297   8.021   6.155  0.2177  0.3322  0.3501
  170DOPC   H8Y20731   7.275   8.144   6.034  0.7360 -0.5526 -0.4705
  170DOPC   C3920732   7.215   7.951   5.974 -0.0605 -0.4409  0.2189
  170DOPC   H9X20733   7.225   7.851   6.018  0.0936 -0.6001 -0.1734
  170DOPC  C31020734   7.190   7.968   5.844 -0.6662 -0.1946 -1.4432
  170DOPC  H10X20735   7.174   7.880   5.779 -0.6893 -0.5934 -0.9054
  170DOPC  C31120736   7.163   8.100   5.777 -0.0445 -0.7067 -0.6472
  170DOPC  H11X20737   7.194   8.185   5.842 -0.3550  1.2894 -2.9543
  170DOPC  H11Y20738   7.056   8.107   5.750  0.3808 -1.2106 -2.6416
  170DOPC  C31220739   7.231   8.118   5.639  0.8034 -0.2297  0.3409
  170DOPC  H12X20740   7.192   8.067   5.549  0.2531 -0.5394  0.7525
  170DOPC  H12Y20741   7.336   8.081   5.647  0.8747 -1.2984 -3.4186
  170DOPC  C31320742   7.256   8.268   5.602  0.2609 -0.2082 -0.0028
  170DOPC  H13X20743   7.161   8.313   5.566  1.1011  0.1796 -1.8215
  170DOPC  H13Y20744   7.307   8.328   5.681  1.2526 -1.3583  0.2688
  170DOPC  C31420745   7.355   8.276   5.482  0.3808 -0.2081  0.5273
  170DOPC  H14X20746   7.442   8.211   5.503  0.1685 -0.4943  0.5218
  170DOPC  H14Y20747   7.305   8.234   5.392 -2.2506  2.1323  0.7369
  170DOPC  C31520748   7.408   8.415   5.445 -0.3130 -0.1156 -0.0206
  170DOPC  H15X20749   7.457   8.468   5.529 -0.4808  0.2433 -0.1482
  170DOPC  H15Y20750   7.328   8.483   5.408 -2.2390 -2.8473 -1.2733
  170DOPC  C31620751   7.519   8.400   5.336  0.4136  0.0222 -0.0888
  170DOPC  H16X20752   7.563   8.501   5.321  1.1340 -0.1835  0.5911
  170DOPC  H16Y20753   7.603   8.329   5.350  0.9842  0.5109 -0.9314
  170DOPC  C31720754   7.463   8.367   5.192 -0.0177  0.2990 -0.3766
  170DOPC  H17X20755   7.548   8.387   5.123 -1.0871  0.9037 -1.5550
  170DOPC  H17Y20756   7.435   8.260   5.206  1.2251  0.1309  1.0086
  170DOPC  C31820757   7.346   8.454   5.144 -0.8150  0.5015  0.0426
  170DOPC  H18X20758   7.253   8.439   5.204 -0.7298  1.3012  0.3794
  170DOPC  H18Y20759   7.371   8.561   5.159  0.5446  0.1725  0.2288
  170DOPC  H18Z20760   7.321   8.433   5.038  1.4746  0.9146 -0.6132
  171DOPC     N20761   2.437   2.201   2.956  0.4948 -0.5441 -0.7546
  171DOPC   C1220762   2.580   2.212   2.910 -0.4661  0.2287 -0.1770
  171DOPC  H12A20763   2.594   2.127   2.844  2.5079 -0.0783  0.7046
  171DOPC  H12B20764   2.652   2.197   2.989  1.6972 -3.2395 -2.5260
  171DOPC   C1320765   2.352   2.209   2.832 -0.3111  0.0629  0.0936
  171DOPC  H13A20766   2.247   2.201   2.859 -0.6159 -0.6371 -1.2037
  171DOPC  H13B20767   2.382   2.303   2.788  0.4296  0.3962  1.2655
  171DOPC  H13C20768   2.371   2.134   2.757  1.3118 -0.0717  0.6047
  171DOPC   C1420769   2.404   2.314   3.046  0.2724 -0.2030  0.3426
  171DOPC  H14A20770   2.411   2.408   2.994  0.8454  0.7632  2.0828
  171DOPC  H14B20771   2.306   2.293   3.087 -0.6499  0.6981 -1.3116
  171DOPC  H14C20772   2.471   2.329   3.129  2.5100  1.0109 -1.5847
  171DOPC   C1520773   2.415   2.072   3.035  0.7115  0.6032  0.4056
  171DOPC  H15A20774   2.499   2.054   3.101  1.3927 -1.3149 -0.8808
  171DOPC  H15B20775   2.413   1.990   2.965 -0.3284  1.2146 -0.2955
  171DOPC  H15C20776   2.330   2.072   3.102 -0.6833  0.5714 -1.3013
  171DOPC   C1120777   2.624   2.348   2.847  0.7038  0.1260 -0.0412
  171DOPC  H11A20778   2.588   2.358   2.742  1.0689 -0.7126 -0.2491
  171DOPC  H11B20779   2.582   2.434   2.904 -0.6893 -0.2591 -0.4296
  171DOPC     P20780   2.850   2.370   2.969 -0.2000 -0.2918 -0.0281
  171DOPC   O1320781   2.984   2.346   2.915 -0.3648 -0.1478 -0.0673
  171DOPC   O1420782   2.802   2.275   3.074 -0.2780  0.0265 -0.2490
  171DOPC   O1220783   2.760   2.344   2.836 -0.1538  0.2838  0.0750
  171DOPC   O1120784   2.820   2.520   3.005  0.5161  0.1916  0.5996
  171DOPC    C120785   2.913   2.606   3.058 -1.1034 -0.2964  0.7781
  171DOPC    HA20786   2.882   2.708   3.027  0.6450  0.0136 -0.0425
  171DOPC    HB20787   3.017   2.578   3.031 -1.0252  1.6957 -1.2284
  171DOPC    C220788   2.901   2.613   3.211  0.3851  0.0255  0.1039
  171DOPC    HS20789   2.965   2.697   3.245  1.4814 -0.3731 -0.8629
  171DOPC   O2120790   2.947   2.487   3.270 -0.1862 -0.6425  0.8715
  171DOPC   C2120791   3.081   2.460   3.267 -0.2592 -0.4870  0.5901
  171DOPC   O2220792   3.161   2.545   3.224 -0.0506  0.2803 -0.5534
  171DOPC   C2220793   3.115   2.315   3.308  0.0357 -0.0390  0.2193
  171DOPC   H2R20794   3.206   2.289   3.250 -0.8302 -2.4785 -0.1693
  171DOPC   H2S20795   3.036   2.242   3.279  0.8111 -1.2854  1.1349
  171DOPC    C320796   2.758   2.629   3.267  0.9908 -0.4181  0.6109
  171DOPC    HX20797   2.715   2.527   3.257  1.8504 -0.6345 -1.2236
  171DOPC    HY20798   2.700   2.702   3.208  0.6545 -0.3370  1.0427
  171DOPC   O3120799   2.757   2.677   3.403 -0.1851 -0.2452 -0.4193
  171DOPC   C3120800   2.688   2.614   3.499 -0.9286 -0.5835  0.2776
  171DOPC   O3220801   2.636   2.505   3.498  0.0437 -0.1043  0.5347
  171DOPC   C3220802   2.683   2.697   3.625  0.6530 -0.1939 -0.2970
  171DOPC   H2X20803   2.784   2.732   3.656  0.8840 -2.6760  2.1410
  171DOPC   H2Y20804   2.630   2.791   3.600  0.8358 -0.0565 -0.1694
  171DOPC   C2320805   3.132   2.308   3.460  0.7124 -0.2226  0.3247
  171DOPC   H3R20806   3.126   2.198   3.476 -3.2589  0.0789  2.1657
  171DOPC   H3S20807   3.040   2.345   3.511  0.4009 -0.1334 -0.2903
  171DOPC   C2420808   3.254   2.377   3.516 -0.3030  0.2829 -0.2452
  171DOPC   H4R20809   3.332   2.365   3.437 -1.0429  0.0422 -0.9536
  171DOPC   H4S20810   3.301   2.327   3.604  0.4382  1.9202  0.3278
  171DOPC   C2520811   3.240   2.528   3.560  0.6486 -0.1767 -0.2165
  171DOPC   H5R20812   3.200   2.589   3.476 -1.7143 -1.7804 -0.3678
  171DOPC   H5S20813   3.336   2.571   3.594 -0.6495  0.6412  2.6988
  171DOPC   C2620814   3.138   2.542   3.678 -0.1920 -0.3243  0.4658
  171DOPC   H6R20815   3.167   2.468   3.756  3.0214  2.1251  1.8507
  171DOPC   H6S20816   3.042   2.508   3.634  0.1913 -1.5991  0.5662
  171DOPC   C2720817   3.121   2.673   3.739  0.1270 -0.1682  0.0478
  171DOPC   H7R20818   3.065   2.744   3.674 -0.7368 -0.3082  0.6164
  171DOPC   H7S20819   3.219   2.714   3.770  0.4916 -1.6266  0.9019
  171DOPC   C2820820   3.033   2.662   3.861  0.0088 -0.4147 -0.7767
  171DOPC   H8R20821   2.936   2.617   3.831 -1.2013 -0.3611  2.5479
  171DOPC   H8S20822   3.009   2.769   3.882 -2.0736 -0.7762 -1.1433
  171DOPC   C2920823   3.099   2.586   3.986  0.9163 -0.5556 -0.1068
  171DOPC   H9R20824   3.105   2.478   3.967 -0.1163 -0.6335 -0.0538
  171DOPC  C21020825   3.137   2.639   4.104  0.1553 -0.2744 -0.8490
  171DOPC  H10R20826   3.155   2.572   4.189 -2.6172 -0.4529 -0.3301
  171DOPC  C21120827   3.127   2.785   4.124  0.0336  0.0303 -0.2702
  171DOPC  H11R20828   3.107   2.843   4.032 -1.0565 -0.1671 -0.1686
  171DOPC  H11S20829   3.227   2.828   4.149 -0.3538  0.4277  0.6380
  171DOPC  C21220830   3.025   2.827   4.228  0.5734 -0.0253 -0.6972
  171DOPC  H12R20831   2.925   2.781   4.209  0.1744 -0.3164  1.8296
  171DOPC  H12S20832   3.006   2.937   4.227 -0.5899 -0.1735  1.1794
  171DOPC  C21320833   3.060   2.793   4.372  0.2068 -0.0819 -0.3256
  171DOPC  H13R20834   3.056   2.682   4.378 -2.7870 -0.3350 -3.8596
  171DOPC  H13S20835   2.973   2.836   4.426 -0.1992 -1.2839  0.0162
  171DOPC  C21420836   3.195   2.847   4.434  0.4458  0.1150 -0.3513
  171DOPC  H14R20837   3.194   2.958   4.420 -0.8253  0.1684  0.0576
  171DOPC  H14S20838   3.277   2.807   4.370  0.9290 -0.0406  0.3505
  171DOPC  C21520839   3.226   2.804   4.578 -0.0650  0.1771 -0.3657
  171DOPC  H15R20840   3.333   2.832   4.592 -0.2153  0.7468 -0.3099
  171DOPC  H15S20841   3.217   2.694   4.586  3.3782 -0.2052 -0.4861
  171DOPC  C21620842   3.147   2.880   4.695  0.1777 -0.2863  0.2597
  171DOPC  H16R20843   3.172   2.827   4.789 -1.0150 -0.5163  0.4670
  171DOPC  H16S20844   3.041   2.850   4.677  0.2636 -1.9546  2.1271
  171DOPC  C21720845   3.163   3.031   4.701 -0.0133 -0.6504 -0.7163
  171DOPC  H17R20846   3.124   3.072   4.605 -1.1366  0.5835  0.2132
  171DOPC  H17S20847   3.270   3.055   4.713 -0.6702  2.0939  0.4425
  171DOPC  C21820848   3.103   3.093   4.824 -0.5217  0.4324 -0.7387
  171DOPC  H18R20849   3.126   3.201   4.823  2.7432  0.0741  4.0965
  171DOPC  H18S20850   3.142   3.059   4.922  2.8442  0.9410 -1.7771
  171DOPC  H18T20851   2.992   3.089   4.810 -0.5193 -0.9327 -0.4669
  171DOPC   C3320852   2.593   2.627   3.736  0.5086  0.2428 -0.8309
  171DOPC   H3X20853   2.612   2.517   3.744 -0.5332  0.1823  1.3657
  171DOPC   H3Y20854   2.487   2.636   3.706 -0.3992 -1.0417  1.7252
  171DOPC   C3420855   2.621   2.691   3.872  0.1317  0.3481  0.6451
  171DOPC   H4X20856   2.552   2.777   3.888  0.5195  0.6748  0.5874
  171DOPC   H4Y20857   2.726   2.724   3.879  0.8728 -1.5871 -0.5740
  171DOPC   C3520858   2.584   2.593   3.983  0.5836 -0.3189  0.3026
  171DOPC   H5X20859   2.655   2.510   3.962  0.3096 -0.0480 -1.8911
  171DOPC   H5Y20860   2.484   2.545   3.974  0.1332  0.6985 -0.1570
  171DOPC   C3620861   2.606   2.651   4.123 -0.2421 -0.5652 -0.1586
  171DOPC   H6X20862   2.715   2.671   4.127 -0.2449 -0.2347 -1.3675
  171DOPC   H6Y20863   2.540   2.740   4.127  0.0060 -0.2708 -1.7757
  171DOPC   C3720864   2.577   2.541   4.225  0.2909 -0.9254 -0.2042
  171DOPC   H7X20865   2.474   2.505   4.209 -0.4321  1.4878 -1.4011
  171DOPC   H7Y20866   2.646   2.460   4.195 -0.4382 -1.3670 -0.6959
  171DOPC   C3820867   2.607   2.574   4.372  0.2280  0.4257  0.1674
  171DOPC   H8X20868   2.685   2.653   4.370 -0.0228  0.6764  0.2452
  171DOPC   H8Y20869   2.651   2.486   4.424 -1.8592 -0.2102  0.9668
  171DOPC   C3920870   2.494   2.624   4.454 -0.3546 -1.0272 -0.6910
  171DOPC   H9X20871   2.436   2.704   4.405 -0.7075 -0.1529  1.0950
  171DOPC  C31020872   2.464   2.582   4.580 -0.8076  0.3180 -0.3330
  171DOPC  H10X20873   2.372   2.628   4.620 -0.2187  0.7753  0.5174
  171DOPC  C31120874   2.521   2.475   4.668  0.8584  0.4739  0.1122
  171DOPC  H11X20875   2.538   2.383   4.608  0.5268  0.2644  0.3335
  171DOPC  H11Y20876   2.457   2.450   4.755 -0.6476  0.7446 -0.8704
  171DOPC  C31220877   2.659   2.503   4.727 -0.1615 -0.1100 -1.0077
  171DOPC  H12X20878   2.654   2.590   4.797  3.0203 -1.5531  1.2476
  171DOPC  H12Y20879   2.735   2.526   4.650 -1.4109  1.2201 -1.8952
  171DOPC  C31320880   2.711   2.378   4.800  0.2683 -0.1540 -0.0219
  171DOPC  H13X20881   2.630   2.321   4.851 -0.0520 -0.7340 -1.1497
  171DOPC  H13Y20882   2.744   2.319   4.712  0.6323 -1.8031  1.1494
  171DOPC  C31420883   2.838   2.390   4.882  0.0672 -0.3188  0.2471
  171DOPC  H14X20884   2.873   2.286   4.900  0.2021 -0.2248  0.5305
  171DOPC  H14Y20885   2.910   2.443   4.816 -0.7815  0.3745 -0.1473
  171DOPC  C31520886   2.826   2.457   5.022 -0.4019 -0.0191 -0.1047
  171DOPC  H15X20887   2.751   2.394   5.077 -0.6513 -0.2619 -0.7162
  171DOPC  H15Y20888   2.792   2.562   5.008  1.7925  0.6480 -0.7109
  171DOPC  C31620889   2.956   2.449   5.099 -0.2020 -0.7736  0.4525
  171DOPC  H16X20890   2.931   2.460   5.207 -0.1808  1.3394  0.2863
  171DOPC  H16Y20891   2.997   2.346   5.096  2.9559  0.3629  1.1325
  171DOPC  C31720892   3.057   2.546   5.050  0.3830 -0.5516  0.3434
  171DOPC  H17X20893   3.083   2.515   4.946 -1.1912  0.6493 -0.4623
  171DOPC  H17Y20894   3.005   2.644   5.040  2.6703  0.5423 -2.8164
  171DOPC  C31820895   3.176   2.550   5.138 -0.1951  0.0187 -0.2453
  171DOPC  H18X20896   3.263   2.597   5.087  1.0026 -1.6388  0.1688
  171DOPC  H18Y20897   3.154   2.606   5.231 -0.7612 -0.3766 -0.1315
  171DOPC  H18Z20898   3.201   2.446   5.170 -0.1987  0.1897  0.3111
  172DOPC     N20899   1.466   3.854   2.752  0.0184 -0.2643  0.3683
  172DOPC   C1220900   1.443   3.771   2.879  0.2044 -0.1910  0.6068
  172DOPC  H12A20901   1.414   3.672   2.845 -1.0853  0.9185 -1.7925
  172DOPC  H12B20902   1.356   3.814   2.928 -0.5074  2.2564 -2.5014
  172DOPC   C1320903   1.441   3.997   2.790 -0.9305 -0.6871  0.3224
  172DOPC  H13A20904   1.340   4.014   2.824 -1.3515  1.7028 -1.8103
  172DOPC  H13B20905   1.513   4.018   2.868 -0.5119 -1.1765  0.0790
  172DOPC  H13C20906   1.449   4.063   2.705 -1.0802  1.4223  1.8831
  172DOPC   C1420907   1.363   3.822   2.653 -0.5201 -0.2929 -0.6693
  172DOPC  H14A20908   1.265   3.826   2.698 -0.9470 -3.9914 -0.9331
  172DOPC  H14B20909   1.366   3.888   2.567 -1.6684  1.1361  0.3527
  172DOPC  H14C20910   1.369   3.719   2.618 -1.2646  0.2763 -2.6368
  172DOPC   C1520911   1.605   3.836   2.701  0.3405 -0.1868  0.3326
  172DOPC  H15A20912   1.630   3.912   2.629 -1.2345 -1.8348 -2.1305
  172DOPC  H15B20913   1.624   3.738   2.660 -2.7479 -1.1477  0.9346
  172DOPC  H15C20914   1.674   3.849   2.782 -0.4708  1.8103  0.7533
  172DOPC   C1120915   1.562   3.769   2.972  0.3489  0.1079 -0.3614
  172DOPC  H11A20916   1.531   3.717   3.065  2.6056 -0.7926 -0.0431
  172DOPC  H11B20917   1.649   3.709   2.937 -0.0450 -1.5101  1.2511
  172DOPC     P20918   1.725   3.930   3.087 -0.0845  0.3701  0.1772
  172DOPC   O1320919   1.793   3.805   3.128  0.4628  0.3531 -0.4644
  172DOPC   O1420920   1.691   4.026   3.191 -0.1556  0.8126  0.1276
  172DOPC   O1220921   1.598   3.904   3.000 -0.0270 -0.1102  0.1594
  172DOPC   O1120922   1.823   4.007   2.980  0.1695  0.1095 -0.1658
  172DOPC    C120923   1.776   4.119   2.906  0.0518  0.2116  0.0749
  172DOPC    HA20924   1.718   4.194   2.965 -1.0582 -0.1691 -0.4957
  172DOPC    HB20925   1.724   4.089   2.813  4.1483 -1.6012 -1.8607
  172DOPC    C220926   1.908   4.193   2.857 -0.2062 -0.0965  0.7471
  172DOPC    HS20927   1.944   4.126   2.775 -1.4088  0.7096 -0.4867
  172DOPC   O2120928   1.992   4.214   2.967  0.1289  0.3926  0.0563
  172DOPC   C2120929   2.120   4.177   2.949 -0.9217 -0.0932  0.1870
  172DOPC   O2220930   2.170   4.146   2.843  0.0733 -0.0356  0.7625
  172DOPC   C2220931   2.184   4.172   3.089 -0.1097 -0.0084  0.3905
  172DOPC   H2R20932   2.143   4.082   3.141 -0.0285 -0.3198 -0.0783
  172DOPC   H2S20933   2.155   4.259   3.151 -1.3923  0.1452 -0.3801
  172DOPC    C320934   1.871   4.326   2.792  0.2730  0.4108 -0.7045
  172DOPC    HX20935   1.845   4.402   2.868  0.8146  0.9006 -1.0053
  172DOPC    HY20936   1.785   4.315   2.723  0.3415  0.8207 -0.8587
  172DOPC   O3120937   1.984   4.378   2.719  0.0598 -0.2058 -0.3517
  172DOPC   C3120938   1.978   4.513   2.690  0.1116  0.8881  0.0701
  172DOPC   O3220939   1.875   4.576   2.692 -0.1794 -0.0678  0.3131
  172DOPC   C3220940   2.115   4.568   2.667 -0.0677  0.4272 -1.1480
  172DOPC   H2X20941   2.160   4.584   2.768 -0.2791 -2.2378 -0.5573
  172DOPC   H2Y20942   2.173   4.490   2.613  1.9734 -0.4448  2.0203
  172DOPC   C2320943   2.338   4.153   3.082 -0.1897  0.9095 -0.9611
  172DOPC   H3R20944   2.395   4.245   3.055 -2.1963  2.4234 -0.2041
  172DOPC   H3S20945   2.364   4.080   3.002  0.0025  0.4803 -0.5156
  172DOPC   C2420946   2.396   4.103   3.217  0.0583 -0.5399  0.3702
  172DOPC   H4R20947   2.330   4.028   3.266 -1.3079 -1.3608 -2.5211
  172DOPC   H4S20948   2.402   4.195   3.280  6.4490 -0.7881  0.7993
  172DOPC   C2520949   2.535   4.035   3.213  0.4651 -0.3992  0.4518
  172DOPC   H5R20950   2.605   4.103   3.159  1.2802 -1.4451  0.1541
  172DOPC   H5S20951   2.515   3.941   3.157 -0.5031  0.0680 -0.0100
  172DOPC   C2620952   2.599   3.999   3.347 -0.7720 -0.0815  0.1481
  172DOPC   H6R20953   2.688   3.938   3.319 -0.9882 -0.4225  0.2111
  172DOPC   H6S20954   2.540   3.937   3.418  0.5405 -0.8297  0.6197
  172DOPC   C2720955   2.649   4.130   3.417  0.7005  0.4372  0.4644
  172DOPC   H7R20956   2.567   4.192   3.458  0.1782 -0.2336  0.4489
  172DOPC   H7S20957   2.698   4.186   3.334 -0.9860  1.5627  0.1784
  172DOPC   C2820958   2.757   4.105   3.522 -0.2008  0.0378  0.6317
  172DOPC   H8R20959   2.808   4.201   3.543  1.7707 -0.8764  0.2548
  172DOPC   H8S20960   2.840   4.039   3.487 -1.1684 -1.0508  0.3161
  172DOPC   C2920961   2.715   4.063   3.655  0.4183  0.4345 -0.3039
  172DOPC   H9R20962   2.641   4.124   3.708  1.2870 -0.0354  1.5097
  172DOPC  C21020963   2.738   3.946   3.714  0.3919  0.7855  0.8040
  172DOPC  H10R20964   2.697   3.924   3.814 -0.3631  0.0380  0.3394
  172DOPC  C21120965   2.813   3.834   3.652 -0.2094  1.2170  0.1027
  172DOPC  H11R20966   2.817   3.833   3.541 -0.8258  0.0116  0.0671
  172DOPC  H11S20967   2.765   3.738   3.680  0.2434  1.2939  1.1869
  172DOPC  C21220968   2.955   3.816   3.714  0.4579  0.1945 -0.3539
  172DOPC  H12R20969   3.024   3.903   3.705  2.5531 -0.9518  2.9194
  172DOPC  H12S20970   3.000   3.731   3.659  0.3512  0.8088 -1.4130
  172DOPC  C21320971   2.947   3.785   3.864 -0.1365 -0.3157 -0.1763
  172DOPC  H13R20972   2.870   3.712   3.895 -1.8467  0.8393 -1.4998
  172DOPC  H13S20973   2.914   3.880   3.911 -1.9577 -0.5279 -0.9635
  172DOPC  C21420974   3.089   3.751   3.912  0.5486 -0.2437 -0.2995
  172DOPC  H14R20975   3.158   3.833   3.886 -0.0907  0.1366 -0.8274
  172DOPC  H14S20976   3.127   3.654   3.872 -0.3415 -0.0626 -1.6760
  172DOPC  C21520977   3.077   3.757   4.060 -0.6261 -0.8069  0.3556
  172DOPC  H15R20978   2.984   3.709   4.096  1.1881 -2.0159  3.8614
  172DOPC  H15S20979   3.070   3.864   4.091  0.4227 -0.6255  0.0027
  172DOPC  C21620980   3.190   3.689   4.131  0.1338 -0.3388 -1.2346
  172DOPC  H16R20981   3.278   3.670   4.065  2.0560 -0.6970  1.2605
  172DOPC  H16S20982   3.162   3.585   4.155  4.3601 -2.1175 -2.9262
  172DOPC  C21720983   3.256   3.758   4.252 -0.1488  0.0025  0.1433
  172DOPC  H17R20984   3.266   3.867   4.232  1.7652  0.7173  4.1050
  172DOPC  H17S20985   3.357   3.714   4.260  0.4284  1.3897  0.8854
  172DOPC  C21820986   3.181   3.751   4.382 -0.3497  0.8753 -0.2325
  172DOPC  H18R20987   3.163   3.645   4.410  1.2446  0.1272 -1.8280
  172DOPC  H18S20988   3.083   3.803   4.387 -0.2006  1.1241  0.0428
  172DOPC  H18T20989   3.245   3.789   4.463 -0.2480 -0.8859  0.5560
  172DOPC   C3320990   2.120   4.694   2.583 -0.3207 -0.5063  0.5832
  172DOPC   H3X20991   2.068   4.781   2.629  1.7285  1.1439 -0.0738
  172DOPC   H3Y20992   2.065   4.671   2.489 -0.9693 -0.7326  1.0050
  172DOPC   C3420993   2.266   4.721   2.547 -0.6858  0.1368 -0.5428
  172DOPC   H4X20994   2.305   4.643   2.478  0.4742 -0.6777  0.9692
  172DOPC   H4Y20995   2.329   4.715   2.638 -1.8758 -0.6546  0.2535
  172DOPC   C3520996   2.285   4.849   2.465  0.6883  0.0999 -0.2379
  172DOPC   H5X20997   2.255   4.929   2.537  0.1909 -1.7330  1.6902
  172DOPC   H5Y20998   2.221   4.834   2.376  0.9683  2.0459 -0.8053
  172DOPC   C3620999   2.428   4.877   2.415  0.3103  0.5317  0.0122
  172DOPC   H6X21000   2.438   4.782   2.357 -2.2198 -0.0269  0.3433
  172DOPC   H6Y21001   2.425   4.958   2.339  2.4544 -0.8747 -1.7151
  172DOPC   C3721002   2.525   4.901   2.525  0.5861 -0.3219  0.1611
  172DOPC   H7X21003   2.534   4.808   2.584 -1.2191 -0.0976  0.8569
  172DOPC   H7Y21004   2.624   4.926   2.481  0.4288  1.8692  0.9527
  172DOPC   C3821005   2.485   5.015   2.625  0.0662  0.0768  0.9374
  172DOPC   H8X21006   2.406   4.977   2.694  1.1444 -1.5244  1.3494
  172DOPC   H8Y21007   2.430   5.096   2.572 -0.5823  0.3053  1.9106
  172DOPC   C3921008   2.603   5.057   2.701 -1.3919 -0.2531 -0.7898
  172DOPC   H9X21009   2.699   5.061   2.647 -0.6826 -0.8635  0.3826
  172DOPC  C31021010   2.606   5.091   2.833  0.5121  0.5295 -0.2136
  172DOPC  H10X21011   2.703   5.113   2.879  0.4354 -0.7057  0.5848
  172DOPC  C31121012   2.489   5.085   2.938  0.1485 -0.1932  0.3659
  172DOPC  H11X21013   2.435   4.988   2.931  0.9273 -0.7137  1.2473
  172DOPC  H11Y21014   2.429   5.177   2.921  3.1470  1.5768 -1.5243
  172DOPC  C31221015   2.543   5.086   3.084 -0.3315  0.0302 -0.3669
  172DOPC  H12X21016   2.631   5.148   3.108 -0.7197 -0.1064  1.6601
  172DOPC  H12Y21017   2.574   4.984   3.117  3.4333  1.8193  2.3473
  172DOPC  C31321018   2.426   5.135   3.176 -0.4814  0.1900 -0.6982
  172DOPC  H13X21019   2.363   5.205   3.117 -2.2842 -2.1603 -1.7279
  172DOPC  H13Y21020   2.367   5.044   3.200  1.3972 -0.9180  0.0210
  172DOPC  C31421021   2.467   5.206   3.307 -0.1390 -0.2745 -0.0613
  172DOPC  H14X21022   2.517   5.300   3.273 -0.9249  0.0517 -0.3301
  172DOPC  H14Y21023   2.380   5.235   3.369  1.1640  2.2856  0.7275
  172DOPC  C31521024   2.567   5.140   3.405 -0.3965 -0.1510  0.4261
  172DOPC  H15X21025   2.671   5.145   3.367 -0.4555 -2.1689 -0.1155
  172DOPC  H15Y21026   2.530   5.038   3.428 -2.0717  0.1367 -0.8111
  172DOPC  C31621027   2.569   5.214   3.540  0.5166  0.7891  0.0182
  172DOPC  H16X21028   2.614   5.314   3.522  0.2858  0.9642  0.4110
  172DOPC  H16Y21029   2.466   5.230   3.578  0.2688  1.4416 -0.9035
  172DOPC  C31721030   2.641   5.124   3.647 -0.3933 -1.0186 -0.2216
  172DOPC  H17X21031   2.606   5.019   3.649  0.7214 -1.3987  0.3770
  172DOPC  H17Y21032   2.743   5.111   3.605 -1.3371  1.8223 -3.8851
  172DOPC  C31821033   2.642   5.201   3.781 -0.2970  0.5455 -0.2765
  172DOPC  H18X21034   2.684   5.303   3.786 -2.6871  1.5358  1.1747
  172DOPC  H18Y21035   2.534   5.218   3.801 -0.3067  0.0382  0.1366
  172DOPC  H18Z21036   2.685   5.149   3.869 -1.2550 -1.3919 -0.8976
  173DOPC     N21037   1.908   3.332   3.056 -0.2880  0.0616 -0.1767
  173DOPC   C1221038   1.869   3.309   3.203  0.3306  0.0374 -0.0312
  173DOPC  H12A21039   1.826   3.401   3.240 -1.0928 -0.7819  0.4311
  173DOPC  H12B21040   1.958   3.278   3.255 -0.1668  1.0653  1.5108
  173DOPC   C1321041   1.950   3.209   2.986  0.0773 -0.0506  0.5345
  173DOPC  H13A21042   1.984   3.210   2.883  1.3704 -1.9720  0.8902
  173DOPC  H13B21043   2.038   3.173   3.037 -1.7872 -0.9634  3.3194
  173DOPC  H13C21044   1.870   3.136   2.987 -0.6255  0.6264 -1.1505
  173DOPC   C1421045   2.027   3.418   3.067  0.1402 -0.0763 -0.1973
  173DOPC  H14A21046   2.100   3.386   3.140  1.5154  2.0413 -0.5336
  173DOPC  H14B21047   2.066   3.433   2.967 -2.4137  1.1226 -1.0944
  173DOPC  H14C21048   1.992   3.510   3.111  0.8164  0.4253 -0.6824
  173DOPC   C1521049   1.807   3.404   2.978 -0.2857 -0.7610  1.1156
  173DOPC  H15A21050   1.717   3.344   2.969 -0.9488  0.2609  0.8725
  173DOPC  H15B21051   1.850   3.416   2.880 -1.5377  0.9740  0.7391
  173DOPC  H15C21052   1.789   3.504   3.014  1.3337 -0.1126  0.2187
  173DOPC   C1121053   1.765   3.202   3.223  0.1265  0.0865 -0.0042
  173DOPC  H11A21054   1.738   3.201   3.331 -0.8520 -1.4099 -0.2276
  173DOPC  H11B21055   1.671   3.228   3.170 -0.7985 -0.3002  1.3633
  173DOPC     P21056   1.708   2.941   3.192  0.3434  0.0229  0.1551
  173DOPC   O1321057   1.788   2.821   3.172 -0.0873 -0.0817 -0.8208
  173DOPC   O1421058   1.604   2.954   3.085 -0.4387  0.2013  0.1986
  173DOPC   O1221059   1.805   3.067   3.187 -0.1426  0.5844 -0.2447
  173DOPC   O1121060   1.636   2.948   3.331 -0.3870  0.2667 -0.0158
  173DOPC    C121061   1.705   2.939   3.459 -0.4298 -0.6695  0.1606
  173DOPC    HA21062   1.804   2.989   3.464 -0.7956  0.1074 -0.1218
  173DOPC    HB21063   1.722   2.830   3.475  1.6710 -0.1380  2.0675
  173DOPC    C221064   1.624   2.999   3.576 -0.3582  0.0155 -0.0223
  173DOPC    HS21065   1.521   2.978   3.540 -0.1496  1.3040 -1.4610
  173DOPC   O2121066   1.644   3.142   3.564 -0.2364 -0.7399  0.1893
  173DOPC   C2121067   1.545   3.227   3.554  0.3296 -0.0781  0.0279
  173DOPC   O2221068   1.423   3.203   3.546  0.4010 -0.0904  0.2024
  173DOPC   C2221069   1.595   3.370   3.550  0.0797 -0.2902 -1.0119
  173DOPC   H2R21070   1.511   3.432   3.513  0.1918  1.2486  1.1678
  173DOPC   H2S21071   1.666   3.379   3.465  0.4114 -0.0188 -0.7071
  173DOPC    C321072   1.663   2.955   3.715  0.2738  0.4616 -0.2330
  173DOPC    HX21073   1.765   2.997   3.729  0.1293  0.0033  2.8033
  173DOPC    HY21074   1.674   2.845   3.707  1.5237  0.6897 -2.7827
  173DOPC   O3121075   1.587   3.001   3.828 -0.1302 -0.2431 -0.5421
  173DOPC   C3121076   1.454   2.971   3.834 -0.2242 -0.8249 -0.3252
  173DOPC   O3221077   1.388   2.911   3.751 -0.0690 -0.2070  0.0247
  173DOPC   C3221078   1.397   3.034   3.958  1.3511 -0.2620 -1.0013
  173DOPC   H2X21079   1.475   3.038   4.038 -1.0039  1.3796  1.3795
  173DOPC   H2Y21080   1.368   3.138   3.934  0.3911  0.2425  1.8885
  173DOPC   C2321081   1.635   3.437   3.679 -0.3901 -1.1676 -1.1528
  173DOPC   H3R21082   1.552   3.424   3.752 -0.3163 -0.7495 -0.9905
  173DOPC   H3S21083   1.655   3.544   3.659  1.3687 -1.0182  0.9841
  173DOPC   C2421084   1.758   3.366   3.743  0.5525  0.9434 -0.4558
  173DOPC   H4R21085   1.845   3.369   3.674  1.4000  2.2682  0.6319
  173DOPC   H4S21086   1.720   3.262   3.754 -1.5843  1.8134  1.3356
  173DOPC   C2521087   1.798   3.434   3.875 -0.8058  0.2775 -0.0737
  173DOPC   H5R21088   1.715   3.429   3.950 -0.2377 -0.4756  0.5288
  173DOPC   H5S21089   1.825   3.540   3.859  1.3425 -0.0015  1.2380
  173DOPC   C2621090   1.920   3.371   3.939  0.0623  0.6389  0.3871
  173DOPC   H6R21091   1.944   3.433   4.028  2.0231  0.5151 -0.0016
  173DOPC   H6S21092   2.005   3.379   3.867 -0.1129 -2.0626 -0.2171
  173DOPC   C2721093   1.903   3.223   3.973 -0.1042  0.2952  1.4784
  173DOPC   H7R21094   1.867   3.162   3.887  0.1398  0.6445  1.1271
  173DOPC   H7S21095   1.835   3.194   4.056 -1.1212 -0.5059  0.3949
  173DOPC   C2821096   2.038   3.163   4.010 -0.2411 -0.0295 -0.0505
  173DOPC   H8R21097   2.114   3.173   3.929  1.7259  0.2082  1.7337
  173DOPC   H8S21098   2.027   3.053   4.021  0.6379 -0.1941 -0.7250
  173DOPC   C2921099   2.096   3.222   4.136  1.0985 -0.5353 -0.5685
  173DOPC   H9R21100   2.117   3.329   4.128  0.7057 -0.3766  0.3216
  173DOPC  C21021101   2.104   3.175   4.265  0.5044 -0.0756  0.1873
  173DOPC  H10R21102   2.158   3.240   4.336 -0.5807  3.3253 -1.8973
  173DOPC  C21121103   2.054   3.045   4.325  1.2072  0.4467  0.5634
  173DOPC  H11R21104   1.970   3.006   4.263  3.0033 -0.7333 -1.2574
  173DOPC  H11S21105   2.024   3.070   4.429  2.7825 -1.8963  1.6582
  173DOPC  C21221106   2.168   2.944   4.344  0.2543 -0.0640 -0.8615
  173DOPC  H12R21107   2.246   2.972   4.417  0.7393 -1.5167 -0.7877
  173DOPC  H12S21108   2.232   2.942   4.253 -1.8037  0.2193 -2.4111
  173DOPC  C21321109   2.119   2.799   4.373  0.3716  0.0049  0.6495
  173DOPC  H13R21110   2.203   2.727   4.361  1.8684  1.9015 -1.0097
  173DOPC  H13S21111   2.049   2.780   4.288  1.3009  2.3315 -0.7215
  173DOPC  C21421112   2.029   2.786   4.498 -0.0222  0.7680 -0.6184
  173DOPC  H14R21113   1.933   2.835   4.471 -0.4063 -0.2456 -1.1666
  173DOPC  H14S21114   2.076   2.846   4.578 -1.5042 -0.9467  1.6616
  173DOPC  C21521115   1.997   2.643   4.553  0.5482  0.1781  0.4394
  173DOPC  H15R21116   2.089   2.583   4.560  0.5671 -1.2097 -5.8124
  173DOPC  H15S21117   1.937   2.590   4.476  0.0159 -2.3207  2.4670
  173DOPC  C21621118   1.919   2.628   4.683  1.2273  0.5086  0.2285
  173DOPC  H16R21119   1.875   2.529   4.707  0.4496  0.7357 -0.2180
  173DOPC  H16S21120   1.831   2.693   4.663  0.9997 -0.2440 -1.2926
  173DOPC  C21721121   1.997   2.676   4.811 -0.3827  0.0034  0.1750
  173DOPC  H17R21122   1.931   2.692   4.898  2.2393  1.3698  2.0310
  173DOPC  H17S21123   2.049   2.768   4.777  0.6974  0.0209  1.7874
  173DOPC  C21821124   2.115   2.578   4.860 -0.4002 -0.7370  0.4583
  173DOPC  H18R21125   2.089   2.472   4.881  0.2402 -0.8675  0.5983
  173DOPC  H18S21126   2.133   2.624   4.960 -1.1291  0.0533  0.2413
  173DOPC  H18T21127   2.198   2.579   4.786 -0.3907  0.0112  0.4658
  173DOPC   C3321128   1.277   2.959   4.023 -0.1906  0.3957  0.0788
  173DOPC   H3X21129   1.306   2.852   4.029  3.5732  1.1495 -1.7591
  173DOPC   H3Y21130   1.194   2.971   3.950 -0.2777  1.7776  0.3842
  173DOPC   C3421131   1.241   3.029   4.147 -0.1952 -0.5383 -0.0634
  173DOPC   H4X21132   1.169   3.109   4.120  1.1216  0.7925  0.2556
  173DOPC   H4Y21133   1.332   3.074   4.192 -1.2549  0.7461  0.8605
  173DOPC   C3521134   1.182   2.939   4.254 -0.5965 -0.7910 -1.0963
  173DOPC   H5X21135   1.269   2.873   4.276 -0.1273  0.1804  0.0631
  173DOPC   H5Y21136   1.100   2.870   4.227 -1.3527 -1.5539  2.6223
  173DOPC   C3621137   1.146   3.022   4.380  0.6107 -0.2384 -0.1755
  173DOPC   H6X21138   1.241   3.061   4.423  0.2954  1.2250 -0.7510
  173DOPC   H6Y21139   1.077   3.100   4.340  1.4358  0.1630 -0.8655
  173DOPC   C3721140   1.072   2.937   4.491  0.1351 -0.2334  0.7260
  173DOPC   H7X21141   0.979   2.895   4.447  0.9283 -0.4257 -0.8614
  173DOPC   H7Y21142   1.148   2.856   4.501 -1.9472 -2.3264  0.5867
  173DOPC   C3821143   1.037   3.014   4.618 -1.0590 -0.3226  0.2495
  173DOPC   H8X21144   0.964   2.950   4.671  0.0162 -1.0149  0.9362
  173DOPC   H8Y21145   0.989   3.114   4.613  2.2450  1.4957  1.2104
  173DOPC   C3921146   1.163   3.029   4.699 -0.0655  0.3327 -0.2711
  173DOPC   H9X21147   1.253   3.045   4.638  0.6766 -0.7708  0.4994
  173DOPC  C31021148   1.168   3.069   4.830  0.2631 -0.2303 -0.5214
  173DOPC  H10X21149   1.265   3.062   4.880  0.3826 -3.3147 -1.0014
  173DOPC  C31121150   1.048   3.104   4.921 -0.5617 -0.0944  0.3022
  173DOPC  H11X21151   0.957   3.123   4.859 -1.0232  1.2656  1.3410
  173DOPC  H11Y21152   1.062   3.199   4.976 -1.3661 -1.0472  2.2269
  173DOPC  C31221153   1.006   2.996   5.021 -0.1941 -0.1285 -0.1059
  173DOPC  H12X21154   1.086   2.997   5.099 -2.4315  0.4404  2.3232
  173DOPC  H12Y21155   1.004   2.898   4.969 -0.5432  0.2923 -0.9062
  173DOPC  C31321156   0.878   3.030   5.105  0.4407  0.0675 -0.2773
  173DOPC  H13X21157   0.884   3.129   5.155  0.2367  0.6020 -1.2956
  173DOPC  H13Y21158   0.798   3.047   5.030  2.6788 -2.0703 -3.4178
  173DOPC  C31421159   0.853   2.926   5.217  0.8187  0.1210 -0.4939
  173DOPC  H14X21160   0.844   2.826   5.170  0.8689 -0.3668  0.4978
  173DOPC  H14Y21161   0.940   2.917   5.286  0.5578  2.4336  0.2119
  173DOPC  C31521162   0.722   2.947   5.291  0.9425 -0.1211  0.2602
  173DOPC  H15X21163   0.715   3.058   5.292 -1.7509 -0.2110  0.2773
  173DOPC  H15Y21164   0.725   2.903   5.393 -1.0793 -0.8159  0.0675
  173DOPC  C31621165   0.595   2.899   5.219 -0.0210  0.1151  0.3483
  173DOPC  H16X21166   0.593   2.950   5.120  0.3746  0.8670  0.7181
  173DOPC  H16Y21167   0.617   2.792   5.198 -0.4661 -0.2119  1.5081
  173DOPC  C31721168   0.463   2.909   5.292  1.0309 -0.3271 -0.3197
  173DOPC  H17X21169   0.437   3.010   5.330 -1.7493 -1.7155  1.8218
  173DOPC  H17Y21170   0.379   2.876   5.227 -0.0522 -0.8042  1.2551
  173DOPC  C31821171   0.458   2.824   5.424 -0.0356  0.0151  0.6839
  173DOPC  H18X21172   0.493   2.721   5.402 -0.4214 -0.0364  0.3038
  173DOPC  H18Y21173   0.522   2.873   5.501  0.7746 -0.6805  0.4671
  173DOPC  H18Z21174   0.352   2.823   5.458 -0.3782  3.1479  0.0042
  174DOPC     N21175   4.702   1.868   2.647 -0.3062  0.6109  0.1259
  174DOPC   C1221176   4.659   1.899   2.783 -0.0564 -0.6992  0.3363
  174DOPC  H12A21177   4.610   1.807   2.811 -1.8643 -0.3227 -1.3263
  174DOPC  H12B21178   4.578   1.971   2.787  0.4660 -0.0902  0.1896
  174DOPC   C1321179   4.743   1.991   2.580 -0.5964  0.4503 -0.0410
  174DOPC  H13A21180   4.824   2.048   2.624 -1.6430  1.3409  0.7746
  174DOPC  H13B21181   4.774   1.977   2.478  0.2750  1.0365  0.1355
  174DOPC  H13C21182   4.655   2.053   2.574 -2.1200 -1.2219  2.8627
  174DOPC   C1421183   4.593   1.798   2.569 -0.9185 -0.3807  0.0789
  174DOPC  H14A21184   4.614   1.766   2.467  1.7957 -0.7096  0.6476
  174DOPC  H14B21185   4.558   1.715   2.629  0.4839  0.3770  2.0292
  174DOPC  H14C21186   4.511   1.868   2.564  1.5329  2.6250 -1.9914
  174DOPC   C1521187   4.820   1.783   2.642  0.3108 -0.5494 -0.0443
  174DOPC  H15A21188   4.854   1.759   2.542 -1.5617 -0.3077 -0.7959
  174DOPC  H15B21189   4.802   1.689   2.692  0.5961 -0.9568 -0.6983
  174DOPC  H15C21190   4.903   1.837   2.685 -0.7092  1.0351  0.0138
  174DOPC   C1121191   4.756   1.950   2.891 -0.1300  0.8323  0.0545
  174DOPC  H11A21192   4.808   2.043   2.861 -0.7534  0.9950 -0.5690
  174DOPC  H11B21193   4.701   1.986   2.980  0.2027 -0.5546  0.8449
  174DOPC     P21194   4.811   1.733   3.028  0.1632  0.3541 -0.4506
  174DOPC   O1321195   4.919   1.632   3.038  0.1981  0.2601 -0.4534
  174DOPC   O1421196   4.685   1.677   2.973  0.1310 -0.3624 -0.0891
  174DOPC   O1221197   4.849   1.850   2.937  0.0108  0.1565  0.0731
  174DOPC   O1121198   4.785   1.798   3.163  0.2865 -0.2652 -0.8948
  174DOPC    C121199   4.804   1.735   3.285  0.0828 -0.1245 -0.8434
  174DOPC    HA21200   4.889   1.663   3.288 -1.2237 -1.6707  0.3788
  174DOPC    HB21201   4.714   1.675   3.310  0.4204 -0.9664 -1.6079
  174DOPC    C221202   4.839   1.842   3.395 -0.0675 -0.1583  0.5572
  174DOPC    HS21203   4.831   1.793   3.495 -1.6073  0.8369  0.9550
  174DOPC   O2121204   4.755   1.958   3.392  0.0270  0.4538 -0.7758
  174DOPC   C2121205   4.619   1.929   3.412 -0.3380  0.2326  0.5462
  174DOPC   O2221206   4.572   1.823   3.442 -0.1457  0.0492  0.8863
  174DOPC   C2221207   4.550   2.069   3.402  0.2726 -0.2651 -0.2243
  174DOPC   H2R21208   4.440   2.060   3.414  0.1464  2.6828  1.8859
  174DOPC   H2S21209   4.575   2.117   3.305 -0.1313 -0.7711 -0.5854
  174DOPC    C321210   4.994   1.880   3.372 -0.5376  0.5526 -0.0920
  174DOPC    HX21211   5.011   1.893   3.263  0.9557  1.6679  0.2345
  174DOPC    HY21212   5.052   1.792   3.409 -1.9016 -0.3110  0.0405
  174DOPC   O3121213   5.021   2.001   3.440 -0.9816 -0.4393  0.2844
  174DOPC   C3121214   5.046   1.996   3.564 -0.9367 -0.0453 -0.4799
  174DOPC   O3221215   5.048   1.895   3.635  0.0484  0.1842  0.0903
  174DOPC   C3221216   5.053   2.137   3.625 -0.0790  0.2814  0.2500
  174DOPC   H2X21217   5.122   2.204   3.570  2.3291 -0.7373  1.8689
  174DOPC   H2Y21218   4.946   2.164   3.612 -0.2072 -0.4134 -0.1897
  174DOPC   C2321219   4.597   2.164   3.513  0.2039 -1.3043 -0.0725
  174DOPC   H3R21220   4.542   2.260   3.499  0.3197 -1.3527 -0.9390
  174DOPC   H3S21221   4.705   2.189   3.506 -0.2002  1.0382  1.0183
  174DOPC   C2421222   4.569   2.127   3.655 -0.0596  0.4992 -0.5421
  174DOPC   H4R21223   4.575   2.023   3.692  0.4889 -0.1530 -2.3765
  174DOPC   H4S21224   4.467   2.164   3.678 -1.3601 -0.7461 -3.7241
  174DOPC   C2521225   4.651   2.223   3.745 -0.0898 -0.0922  0.3998
  174DOPC   H5R21226   4.619   2.323   3.712 -1.8989 -0.6492  0.3669
  174DOPC   H5S21227   4.759   2.212   3.723 -0.1963  1.8635 -1.4149
  174DOPC   C2621228   4.613   2.202   3.893 -0.4193 -0.1731  0.5258
  174DOPC   H6R21229   4.623   2.094   3.912  0.7254 -0.6403 -2.1475
  174DOPC   H6S21230   4.508   2.232   3.914 -0.0660  1.4569  0.1273
  174DOPC   C2721231   4.705   2.291   3.983 -0.4095 -0.4322  0.2913
  174DOPC   H7R21232   4.688   2.398   3.958 -0.1576 -0.3668  0.3919
  174DOPC   H7S21233   4.808   2.261   3.956 -0.6750 -0.0121 -1.2552
  174DOPC   C2821234   4.683   2.288   4.130  0.1952 -0.2765 -0.1429
  174DOPC   H8R21235   4.760   2.349   4.182 -1.2642  3.3856 -1.9549
  174DOPC   H8S21236   4.701   2.186   4.172 -0.2187 -0.0858  0.5135
  174DOPC   C2921237   4.546   2.326   4.170  0.3670  0.4969 -0.2691
  174DOPC   H9R21238   4.488   2.242   4.210 -0.2666  0.7896 -0.5693
  174DOPC  C21021239   4.480   2.442   4.170  0.2388 -0.5649  0.0012
  174DOPC  H10R21240   4.377   2.446   4.207  0.2741 -1.5664  0.2160
  174DOPC  C21121241   4.552   2.563   4.131 -0.3323 -0.4565  0.0331
  174DOPC  H11R21242   4.507   2.600   4.037  1.4299 -3.2468 -2.0478
  174DOPC  H11S21243   4.662   2.551   4.118 -0.2588 -0.2269  0.4202
  174DOPC  C21221244   4.532   2.675   4.239  0.0656 -0.1798 -0.2722
  174DOPC  H12R21245   4.598   2.653   4.325  1.3213  1.4377 -0.7701
  174DOPC  H12S21246   4.428   2.667   4.278  1.3018 -2.6818  2.8333
  174DOPC  C21321247   4.545   2.817   4.182 -0.2277 -0.6050 -0.2613
  174DOPC  H13R21248   4.459   2.833   4.114 -0.6570 -0.8382  0.2181
  174DOPC  H13S21249   4.633   2.834   4.117  1.7746 -1.5042  2.0360
  174DOPC  C21421250   4.532   2.924   4.293 -0.4307  0.8137 -0.2252
  174DOPC  H14R21251   4.631   2.921   4.343  0.5619 -1.5279 -2.1382
  174DOPC  H14S21252   4.454   2.895   4.367 -0.0612 -1.6332 -0.6999
  174DOPC  C21521253   4.495   3.070   4.246 -0.3582  0.2005  0.0303
  174DOPC  H15R21254   4.577   3.106   4.181  0.7506  0.0988  1.3179
  174DOPC  H15S21255   4.494   3.130   4.340 -0.5168 -1.6193  1.2330
  174DOPC  C21621256   4.355   3.082   4.193  0.4557  0.4119  0.4159
  174DOPC  H16R21257   4.287   3.019   4.255  0.9197  0.9463  1.4840
  174DOPC  H16S21258   4.362   3.035   4.092  0.2995  1.7974 -0.2551
  174DOPC  C21721259   4.312   3.228   4.171  0.2293  0.5844  0.5540
  174DOPC  H17R21260   4.291   3.274   4.270 -1.6000 -1.7410  1.3254
  174DOPC  H17S21261   4.219   3.237   4.111  0.8056  0.7126 -0.3491
  174DOPC  C21821262   4.418   3.312   4.102 -0.0064  0.0046 -0.1262
  174DOPC  H18R21263   4.492   3.338   4.180  1.0631 -2.0782 -0.3446
  174DOPC  H18S21264   4.362   3.403   4.073 -0.5860 -0.0343  0.8533
  174DOPC  H18T21265   4.483   3.269   4.022  1.1151 -0.9861  1.2543
  174DOPC   C3321266   5.086   2.131   3.778  0.3423  0.0885  0.7672
  174DOPC   H3X21267   5.182   2.075   3.780  0.0440 -0.4759 -0.0355
  174DOPC   H3Y21268   5.006   2.072   3.827  0.0319 -0.2501 -0.1212
  174DOPC   C3421269   5.098   2.266   3.848  0.1191  0.0525  1.0320
  174DOPC   H4X21270   5.023   2.345   3.826 -0.6063 -0.9800 -0.3538
  174DOPC   H4Y21271   5.199   2.305   3.823 -1.0068  2.3121 -0.2130
  174DOPC   C3521272   5.088   2.251   4.002 -0.0858 -0.3583 -0.1372
  174DOPC   H5X21273   5.176   2.192   4.035  1.3477  1.5976 -0.2633
  174DOPC   H5Y21274   5.000   2.197   4.041  0.5335 -0.5064  1.1039
  174DOPC   C3621275   5.095   2.388   4.063 -0.1198 -0.7745 -0.7515
  174DOPC   H6X21276   5.170   2.447   4.007 -3.1874  1.5363 -2.8010
  174DOPC   H6Y21277   4.995   2.434   4.044 -0.5162 -1.6390 -0.8252
  174DOPC   C3721278   5.116   2.386   4.216 -0.1933  0.4184 -0.2156
  174DOPC   H7X21279   5.058   2.298   4.252 -0.3833  1.0293  1.0251
  174DOPC   H7Y21280   5.224   2.373   4.237 -0.7591 -0.4371  2.6641
  174DOPC   C3821281   5.068   2.511   4.286  0.4589  0.9108 -0.0861
  174DOPC   H8X21282   4.963   2.525   4.251  0.3593 -0.9552 -0.6491
  174DOPC   H8Y21283   5.121   2.600   4.246  0.3695  0.2572 -1.7569
  174DOPC   C3921284   5.077   2.469   4.432 -1.3813  0.3346 -0.5345
  174DOPC   H9X21285   5.178   2.471   4.476 -2.3752  2.3599  1.8546
  174DOPC  C31021286   4.981   2.425   4.519  0.8745  0.3159 -1.2227
  174DOPC  H10X21287   5.014   2.363   4.603 -1.7192 -0.3605 -0.5997
  174DOPC  C31121288   4.837   2.411   4.484  1.4046  0.1039  0.9878
  174DOPC  H11X21289   4.816   2.303   4.464  2.1184  0.2211 -0.4708
  174DOPC  H11Y21290   4.797   2.462   4.394 -0.3179 -1.2447  0.9303
  174DOPC  C31221291   4.733   2.447   4.598 -0.3549  0.4906  0.3005
  174DOPC  H12X21292   4.745   2.386   4.690  0.6159 -1.0381 -0.7836
  174DOPC  H12Y21293   4.641   2.417   4.544 -0.3050  2.0134 -0.7032
  174DOPC  C31321294   4.724   2.597   4.632 -0.2467  0.7588  0.4765
  174DOPC  H13X21295   4.775   2.654   4.551  0.5347  1.0151  1.1371
  174DOPC  H13Y21296   4.618   2.628   4.639 -0.4599  1.0621 -2.6080
  174DOPC  C31421297   4.808   2.640   4.757 -0.4061 -0.0781 -0.3505
  174DOPC  H14X21298   4.794   2.570   4.841 -0.3892  1.6050  1.1126
  174DOPC  H14Y21299   4.918   2.646   4.738  0.0029 -2.7650  0.8296
  174DOPC  C31521300   4.782   2.783   4.805 -0.0468 -0.0869 -0.1268
  174DOPC  H15X21301   4.820   2.849   4.725  2.0873 -1.2126 -0.1075
  174DOPC  H15Y21302   4.846   2.816   4.889  0.5722  0.5904 -0.8492
  174DOPC  C31621303   4.634   2.821   4.827 -0.0495  0.6166  0.6780
  174DOPC  H16X21304   4.562   2.792   4.748 -2.6131  0.1375  3.0297
  174DOPC  H16Y21305   4.590   2.760   4.909 -1.1005  2.1952  1.3489
  174DOPC  C31721306   4.601   2.971   4.854 -0.2574 -0.1831 -0.4565
  174DOPC  H17X21307   4.633   2.989   4.958 -3.0522 -0.3164  0.5141
  174DOPC  H17Y21308   4.668   3.029   4.787  1.4414 -3.0477 -1.4189
  174DOPC  C31821309   4.461   3.020   4.861  0.6194 -0.5707 -0.3551
  174DOPC  H18X21310   4.411   3.028   4.762 -1.8292 -1.3083  0.7441
  174DOPC  H18Y21311   4.394   2.966   4.931  0.1710  0.3644 -0.0442
  174DOPC  H18Z21312   4.466   3.123   4.903 -5.3176  0.7354 -1.9749
  175DOPC     N21313   2.272   6.267   2.930  0.6753  0.4692  0.0085
  175DOPC   C1221314   2.140   6.337   2.894 -0.1590  0.2200 -0.3185
  175DOPC  H12A21315   2.117   6.307   2.793 -1.7684  0.3088 -0.0045
  175DOPC  H12B21316   2.163   6.440   2.871  0.5190 -0.0595 -0.9605
  175DOPC   C1321317   2.383   6.331   2.852  0.1945  0.2776  0.3544
  175DOPC  H13A21318   2.354   6.317   2.749 -0.2132  0.7739  0.4005
  175DOPC  H13B21319   2.394   6.439   2.854  0.3072  0.3012 -0.8399
  175DOPC  H13C21320   2.479   6.289   2.878 -0.2526 -2.5972 -2.1655
  175DOPC   C1421321   2.279   6.125   2.885 -0.2594 -0.4601 -0.3382
  175DOPC  H14A21322   2.367   6.081   2.930  0.5814  3.6473  2.7012
  175DOPC  H14B21323   2.195   6.075   2.931  0.3759 -0.2015  1.1687
  175DOPC  H14C21324   2.288   6.111   2.778 -0.9129 -1.3847 -0.2832
  175DOPC   C1521325   2.310   6.267   3.069  0.2520  0.4482 -0.7327
  175DOPC  H15A21326   2.351   6.361   3.102 -1.9883  1.1230  0.3070
  175DOPC  H15B21327   2.383   6.190   3.087  0.2815  0.7659  0.5852
  175DOPC  H15C21328   2.220   6.244   3.123 -0.1269  0.6913 -1.2488
  175DOPC   C1121329   2.017   6.313   2.986 -0.2817  0.5948 -0.1648
  175DOPC  H11A21330   2.036   6.331   3.094  2.6114  2.7741 -0.9024
  175DOPC  H11B21331   1.939   6.386   2.954 -1.0920 -0.2580 -0.1679
  175DOPC     P21332   1.917   6.091   3.066  0.3953 -0.2755  0.1311
  175DOPC   O1321333   1.888   5.960   3.004 -0.1000  0.2842  0.0587
  175DOPC   O1421334   1.799   6.165   3.118 -0.2343  0.4707  0.1541
  175DOPC   O1221335   1.976   6.179   2.952 -0.6435 -0.2506 -0.2317
  175DOPC   O1121336   2.030   6.080   3.174  0.0226  0.3077  0.3957
  175DOPC    C121337   2.121   5.965   3.172 -0.0912 -0.5414 -0.9001
  175DOPC    HA21338   2.223   6.008   3.164  0.0566 -0.6015  0.5120
  175DOPC    HB21339   2.119   5.902   3.081  1.9519 -0.1178 -1.2870
  175DOPC    C221340   2.111   5.891   3.307  0.1720 -0.6475  0.2160
  175DOPC    HS21341   2.008   5.849   3.302 -0.1524  0.2126 -0.5167
  175DOPC   O2121342   2.147   5.987   3.407 -0.7250  0.4136 -0.1585
  175DOPC   C2121343   2.053   6.006   3.492  0.3797  0.4269  0.3268
  175DOPC   O2221344   1.938   5.957   3.490 -0.0919 -0.1593  0.2670
  175DOPC   C2221345   2.110   6.080   3.614  0.0608 -0.0585 -0.6430
  175DOPC   H2R21346   2.028   6.147   3.649 -0.9901 -2.2100  1.2930
  175DOPC   H2S21347   2.199   6.133   3.573  0.1655  0.4508  0.2218
  175DOPC    C321348   2.213   5.773   3.313 -0.2596 -0.0024 -0.0134
  175DOPC    HX21349   2.312   5.823   3.303 -0.3021  0.7203  2.5085
  175DOPC    HY21350   2.200   5.717   3.217  1.0803  1.9046 -1.3827
  175DOPC   O3121351   2.202   5.700   3.438 -0.2497 -0.3112 -0.1670
  175DOPC   C3121352   2.177   5.566   3.434  0.2742 -0.8847  0.4117
  175DOPC   O3221353   2.170   5.502   3.332  0.2472  0.2068  0.2642
  175DOPC   C3221354   2.183   5.508   3.579  1.0919 -0.1773 -0.4615
  175DOPC   H2X21355   2.126   5.413   3.571  0.2200  0.3856 -0.9963
  175DOPC   H2Y21356   2.291   5.486   3.596  1.6151  1.9092 -0.7753
  175DOPC   C2321357   2.139   5.981   3.723 -0.1721  0.3561 -0.3847
  175DOPC   H3R21358   2.196   5.904   3.667 -1.1438 -0.2689 -0.5337
  175DOPC   H3S21359   2.060   5.921   3.773 -0.6964  2.3523  1.3605
  175DOPC   C2421360   2.233   6.050   3.830  0.1612  0.0723 -0.2709
  175DOPC   H4R21361   2.172   6.119   3.892  0.5845 -0.2144  0.4865
  175DOPC   H4S21362   2.316   6.105   3.781 -1.1207  2.1340 -0.2252
  175DOPC   C2521363   2.299   5.947   3.921 -0.3765 -0.0124 -0.3105
  175DOPC   H5R21364   2.359   5.881   3.855  1.3030  0.4704  0.6662
  175DOPC   H5S21365   2.230   5.883   3.980  2.6989 -0.8781  2.6627
  175DOPC   C2621366   2.394   6.020   4.028  0.6903  1.1199  0.2881
  175DOPC   H6R21367   2.336   6.090   4.092 -0.3723 -0.3118  0.9586
  175DOPC   H6S21368   2.465   6.085   3.971  1.0134  2.0784  1.7200
  175DOPC   C2721369   2.469   5.910   4.101 -0.0994  0.6182 -0.1841
  175DOPC   H7R21370   2.565   5.901   4.045  0.2269  1.3904  0.2307
  175DOPC   H7S21371   2.406   5.820   4.112  0.1174  0.5912  0.9814
  175DOPC   C2821372   2.519   5.946   4.246 -0.3228  0.3191 -0.0878
  175DOPC   H8R21373   2.426   5.942   4.306 -0.6348 -1.3282 -0.6205
  175DOPC   H8S21374   2.545   6.054   4.241  0.2586  0.1792 -0.2007
  175DOPC   C2921375   2.627   5.839   4.293  0.5273  0.7505 -0.7725
  175DOPC   H9R21376   2.721   5.824   4.239 -0.3617  0.0403 -2.2058
  175DOPC  C21021377   2.610   5.756   4.399 -0.0437  0.1074  0.0290
  175DOPC  H10R21378   2.684   5.677   4.421  0.1060  0.3406  0.3684
  175DOPC  C21121379   2.490   5.747   4.488  0.1960 -0.2199 -0.4227
  175DOPC  H11R21380   2.405   5.689   4.447  0.4698  0.5540 -2.1773
  175DOPC  H11S21381   2.447   5.849   4.495 -1.0193 -0.6546 -1.2242
  175DOPC  C21221382   2.537   5.693   4.620  0.6882 -0.3530 -0.2159
  175DOPC  H12R21383   2.612   5.762   4.665 -2.2521  2.0534  1.3995
  175DOPC  H12S21384   2.587   5.595   4.608  2.3926  0.3676  0.5343
  175DOPC  C21321385   2.421   5.674   4.721 -0.3479  0.6508  0.0697
  175DOPC  H13R21386   2.341   5.599   4.703 -0.4909 -0.1415  3.4849
  175DOPC  H13S21387   2.365   5.770   4.734 -2.3146 -0.5256  0.7526
  175DOPC  C21421388   2.485   5.622   4.858  0.1942 -0.1590 -1.0576
  175DOPC  H14R21389   2.543   5.708   4.898  0.1040 -0.4157 -0.3561
  175DOPC  H14S21390   2.553   5.534   4.847 -1.1097 -1.4411  0.6780
  175DOPC  C21521391   2.374   5.569   4.951  0.1797  0.7685  0.0941
  175DOPC  H15R21392   2.343   5.470   4.911  0.8763 -0.1567  1.7369
  175DOPC  H15S21393   2.282   5.632   4.959 -0.3790 -0.2470  3.3727
  175DOPC  C21621394   2.424   5.533   5.099  0.4835  0.4281  0.2950
  175DOPC  H16R21395   2.505   5.457   5.090 -1.3752 -1.3609 -4.8549
  175DOPC  H16S21396   2.349   5.473   5.154 -0.1292  0.0849 -0.9032
  175DOPC  C21721397   2.460   5.660   5.180 -0.0184 -0.2774 -0.3672
  175DOPC  H17R21398   2.369   5.720   5.203  1.2177  1.5592  0.0215
  175DOPC  H17S21399   2.536   5.722   5.127  0.3700  1.9999  2.5874
  175DOPC  C21821400   2.520   5.623   5.318 -0.1263  0.4091  0.2213
  175DOPC  H18R21401   2.446   5.584   5.391 -1.1361  0.4971 -0.7230
  175DOPC  H18S21402   2.571   5.709   5.366  1.8517 -2.3831  3.5364
  175DOPC  H18T21403   2.604   5.552   5.305  0.4100  0.7313  1.7676
  175DOPC   C3321404   2.127   5.598   3.699  0.0032  0.2047 -0.3673
  175DOPC   H3X21405   2.016   5.592   3.697 -0.1361  2.1728 -1.5162
  175DOPC   H3Y21406   2.162   5.703   3.687 -0.1005  0.1610 -1.1191
  175DOPC   C3421407   2.182   5.560   3.842  0.1533 -0.7258 -0.1624
  175DOPC   H4X21408   2.130   5.471   3.884 -4.7197  2.2033  0.8111
  175DOPC   H4Y21409   2.153   5.642   3.912  1.0880 -1.3051  0.9428
  175DOPC   C3521410   2.328   5.547   3.854 -0.2207 -0.0677  0.5635
  175DOPC   H5X21411   2.378   5.640   3.820 -1.2102  0.5243  0.7053
  175DOPC   H5Y21412   2.358   5.463   3.788 -1.7591 -1.2920  1.3505
  175DOPC   C3621413   2.376   5.510   3.998  0.1089  0.3529 -0.5427
  175DOPC   H6X21414   2.323   5.573   4.073 -0.1556 -0.0465 -0.3872
  175DOPC   H6Y21415   2.339   5.406   4.006 -0.3767  0.5731  0.1333
  175DOPC   C3721416   2.530   5.504   4.014  0.2194  0.4122  0.0649
  175DOPC   H7X21417   2.582   5.426   3.953 -1.1446 -0.7667  0.3513
  175DOPC   H7Y21418   2.563   5.602   3.972 -1.3023  0.6457 -0.6454
  175DOPC   C3821419   2.561   5.479   4.161 -0.1887  0.6885  0.1360
  175DOPC   H8X21420   2.518   5.380   4.187  0.2899 -0.3417 -2.6132
  175DOPC   H8Y21421   2.497   5.544   4.224 -0.4681 -1.2280  1.9173
  175DOPC   C3921422   2.706   5.486   4.186  0.7239 -0.6936 -0.3249
  175DOPC   H9X21423   2.748   5.587   4.174  0.7483 -0.6637  0.0105
  175DOPC  C31021424   2.787   5.394   4.239 -0.7008 -0.3018 -0.9912
  175DOPC  H10X21425   2.894   5.416   4.235 -0.7754  0.1601 -0.5987
  175DOPC  C31121426   2.760   5.250   4.286  0.1893 -0.4546 -0.0672
  175DOPC  H11X21427   2.675   5.240   4.358 -0.6895 -0.9009 -1.1450
  175DOPC  H11Y21428   2.848   5.227   4.349  1.0639  1.0874 -0.6812
  175DOPC  C31221429   2.752   5.146   4.173 -0.4145 -0.3305  0.1471
  175DOPC  H12X21430   2.838   5.161   4.104  0.2570  1.8238  1.3465
  175DOPC  H12Y21431   2.651   5.155   4.129 -0.8728  0.2317  1.2569
  175DOPC  C31321432   2.769   5.006   4.236 -0.1630 -0.1290 -0.0054
  175DOPC  H13X21433   2.770   4.923   4.162  2.2483 -0.6760  0.5436
  175DOPC  H13Y21434   2.862   5.003   4.297  0.0891  0.8878 -0.3078
  175DOPC  C31421435   2.646   4.968   4.311 -0.5674 -0.2054  0.0497
  175DOPC  H14X21436   2.663   5.003   4.416 -0.1945  1.2896 -0.4886
  175DOPC  H14Y21437   2.549   5.010   4.278 -1.2037 -1.9643 -0.4172
  175DOPC  C31521438   2.609   4.821   4.313  0.3330 -0.1891  0.3311
  175DOPC  H15X21439   2.686   4.760   4.365 -0.3952 -2.3830 -1.0377
  175DOPC  H15Y21440   2.607   4.774   4.212 -0.2184 -0.8658  0.6498
  175DOPC  C31621441   2.479   4.786   4.379  0.3252  0.1139 -0.2518
  175DOPC  H16X21442   2.385   4.814   4.325 -0.3415 -0.2711  0.6712
  175DOPC  H16Y21443   2.470   4.676   4.388 -0.4669  0.2516  0.8298
  175DOPC  C31721444   2.463   4.848   4.522 -0.0868 -0.1872  0.1011
  175DOPC  H17X21445   2.558   4.828   4.576  0.2683  2.5181  0.6585
  175DOPC  H17Y21446   2.463   4.959   4.509  1.2451 -0.2925 -0.9136
  175DOPC  C31821447   2.344   4.796   4.600 -0.2484 -0.0338 -0.5089
  175DOPC  H18X21448   2.336   4.686   4.587 -2.4301  0.3218 -3.4529
  175DOPC  H18Y21449   2.344   4.828   4.706  2.6949  2.7018 -1.1882
  175DOPC  H18Z21450   2.257   4.837   4.543  0.4143 -0.5777 -1.9432
  176DOPC     N21451   2.751   1.189   2.705  0.3395 -0.0386  0.6054
  176DOPC   C1221452   2.711   1.093   2.816 -0.1386 -0.3508  0.0620
  176DOPC  H12A21453   2.759   0.999   2.794 -0.8636 -0.2831 -1.9575
  176DOPC  H12B21454   2.605   1.077   2.810 -0.1396  0.2561 -2.6215
  176DOPC   C1321455   2.667   1.310   2.706 -0.0165 -0.4598  0.1346
  176DOPC  H13A21456   2.567   1.288   2.671 -0.5577  0.3745  1.1063
  176DOPC  H13B21457   2.662   1.349   2.806 -1.1064  2.1598 -0.8485
  176DOPC  H13C21458   2.692   1.381   2.628  0.4992 -3.0482 -2.2233
  176DOPC   C1421459   2.731   1.129   2.569 -0.0980 -0.9647 -0.0910
  176DOPC  H14A21460   2.653   1.054   2.568  1.2816 -2.4751  0.5782
  176DOPC  H14B21461   2.705   1.202   2.494  0.5900  0.8401  1.3561
  176DOPC  H14C21462   2.822   1.075   2.550 -0.2446 -1.5044  0.6845
  176DOPC   C1521463   2.888   1.241   2.719 -0.1247 -0.2817  0.0813
  176DOPC  H15A21464   2.916   1.304   2.635  0.1685 -0.3457  0.1304
  176DOPC  H15B21465   2.964   1.166   2.733  0.0588 -0.5581 -1.9983
  176DOPC  H15C21466   2.888   1.300   2.809  1.0234  2.4721 -1.6107
  176DOPC   C1121467   2.749   1.135   2.956  0.1464  0.6685 -0.0491
  176DOPC  H11A21468   2.733   1.048   3.023  0.7473  2.1044  2.0823
  176DOPC  H11B21469   2.857   1.157   2.973  0.3600 -0.1437 -0.2960
  176DOPC     P21470   2.723   1.355   3.080 -0.4084 -0.4139  0.6024
  176DOPC   O1321471   2.628   1.466   3.073 -0.2969  0.4722  0.3373
  176DOPC   O1421472   2.860   1.377   3.036 -0.2872  0.5474 -0.0981
  176DOPC   O1221473   2.658   1.239   2.998  0.2980  0.3290  0.1411
  176DOPC   O1121474   2.735   1.298   3.221 -0.3467 -0.4811 -0.0824
  176DOPC    C121475   2.627   1.225   3.279 -0.5237  0.3185  0.0020
  176DOPC    HA21476   2.680   1.150   3.343  1.8998  0.7700 -1.3281
  176DOPC    HB21477   2.572   1.171   3.199  0.0064  0.9495 -0.8018
  176DOPC    C221478   2.518   1.315   3.338 -0.2885 -0.5088  0.1056
  176DOPC    HS21479   2.495   1.400   3.270  0.3916 -0.2452  0.2029
  176DOPC   O2121480   2.573   1.374   3.460  0.2446  0.6737 -0.0278
  176DOPC   C2121481   2.519   1.483   3.509  0.8295 -0.3694 -0.1629
  176DOPC   O2221482   2.423   1.545   3.467  0.2964 -0.5514 -0.1127
  176DOPC   C2221483   2.593   1.507   3.642  0.8185  0.1374  0.2113
  176DOPC   H2R21484   2.701   1.525   3.631  0.8318 -0.3836 -0.5941
  176DOPC   H2S21485   2.570   1.412   3.695 -1.4491 -1.0576 -2.5909
  176DOPC    C321486   2.391   1.235   3.373 -0.1008  0.2475  0.0516
  176DOPC    HX21487   2.347   1.214   3.273 -0.3150  1.5022 -0.1313
  176DOPC    HY21488   2.327   1.300   3.436 -0.6693 -0.7508  0.5443
  176DOPC   O3121489   2.430   1.111   3.444 -0.0355 -0.1503  0.7532
  176DOPC   C3121490   2.333   1.023   3.441 -0.8919 -1.1100  0.1255
  176DOPC   O3221491   2.219   1.035   3.393  0.0481 -0.0835 -0.5348
  176DOPC   C3221492   2.391   0.890   3.496 -0.5691  1.1072 -0.5323
  176DOPC   H2X21493   2.308   0.835   3.546  2.7379 -1.3748  2.7450
  176DOPC   H2Y21494   2.439   0.824   3.421  0.8659  0.3887  0.9568
  176DOPC   C2321495   2.537   1.630   3.729  0.2635 -0.4045  0.1471
  176DOPC   H3R21496   2.426   1.627   3.727  0.2527  0.0244 -0.0845
  176DOPC   H3S21497   2.553   1.725   3.674 -0.0156 -0.0448  0.6769
  176DOPC   C2421498   2.599   1.631   3.871  0.7240  0.3625  0.6519
  176DOPC   H4R21499   2.577   1.527   3.903 -1.3361  0.2754 -0.8116
  176DOPC   H4S21500   2.548   1.708   3.933 -0.0160 -0.7509  1.4654
  176DOPC   C2521501   2.749   1.656   3.880  0.1146 -0.1012 -0.0876
  176DOPC   H5R21502   2.754   1.764   3.850 -0.2003  0.2358  1.0443
  176DOPC   H5S21503   2.802   1.600   3.800  0.3814 -0.7096  0.5094
  176DOPC   C2621504   2.821   1.641   4.015  1.1598  0.2634  0.7758
  176DOPC   H6R21505   2.743   1.683   4.081  0.0261 -0.0219 -0.3405
  176DOPC   H6S21506   2.913   1.704   4.020 -0.4705  3.0390 -1.1445
  176DOPC   C2721507   2.848   1.488   4.051 -0.1004  0.4942  0.0456
  176DOPC   H7R21508   2.899   1.426   3.974 -0.9827 -0.1141 -0.0682
  176DOPC   H7S21509   2.748   1.439   4.053  0.6038 -1.1136 -1.4090
  176DOPC   C2821510   2.923   1.473   4.181 -1.0460  0.3503 -0.1912
  176DOPC   H8R21511   2.998   1.555   4.179 -1.1107  0.4699  1.3749
  176DOPC   H8S21512   2.983   1.380   4.175  0.5862  1.4487 -2.6185
  176DOPC   C2921513   2.842   1.500   4.309 -0.0506 -0.4081  0.1322
  176DOPC   H9R21514   2.762   1.574   4.298  0.4008 -0.2574 -3.2594
  176DOPC  C21021515   2.874   1.442   4.425 -0.3215  0.0044 -0.1689
  176DOPC  H10R21516   2.811   1.470   4.511  1.2918  0.5319  0.8943
  176DOPC  C21121517   2.981   1.343   4.458 -0.1421  0.2704 -0.2123
  176DOPC  H11R21518   3.045   1.313   4.372  0.8297 -0.9334  0.8806
  176DOPC  H11S21519   2.930   1.255   4.503 -2.5143  1.3645 -0.6224
  176DOPC  C21221520   3.082   1.389   4.563  0.4891 -0.4343 -0.4714
  176DOPC  H12R21521   3.121   1.489   4.535  1.5024 -0.7095 -0.0613
  176DOPC  H12S21522   3.159   1.310   4.550  0.6108 -0.3361 -0.3415
  176DOPC  C21321523   3.033   1.390   4.711  0.0437 -0.2160 -0.5636
  176DOPC  H13R21524   2.944   1.456   4.713  0.4052  0.3305 -1.6638
  176DOPC  H13S21525   3.113   1.423   4.782  1.1926  1.9744 -2.7373
  176DOPC  C21421526   2.989   1.256   4.778  0.1328  0.3953  0.1014
  176DOPC  H14R21527   2.937   1.187   4.707 -0.2193  2.5895 -1.9008
  176DOPC  H14S21528   2.924   1.283   4.864  1.3994 -0.9603  1.5544
  176DOPC  C21521529   3.107   1.177   4.845 -0.3105  0.1031 -0.0775
  176DOPC  H15R21530   3.157   1.248   4.914  0.4597 -0.0142 -0.4948
  176DOPC  H15S21531   3.175   1.143   4.763 -0.3188  2.4826 -1.1548
  176DOPC  C21621532   3.061   1.054   4.919 -0.1169  0.1820 -0.4947
  176DOPC  H16R21533   3.009   0.987   4.847 -2.6551  0.6840  0.7271
  176DOPC  H16S21534   2.985   1.086   4.994 -0.2419  0.7260 -0.8514
  176DOPC  C21721535   3.176   0.964   4.964 -0.5252 -0.7400 -1.1263
  176DOPC  H17R21536   3.219   1.030   5.043 -1.8011 -0.3070 -0.7626
  176DOPC  H17S21537   3.246   0.952   4.879 -1.0465  0.8342 -1.8147
  176DOPC  C21821538   3.138   0.846   5.058 -0.4477  0.2102 -0.3766
  176DOPC  H18R21539   3.076   0.881   5.143 -0.5840 -0.0015 -0.3880
  176DOPC  H18S21540   3.223   0.779   5.082 -1.2842 -0.8052 -0.2118
  176DOPC  H18T21541   3.070   0.774   5.008 -1.6388  0.6736  0.5340
  176DOPC   C3321542   2.509   0.904   3.593 -0.2994 -0.6752 -0.2491
  176DOPC   H3X21543   2.455   0.951   3.678  0.0935 -3.1280  1.4920
  176DOPC   H3Y21544   2.593   0.969   3.560 -0.5716  0.3554  0.9864
  176DOPC   C3421545   2.565   0.773   3.641  0.0486 -0.1748  0.3549
  176DOPC   H4X21546   2.594   0.705   3.558  1.1171  0.8388 -0.1251
  176DOPC   H4Y21547   2.483   0.719   3.693  1.6351 -0.9317  2.1976
  176DOPC   C3521548   2.677   0.784   3.746  0.0368  0.1937  0.4812
  176DOPC   H5X21549   2.652   0.861   3.822 -2.0939 -0.8523  0.9315
  176DOPC   H5Y21550   2.764   0.826   3.691  0.1752 -2.2302 -1.3495
  176DOPC   C3621551   2.721   0.648   3.805  0.0480 -0.9499 -0.1449
  176DOPC   H6X21552   2.634   0.617   3.868 -0.0338  1.9970  1.3565
  176DOPC   H6Y21553   2.737   0.575   3.723  1.8379  0.4518 -1.1082
  176DOPC   C3721554   2.850   0.661   3.886 -0.6535  0.0417  0.1586
  176DOPC   H7X21555   2.939   0.661   3.819 -1.2933  0.5317 -0.6914
  176DOPC   H7Y21556   2.862   0.753   3.947  2.7720 -0.3122  0.2620
  176DOPC   C3821557   2.881   0.537   3.973 -0.4738 -0.6725  0.7597
  176DOPC   H8X21558   2.870   0.445   3.911  0.7626  1.0883 -2.2673
  176DOPC   H8Y21559   2.804   0.524   4.052 -2.4867 -1.9130 -1.2857
  176DOPC   C3921560   3.022   0.542   4.036  0.0290  0.2498  0.7924
  176DOPC   H9X21561   3.093   0.608   3.985 -0.5272 -0.6433 -1.2436
  176DOPC  C31021562   3.054   0.490   4.155  0.1480  0.5204  0.0555
  176DOPC  H10X21563   3.154   0.499   4.200 -0.4163 -1.3703  1.8679
  176DOPC  C31121564   2.953   0.417   4.249 -0.2417  0.0041  0.6296
  176DOPC  H11X21565   2.912   0.324   4.203 -1.6452  2.2408 -3.1616
  176DOPC  H11Y21566   2.867   0.479   4.280 -0.1641  1.1594 -1.3242
  176DOPC  C31221567   3.034   0.395   4.375  0.0848  0.0609 -0.1411
  176DOPC  H12X21568   3.041   0.492   4.429  0.8812 -0.6025  1.0094
  176DOPC  H12Y21569   3.130   0.343   4.355 -0.5353 -0.6306 -1.3686
  176DOPC  C31321570   2.974   0.278   4.469 -0.4080 -0.2172 -0.6066
  176DOPC  H13X21571   2.865   0.302   4.477 -0.0878  1.0862  0.1325
  176DOPC  H13Y21572   2.992   0.185   4.411  0.5747  0.0015 -0.6569
  176DOPC  C31421573   3.044   0.274   4.608 -0.3470  0.0259 -0.2547
  176DOPC  H14X21574   3.153   0.260   4.592  0.1832  0.4549  2.4768
  176DOPC  H14Y21575   3.026   0.372   4.658  1.2376 -0.7132  1.8966
  176DOPC  C31521576   2.993   0.155   4.692  0.0098  0.0586  0.4125
  176DOPC  H15X21577   3.014   0.055   4.648  0.2887 -0.5559  1.8828
  176DOPC  H15Y21578   2.883   0.171   4.700 -0.0159 -0.5638  1.4941
  176DOPC  C31621579   3.070   0.138   4.821 -0.4116  0.2814  0.0477
  176DOPC  H16X21580   3.063   0.241   4.861 -1.7879  0.8340 -1.5041
  176DOPC  H16Y21581   3.012   0.076   4.892 -2.9833  1.7251 -0.6477
  176DOPC  C31721582   3.215   0.088   4.806  0.1557  0.2245 -0.3826
  176DOPC  H17X21583   3.207   0.003   4.735  0.8337 -1.6888  1.6999
  176DOPC  H17Y21584   3.270   0.172   4.758  1.2469  2.2312  3.8663
  176DOPC  C31821585   3.279   0.039   4.936  0.0310 -0.4948  0.2893
  176DOPC  H18X21586   3.208  -0.034   4.980 -0.0960  0.7162  2.1803
  176DOPC  H18Y21587   3.374  -0.015   4.919  0.4372  0.4339 -0.5375
  176DOPC  H18Z21588   3.289   0.128   5.002  2.3320 -0.2303 -0.3268
  177DOPC     N21589   5.917   6.556   2.901 -0.0789  0.0909 -0.0306
  177DOPC   C1221590   5.965   6.607   3.037 -0.5268  0.2172 -0.4322
  177DOPC  H12A21591   5.991   6.712   3.025 -0.5768  0.3054  0.2134
  177DOPC  H12B21592   6.050   6.552   3.075 -1.6444 -0.6155  0.9659
  177DOPC   C1321593   6.028   6.574   2.804  0.4244  0.2463 -0.2387
  177DOPC  H13A21594   6.125   6.528   2.814  1.0892  1.1566 -1.9653
  177DOPC  H13B21595   6.000   6.542   2.705  2.1860  0.7574 -0.9376
  177DOPC  H13C21596   6.032   6.681   2.785 -0.3528  0.1365 -1.1462
  177DOPC   C1421597   5.806   6.638   2.848 -0.2460 -0.2353 -0.2072
  177DOPC  H14A21598   5.729   6.645   2.924 -0.3834  0.4036 -0.3929
  177DOPC  H14B21599   5.838   6.741   2.833  0.6876 -0.3488  0.8452
  177DOPC  H14C21600   5.763   6.595   2.759 -0.3382 -2.3403  0.7995
  177DOPC   C1521601   5.875   6.410   2.909  0.1976  0.1596  0.5021
  177DOPC  H15A21602   5.958   6.346   2.937 -0.2263 -0.8270 -0.4209
  177DOPC  H15B21603   5.831   6.372   2.818 -1.6380  0.6853  1.1290
  177DOPC  H15C21604   5.806   6.388   2.989 -0.3760  0.0444 -0.0235
  177DOPC   C1121605   5.871   6.614   3.153  0.1549  0.5146  0.3230
  177DOPC  H11A21606   5.833   6.511   3.169  3.0080 -1.0718 -2.1718
  177DOPC  H11B21607   5.930   6.629   3.246  0.5261  1.1544 -0.0182
  177DOPC     P21608   5.786   6.855   3.144  0.3417 -0.2887 -0.0137
  177DOPC   O1321609   5.653   6.920   3.119  0.3035  0.0064 -0.0256
  177DOPC   O1421610   5.895   6.886   3.043  0.2700 -0.4869  0.4259
  177DOPC   O1221611   5.764   6.699   3.137  0.0332 -0.5781 -0.3193
  177DOPC   O1121612   5.837   6.882   3.286  0.0035 -0.1107 -0.4785
  177DOPC    C121613   5.898   7.008   3.325 -0.8458 -0.0751 -0.1870
  177DOPC    HA21614   5.823   7.070   3.380 -0.8353  1.2527 -1.5998
  177DOPC    HB21615   5.928   7.063   3.233  1.0840 -1.3224 -0.3502
  177DOPC    C221616   6.030   6.994   3.409  0.3837 -0.1437 -0.0545
  177DOPC    HS21617   6.106   6.945   3.346  0.1065 -0.9982  0.2593
  177DOPC   O2121618   5.998   6.928   3.534 -0.1302 -0.9314  0.1361
  177DOPC   C2121619   5.993   6.793   3.520  0.8748  0.2836  0.6007
  177DOPC   O2221620   6.053   6.729   3.436 -0.0433 -0.3000 -0.3828
  177DOPC   C2221621   5.894   6.744   3.624 -0.0417  0.4891 -0.0863
  177DOPC   H2R21622   5.796   6.796   3.633 -1.1774 -1.7892  1.9552
  177DOPC   H2S21623   5.939   6.746   3.725 -0.8492  1.8956  0.2678
  177DOPC    C321624   6.087   7.135   3.440  0.0475  0.0022  0.3296
  177DOPC    HX21625   6.031   7.194   3.517 -1.8583 -0.0348 -0.9552
  177DOPC    HY21626   6.079   7.195   3.347  1.2867 -0.1314  0.1200
  177DOPC   O3121627   6.230   7.106   3.480 -0.1061 -0.0478  0.0699
  177DOPC   C3121628   6.268   7.196   3.571  0.5282 -0.0057 -0.4155
  177DOPC   O3221629   6.233   7.312   3.578 -0.6017  0.1013  0.1118
  177DOPC   C3221630   6.356   7.122   3.673 -0.3705  0.0733  0.1244
  177DOPC   H2X21631   6.443   7.096   3.609 -1.7202 -1.6423 -1.1227
  177DOPC   H2Y21632   6.388   7.199   3.746  0.8651  0.2804 -0.6203
  177DOPC   C2321633   5.859   6.598   3.599  0.1113  0.2829 -0.1581
  177DOPC   H3R21634   5.952   6.538   3.614 -0.4259 -0.9392 -1.5057
  177DOPC   H3S21635   5.818   6.591   3.496 -1.6214 -0.3689  0.5408
  177DOPC   C2421636   5.753   6.553   3.701  1.1288 -0.7376 -0.2077
  177DOPC   H4R21637   5.715   6.452   3.674 -1.8552 -0.3106  1.8977
  177DOPC   H4S21638   5.659   6.611   3.696  0.7947 -1.1962  0.5054
  177DOPC   C2521639   5.799   6.556   3.850  0.3846  0.3284 -0.1877
  177DOPC   H5R21640   5.819   6.663   3.870  0.7720  0.4290 -1.0721
  177DOPC   H5S21641   5.895   6.500   3.846 -0.3618 -0.9285 -2.1174
  177DOPC   C2621642   5.694   6.500   3.953 -0.8433  0.5394 -0.4469
  177DOPC   H6R21643   5.673   6.394   3.925  0.4615 -0.2617  1.4080
  177DOPC   H6S21644   5.595   6.549   3.948 -1.5758 -0.9820 -1.9909
  177DOPC   C2721645   5.749   6.499   4.103 -0.1839 -0.3174  0.8182
  177DOPC   H7R21646   5.781   6.599   4.138 -0.3418  0.5131 -1.2921
  177DOPC   H7S21647   5.833   6.426   4.095  0.8373  0.5186  3.1657
  177DOPC   C2821648   5.640   6.455   4.199 -0.0734 -1.0414  0.1895
  177DOPC   H8R21649   5.541   6.504   4.186  1.1550  1.5775 -0.0728
  177DOPC   H8S21650   5.673   6.480   4.302 -0.6248  0.0071  0.1262
  177DOPC   C2921651   5.622   6.310   4.186  0.5731 -0.5097  0.6464
  177DOPC   H9R21652   5.539   6.279   4.120 -0.4506  0.3987  1.4476
  177DOPC  C21021653   5.707   6.219   4.233 -0.7528 -0.6761 -0.6111
  177DOPC  H10R21654   5.696   6.110   4.232 -3.2599 -0.5019  0.6923
  177DOPC  C21121655   5.831   6.251   4.311 -0.2052  0.3408 -0.4372
  177DOPC  H11R21656   5.856   6.360   4.312 -0.4393  0.3932 -0.0227
  177DOPC  H11S21657   5.914   6.202   4.257 -0.7758 -0.0317 -0.9923
  177DOPC  C21221658   5.818   6.192   4.450  0.2524 -0.5725  0.4554
  177DOPC  H12R21659   5.783   6.087   4.456  2.9977 -1.5087  2.4170
  177DOPC  H12S21660   5.744   6.251   4.508  0.0304  0.2284 -0.6227
  177DOPC  C21321661   5.950   6.195   4.527  0.3454 -0.2240  0.3481
  177DOPC  H13R21662   5.984   6.297   4.551  2.5980 -0.9024  0.2584
  177DOPC  H13S21663   6.042   6.157   4.477  1.0360  1.3513  0.3820
  177DOPC  C21421664   5.935   6.143   4.674  0.2579  0.0555  0.3923
  177DOPC  H14R21665   5.872   6.217   4.728  2.0439  1.2780  0.8720
  177DOPC  H14S21666   6.033   6.146   4.726  0.0638  2.2343  0.7096
  177DOPC  C21521667   5.871   6.005   4.691  0.6618  0.4691 -0.3382
  177DOPC  H15R21668   5.944   5.936   4.643  1.3378  1.9153 -1.4581
  177DOPC  H15S21669   5.767   5.999   4.652 -0.3152 -0.2699  2.1712
  177DOPC  C21621670   5.862   5.953   4.841  0.0891 -0.0666 -0.2645
  177DOPC  H16R21671   5.959   5.979   4.890 -1.4796  1.6727  2.1437
  177DOPC  H16S21672   5.847   5.843   4.842  1.3344 -0.2551  0.9197
  177DOPC  C21721673   5.756   6.019   4.935  0.9445  0.2698 -0.2349
  177DOPC  H17R21674   5.661   6.014   4.877  0.9294 -0.6704 -0.1422
  177DOPC  H17S21675   5.783   6.125   4.953  0.8096  0.6017 -1.8558
  177DOPC  C21821676   5.733   5.951   5.071 -0.0958  0.0755 -0.6065
  177DOPC  H18R21677   5.805   5.979   5.151 -0.0305 -1.0257 -0.2552
  177DOPC  H18S21678   5.740   5.840   5.069  1.8197  0.1453  0.0221
  177DOPC  H18T21679   5.630   5.980   5.102  0.2047  1.5348 -0.9243
  177DOPC   C3321680   6.300   6.994   3.738  1.1609 -0.1427 -0.1580
  177DOPC   H3X21681   6.382   6.929   3.775  0.9897  0.0018  0.4968
  177DOPC   H3Y21682   6.239   6.939   3.663  0.1000  1.8533 -0.8418
  177DOPC   C3421683   6.199   7.022   3.851  0.2733 -0.3979  0.8539
  177DOPC   H4X21684   6.102   6.970   3.835  0.8826 -0.7024 -2.8327
  177DOPC   H4Y21685   6.163   7.125   3.832  3.1035  0.5749  0.2491
  177DOPC   C3521686   6.249   7.004   3.997 -0.2984  0.1055  0.3080
  177DOPC   H5X21687   6.331   7.076   4.018 -1.2984  0.9952  1.2880
  177DOPC   H5Y21688   6.311   6.914   4.017 -0.9577 -0.3723  0.2099
  177DOPC   C3621689   6.146   7.021   4.112 -0.4297 -0.1112  0.0292
  177DOPC   H6X21690   6.099   7.122   4.111  2.1653  1.1672  0.9398
  177DOPC   H6Y21691   6.057   6.956   4.093  0.4698 -1.2374 -0.4667
  177DOPC   C3721692   6.194   6.996   4.253  0.4261 -0.1315  0.0940
  177DOPC   H7X21693   6.204   6.886   4.265 -0.6008 -0.2653 -0.2113
  177DOPC   H7Y21694   6.294   7.033   4.284  0.8862  1.1345 -2.6412
  177DOPC   C3821695   6.109   7.052   4.373  0.5456  0.4306 -1.0289
  177DOPC   H8X21696   6.003   7.019   4.364  1.3475 -2.6571 -0.2695
  177DOPC   H8Y21697   6.121   7.163   4.367  2.7734  0.2536 -0.6415
  177DOPC   C3921698   6.147   7.003   4.515 -0.3231  0.7426 -0.1761
  177DOPC   H9X21699   6.076   6.928   4.552 -1.6724  1.8004 -0.5222
  177DOPC  C31021700   6.250   7.038   4.594 -0.2350 -0.4032 -0.3074
  177DOPC  H10X21701   6.255   7.010   4.700 -2.2658 -1.2585 -0.3929
  177DOPC  C31121702   6.354   7.141   4.555  0.4185  0.6659 -0.5918
  177DOPC  H11X21703   6.321   7.180   4.456 -0.4189  0.4781 -0.4006
  177DOPC  H11Y21704   6.448   7.085   4.539  0.2246 -0.1081  0.8516
  177DOPC  C31221705   6.383   7.262   4.649  0.1044  0.4980  0.2034
  177DOPC  H12X21706   6.290   7.313   4.681 -1.0044 -2.7595  2.6392
  177DOPC  H12Y21707   6.441   7.336   4.589 -1.5751  0.6249 -1.3402
  177DOPC  C31321708   6.438   7.217   4.784  0.0899 -0.4187 -0.7822
  177DOPC  H13X21709   6.374   7.135   4.822  0.1701  0.5843  1.7201
  177DOPC  H13Y21710   6.542   7.182   4.767  0.9488  1.9870 -0.8615
  177DOPC  C31421711   6.428   7.330   4.888  0.4146  0.7183 -0.4254
  177DOPC  H14X21712   6.513   7.396   4.863  1.0876 -0.6820 -2.0792
  177DOPC  H14Y21713   6.334   7.387   4.873  0.7441  0.9678 -1.6320
  177DOPC  C31521714   6.431   7.286   5.039 -0.0770 -0.0475 -0.1301
  177DOPC  H15X21715   6.528   7.240   5.067 -0.4529 -0.3606  0.7169
  177DOPC  H15Y21716   6.349   7.211   5.052 -0.9409  1.0727  1.2185
  177DOPC  C31621717   6.407   7.405   5.130  0.4551 -0.2882 -1.0925
  177DOPC  H16X21718   6.482   7.487   5.124  0.7560 -0.5338 -0.7186
  177DOPC  H16Y21719   6.313   7.455   5.098 -0.0159  0.0907  0.7674
  177DOPC  C31721720   6.396   7.362   5.283  0.3880  0.5888  0.4098
  177DOPC  H17X21721   6.344   7.439   5.342  4.3972  1.9368  2.5209
  177DOPC  H17Y21722   6.362   7.256   5.288  1.8689 -0.0379 -1.5125
  177DOPC  C31821723   6.535   7.354   5.356  0.5529 -0.2515  0.5167
  177DOPC  H18X21724   6.579   7.455   5.363 -0.7925  0.2219  2.7923
  177DOPC  H18Y21725   6.530   7.306   5.456  3.6527 -1.2573  0.2821
  177DOPC  H18Z21726   6.603   7.283   5.303 -1.3393 -0.0717 -2.3898
  178DOPC     N21727   1.528   5.331   2.811 -0.3207  0.1040 -0.8951
  178DOPC   C1221728   1.525   5.487   2.844  0.4319  0.4305  0.1076
  178DOPC  H12A21729   1.432   5.520   2.888 -0.5272  0.3527 -1.7386
  178DOPC  H12B21730   1.516   5.529   2.745 -0.7348  1.0068  0.4348
  178DOPC   C1321731   1.401   5.271   2.739  0.0036 -0.1060 -0.2520
  178DOPC  H13A21732   1.387   5.308   2.638 -1.8530  1.5199  0.5268
  178DOPC  H13B21733   1.407   5.164   2.728  2.5481 -0.2215  1.5120
  178DOPC  H13C21734   1.310   5.297   2.792 -1.4886 -0.3299 -2.5504
  178DOPC   C1421735   1.567   5.246   2.932  0.1260 -0.3842  0.0357
  178DOPC  H14A21736   1.562   5.141   2.907  0.9701 -0.2881 -0.5864
  178DOPC  H14B21737   1.656   5.289   2.975  1.1104 -2.2072 -0.0999
  178DOPC  H14C21738   1.487   5.258   3.003 -1.5015 -1.3245 -1.5441
  178DOPC   C1521739   1.645   5.316   2.718  0.4563  0.0373 -0.1138
  178DOPC  H15A21740   1.731   5.370   2.755 -1.0283  2.5868 -0.1773
  178DOPC  H15B21741   1.638   5.365   2.622  0.7496  2.0615  0.8417
  178DOPC  H15C21742   1.675   5.218   2.684  0.7841  0.1436 -0.1339
  178DOPC   C1121743   1.645   5.544   2.929  0.0567  0.5342  0.0540
  178DOPC  H11A21744   1.745   5.521   2.885 -1.1203 -0.8841 -2.0097
  178DOPC  H11B21745   1.635   5.655   2.925  1.1535  0.6189 -0.6923
  178DOPC     P21746   1.557   5.571   3.168 -0.0598 -0.4869 -0.4339
  178DOPC   O1321747   1.416   5.547   3.129  0.0105 -0.6402 -0.4740
  178DOPC   O1421748   1.603   5.712   3.179  0.6321  0.4468 -0.2494
  178DOPC   O1221749   1.640   5.491   3.059  0.0763  0.2267  0.2558
  178DOPC   O1121750   1.586   5.497   3.302  0.0224 -0.4115 -0.2313
  178DOPC    C121751   1.711   5.472   3.349  0.0926  0.0479  0.5420
  178DOPC    HA21752   1.787   5.494   3.271  0.1524 -0.1557  0.5407
  178DOPC    HB21753   1.717   5.362   3.363  1.5242 -0.0396 -0.4178
  178DOPC    C221754   1.742   5.544   3.482 -0.1998 -1.0758  0.0636
  178DOPC    HS21755   1.853   5.540   3.491 -0.0783  1.5876  0.8257
  178DOPC   O2121756   1.673   5.486   3.592 -0.4603  0.1640  0.8383
  178DOPC   C2121757   1.727   5.379   3.648 -0.0798 -0.4037  0.4752
  178DOPC   O2221758   1.846   5.340   3.638  0.1823 -0.2352 -0.3556
  178DOPC   C2221759   1.613   5.314   3.732 -0.2603  0.0061  0.1013
  178DOPC   H2R21760   1.567   5.236   3.669  1.9258 -1.3281  0.0695
  178DOPC   H2S21761   1.538   5.392   3.757 -1.2507 -1.0613  0.5106
  178DOPC    C321762   1.699   5.695   3.483  0.7026 -0.4744 -0.5899
  178DOPC    HX21763   1.589   5.690   3.470  0.8460 -0.6743 -1.9320
  178DOPC    HY21764   1.744   5.748   3.396 -1.6807 -0.0088 -1.6038
  178DOPC   O3121765   1.748   5.757   3.606 -0.3502  0.2483  0.4311
  178DOPC   C3121766   1.683   5.872   3.638 -0.1195  0.8947 -0.5210
  178DOPC   O3221767   1.604   5.930   3.567  0.2216 -0.3130  0.5451
  178DOPC   C3221768   1.724   5.921   3.774 -0.1401 -0.0875  0.2981
  178DOPC   H2X21769   1.823   5.964   3.748 -2.1036  2.7649 -3.5699
  178DOPC   H2Y21770   1.662   6.011   3.795 -1.2848 -0.4235 -1.4470
  178DOPC   C2321771   1.664   5.246   3.862  0.0359 -0.0763 -0.4948
  178DOPC   H3R21772   1.765   5.202   3.847 -0.5040 -0.7410 -2.3853
  178DOPC   H3S21773   1.602   5.158   3.889 -0.6766  0.5128 -0.1482
  178DOPC   C2421774   1.678   5.350   3.979 -0.0795 -0.8463  0.0288
  178DOPC   H4R21775   1.581   5.404   3.983  0.2992 -0.1451 -0.0947
  178DOPC   H4S21776   1.757   5.423   3.954 -0.1068 -0.7900  0.1077
  178DOPC   C2521777   1.692   5.295   4.123  0.0278 -0.5976 -0.4254
  178DOPC   H5R21778   1.779   5.225   4.121  0.4656 -0.0679 -1.9176
  178DOPC   H5S21779   1.608   5.230   4.156 -1.4699  0.9452 -1.0423
  178DOPC   C2621780   1.724   5.408   4.219  0.2819 -1.0035 -0.0962
  178DOPC   H6R21781   1.644   5.485   4.217 -0.5079 -1.8083 -0.9077
  178DOPC   H6S21782   1.809   5.466   4.177 -1.9085  3.2538  0.8383
  178DOPC   C2721783   1.763   5.358   4.355  0.1593 -0.2072 -0.0064
  178DOPC   H7R21784   1.818   5.433   4.416 -1.0291 -0.0283  0.8684
  178DOPC   H7S21785   1.831   5.270   4.347 -0.0556 -0.2726 -1.2624
  178DOPC   C2821786   1.643   5.325   4.451 -0.7777 -0.0941 -0.6818
  178DOPC   H8R21787   1.576   5.249   4.405 -1.5639  0.3809 -0.3530
  178DOPC   H8S21788   1.577   5.415   4.456 -2.2002 -0.8846 -3.1828
  178DOPC   C2921789   1.689   5.275   4.590  0.1693 -0.5180  0.4434
  178DOPC   H9R21790   1.786   5.223   4.589 -0.0181 -0.9395 -1.4042
  178DOPC  C21021791   1.633   5.291   4.712  0.1112 -0.4021 -0.1502
  178DOPC  H10R21792   1.671   5.232   4.796  0.5576 -1.0196 -0.7827
  178DOPC  C21121793   1.507   5.372   4.745 -0.0555  0.2973 -0.8362
  178DOPC  H11R21794   1.417   5.307   4.748  1.0155 -1.2197  0.1074
  178DOPC  H11S21795   1.483   5.436   4.658  0.8536  4.1824  1.5116
  178DOPC  C21221796   1.535   5.450   4.874 -0.5202 -1.6895  0.1910
  178DOPC  H12R21797   1.616   5.526   4.869 -3.6798  2.0972  1.3953
  178DOPC  H12S21798   1.547   5.384   4.962 -2.0751  0.2252  1.9195
  178DOPC  C21321799   1.414   5.542   4.905  0.3923  0.8733 -0.4556
  178DOPC  H13R21800   1.335   5.475   4.942  0.1320  1.5080  0.1606
  178DOPC  H13S21801   1.381   5.601   4.816  1.3396  0.7944 -0.8710
  178DOPC  C21421802   1.445   5.640   5.023  0.2242  0.8896  0.2692
  178DOPC  H14R21803   1.547   5.678   5.001  0.1798  0.8149 -0.0655
  178DOPC  H14S21804   1.445   5.587   5.121 -0.1870  1.0625  0.3630
  178DOPC  C21521805   1.357   5.764   5.046 -0.2008  0.5752  0.3997
  178DOPC  H15R21806   1.332   5.808   4.947  2.1822  0.9865 -0.0798
  178DOPC  H15S21807   1.418   5.838   5.103  1.1445 -0.9023  0.9667
  178DOPC  C21621808   1.224   5.741   5.104 -0.3613 -0.4053  0.0763
  178DOPC  H16R21809   1.236   5.715   5.212 -3.5486 -0.5936  0.4703
  178DOPC  H16S21810   1.174   5.657   5.051 -1.4386  0.2943 -0.0486
  178DOPC  C21721811   1.128   5.855   5.082  0.7859  0.0463 -0.2099
  178DOPC  H17R21812   1.109   5.868   4.973  0.6232 -2.1812 -0.5051
  178DOPC  H17S21813   1.177   5.945   5.124 -0.0180  0.4736 -0.1531
  178DOPC  C21821814   0.987   5.822   5.149  0.2315  0.1149 -0.7568
  178DOPC  H18R21815   1.004   5.808   5.258 -2.9349 -0.6359 -0.2539
  178DOPC  H18S21816   0.944   5.726   5.112 -0.0491  0.4828 -1.4108
  178DOPC  H18T21817   0.918   5.908   5.135  1.1365  0.5863 -2.6580
  178DOPC   C3321818   1.724   5.824   3.894  0.3619 -0.4336  0.2463
  178DOPC   H3X21819   1.762   5.725   3.862 -0.4228 -0.9166  0.7753
  178DOPC   H3Y21820   1.618   5.805   3.921  0.4326  2.2647  2.9890
  178DOPC   C3421821   1.811   5.874   4.013  0.6283  0.4269  0.9270
  178DOPC   H4X21822   1.775   5.964   4.068  0.2845 -0.1276  1.6339
  178DOPC   H4Y21823   1.912   5.904   3.978  0.4523  1.0545  0.9375
  178DOPC   C3521824   1.835   5.766   4.127 -0.9586  0.5950 -0.1971
  178DOPC   H5X21825   1.901   5.689   4.082 -1.3978  0.6058 -0.8757
  178DOPC   H5Y21826   1.738   5.721   4.157  0.4566 -1.1240  2.1498
  178DOPC   C3621827   1.905   5.817   4.255  0.4056  0.6454  0.5609
  178DOPC   H6X21828   1.991   5.882   4.230 -0.4151  1.9286  0.9629
  178DOPC   H6Y21829   1.840   5.894   4.302 -0.2446  2.0487 -2.4125
  178DOPC   C3721830   1.930   5.708   4.359 -0.9848 -0.0574 -0.4027
  178DOPC   H7X21831   1.837   5.676   4.411 -2.2793  0.9857 -1.9884
  178DOPC   H7Y21832   1.970   5.612   4.321 -1.3334 -0.0440 -0.8172
  178DOPC   C3821833   2.038   5.747   4.471  0.7425 -0.0058 -0.2079
  178DOPC   H8X21834   2.001   5.839   4.520  2.4207  1.1288 -0.9847
  178DOPC   H8Y21835   2.135   5.764   4.421  0.8864  2.2027  0.7211
  178DOPC   C3921836   2.069   5.646   4.577  0.0802 -0.7432 -0.2720
  178DOPC   H9X21837   2.149   5.573   4.557  0.6899 -0.3530  0.6602
  178DOPC  C31021838   1.993   5.632   4.692 -0.2001  0.2415  0.1113
  178DOPC  H10X21839   2.015   5.544   4.754 -0.9198  0.7164  1.0711
  178DOPC  C31121840   1.874   5.709   4.736  0.0937 -0.7254 -0.1135
  178DOPC  H11X21841   1.780   5.652   4.755  0.0484 -0.5171  0.2915
  178DOPC  H11Y21842   1.843   5.787   4.663  1.2451  0.4765  0.6420
  178DOPC  C31221843   1.901   5.799   4.854 -0.0555  0.6447  0.2894
  178DOPC  H12X21844   2.008   5.828   4.857  0.0428  0.7756 -2.3629
  178DOPC  H12Y21845   1.876   5.741   4.945 -1.4967  0.7787  0.0045
  178DOPC  C31321846   1.823   5.929   4.860 -0.0719 -0.6915  0.1185
  178DOPC  H13X21847   1.876   6.004   4.798 -2.5116 -0.1463 -1.4265
  178DOPC  H13Y21848   1.722   5.923   4.816 -0.0527  1.0113 -0.2077
  178DOPC  C31421849   1.830   5.989   5.002  0.0252  0.6929  0.3375
  178DOPC  H14X21850   1.754   5.930   5.058 -0.2652 -0.1333 -0.8953
  178DOPC  H14Y21851   1.928   5.957   5.044  2.3994  2.6270 -3.2233
  178DOPC  C31521852   1.815   6.137   5.018  0.6825 -1.1367  0.0128
  178DOPC  H15X21853   1.855   6.193   4.931 -0.5838 -0.0113  0.1205
  178DOPC  H15Y21854   1.879   6.169   5.102  0.1183 -1.0474  0.4163
  178DOPC  C31621855   1.674   6.168   5.074 -0.3683 -0.0441 -0.1172
  178DOPC  H16X21856   1.613   6.145   4.984 -0.3070 -1.2159  0.1129
  178DOPC  H16Y21857   1.649   6.101   5.159 -0.4448 -1.0017 -0.8731
  178DOPC  C31721858   1.666   6.322   5.107 -0.0705  0.2147  0.4952
  178DOPC  H17X21859   1.581   6.348   5.173 -0.9897  1.8455 -1.2000
  178DOPC  H17Y21860   1.759   6.344   5.162 -0.7344  1.5836  1.1216
  178DOPC  C31821861   1.653   6.413   4.980 -0.1351  0.0093 -0.0680
  178DOPC  H18X21862   1.737   6.383   4.913 -1.5043 -3.6377 -0.3735
  178DOPC  H18Y21863   1.560   6.390   4.925 -0.4385  0.5601  0.2013
  178DOPC  H18Z21864   1.663   6.520   5.009  2.4071 -0.2675  0.3050
  179DOPC     N21865   6.885   6.515   2.967  0.1607  0.2590  0.1597
  179DOPC   C1221866   6.862   6.536   3.116 -0.0610 -1.0852 -0.2729
  179DOPC  H12A21867   6.788   6.614   3.133  1.7451  0.7250 -0.2805
  179DOPC  H12B21868   6.947   6.592   3.152 -0.4716 -0.4631 -0.2362
  179DOPC   C1321869   6.993   6.427   2.930 -0.3137 -0.2453  0.2049
  179DOPC  H13A21870   6.983   6.325   2.963 -0.0161 -0.5339 -0.5674
  179DOPC  H13B21871   7.002   6.436   2.822  0.2635 -0.5716  0.2199
  179DOPC  H13C21872   7.089   6.459   2.969  0.2501 -0.2012 -1.1555
  179DOPC   C1421873   6.916   6.648   2.900 -1.1197 -0.5089 -0.0894
  179DOPC  H14A21874   7.007   6.684   2.946 -0.9577 -0.7164 -0.2455
  179DOPC  H14B21875   6.925   6.631   2.794  1.0006  0.4019 -0.1049
  179DOPC  H14C21876   6.843   6.724   2.922 -1.9900 -1.2133 -0.5000
  179DOPC   C1521877   6.756   6.469   2.913  0.4708 -0.0007 -0.1899
  179DOPC  H15A21878   6.743   6.373   2.961 -0.3540  0.4997  0.6294
  179DOPC  H15B21879   6.746   6.460   2.806  1.1927  4.7635 -0.8946
  179DOPC  H15C21880   6.678   6.540   2.935  0.9746  0.0903  1.4222
  179DOPC   C1121881   6.849   6.409   3.199  0.4401  0.4285 -0.1293
  179DOPC  H11A21882   6.935   6.348   3.163 -0.5134  0.5663 -2.9129
  179DOPC  H11B21883   6.865   6.433   3.306  1.8273  0.1141 -0.2453
  179DOPC     P21884   6.674   6.214   3.214 -0.2650 -0.3737 -0.1761
  179DOPC   O1321885   6.787   6.126   3.229 -0.6305 -0.3516 -0.7604
  179DOPC   O1421886   6.555   6.164   3.141  0.2111 -0.2316  0.1324
  179DOPC   O1221887   6.720   6.357   3.160  0.6470  0.4063  0.9132
  179DOPC   O1121888   6.616   6.273   3.353  0.1000 -0.3759  0.0266
  179DOPC    C121889   6.704   6.267   3.474 -0.2691 -0.2422  0.5204
  179DOPC    HA21890   6.707   6.368   3.519 -0.1345  0.4958 -1.0662
  179DOPC    HB21891   6.811   6.245   3.455  0.1364  1.2750  0.9627
  179DOPC    C221892   6.645   6.168   3.579  0.7944  0.1873 -0.5097
  179DOPC    HS21893   6.687   6.193   3.678 -3.1836  1.4843  1.0639
  179DOPC   O2121894   6.666   6.036   3.550 -0.5246 -0.1866  0.5346
  179DOPC   C2121895   6.784   5.991   3.579  0.5415 -0.3099  0.6621
  179DOPC   O2221896   6.878   6.056   3.623  0.1388  0.0600  0.4313
  179DOPC   C2221897   6.792   5.843   3.555  0.0821  0.4483  0.2702
  179DOPC   H2R21898   6.879   5.807   3.496 -1.5402 -1.3098 -1.1839
  179DOPC   H2S21899   6.708   5.805   3.494  0.3499 -0.9959  0.7680
  179DOPC    C321900   6.493   6.182   3.582  1.0896 -0.7191  0.3754
  179DOPC    HX21901   6.443   6.180   3.483 -1.0642 -0.1990  1.3942
  179DOPC    HY21902   6.470   6.282   3.624  2.9095 -0.1955  0.1916
  179DOPC   O3121903   6.430   6.090   3.671  0.1452  0.3107 -0.0553
  179DOPC   C3121904   6.389   5.973   3.622 -0.3078 -0.2433  0.2770
  179DOPC   O3221905   6.378   5.947   3.501 -0.1565 -0.7638  0.2045
  179DOPC   C3221906   6.348   5.882   3.739 -0.2222  0.6633  0.0541
  179DOPC   H2X21907   6.240   5.902   3.750 -0.3836 -0.3010  0.3306
  179DOPC   H2Y21908   6.360   5.776   3.708 -0.3856  0.7809 -0.4170
  179DOPC   C2321909   6.785   5.779   3.702 -0.0356 -0.4003 -0.3915
  179DOPC   H3R21910   6.687   5.801   3.749 -0.1493 -1.1599 -0.2626
  179DOPC   H3S21911   6.858   5.838   3.763 -0.9438  0.9399 -0.5754
  179DOPC   C2421912   6.827   5.638   3.701 -0.1067  0.3004 -0.0083
  179DOPC   H4R21913   6.877   5.627   3.602  2.2103 -0.9863  1.2391
  179DOPC   H4S21914   6.735   5.577   3.712  0.5018 -0.7027 -0.4322
  179DOPC   C2521915   6.935   5.598   3.814  0.3344  0.4090  0.0102
  179DOPC   H5R21916   6.889   5.627   3.911 -0.5157  1.0345 -0.5576
  179DOPC   H5S21917   7.021   5.667   3.802 -1.9650  3.1926 -1.7513
  179DOPC   C2621918   6.985   5.456   3.804  0.5291 -0.5031 -0.0537
  179DOPC   H6R21919   6.988   5.426   3.697 -2.6038 -1.9424  0.1521
  179DOPC   H6S21920   6.918   5.389   3.862  2.3724 -2.3520  0.0639
  179DOPC   C2721921   7.126   5.428   3.869  0.4303  0.1876  0.1387
  179DOPC   H7R21922   7.202   5.475   3.803  0.8923  0.7064  1.0259
  179DOPC   H7S21923   7.136   5.318   3.861 -1.7468 -0.0968  0.6757
  179DOPC   C2821924   7.142   5.450   4.016 -0.1296 -0.0566  0.0505
  179DOPC   H8R21925   7.077   5.371   4.060 -0.7486 -1.0267 -2.4555
  179DOPC   H8S21926   7.098   5.550   4.031 -0.2327 -0.0486 -0.3184
  179DOPC   C2921927   7.288   5.444   4.059  0.1331  0.3278  1.1676
  179DOPC   H9R21928   7.352   5.392   3.986 -1.9657 -0.7404  0.0045
  179DOPC  C21021929   7.343   5.490   4.170  0.5350  0.2402  0.8237
  179DOPC  H10R21930   7.452   5.473   4.171  1.0019  2.7924  0.4503
  179DOPC  C21121931   7.270   5.560   4.275  0.7172  0.2364  0.2389
  179DOPC  H11R21932   7.160   5.550   4.261  0.5275  1.0232  1.0809
  179DOPC  H11S21933   7.304   5.666   4.269 -0.4624  0.5584 -2.9813
  179DOPC  C21221934   7.273   5.504   4.417  0.8821  0.0218 -0.1093
  179DOPC  H12R21935   7.373   5.530   4.460  0.3509  4.0048 -0.8165
  179DOPC  H12S21936   7.250   5.396   4.414 -1.6998  0.5096 -0.2843
  179DOPC  C21321937   7.173   5.574   4.511  0.0016 -0.1712 -0.0925
  179DOPC  H13R21938   7.159   5.505   4.598  0.8276  0.8066  0.8407
  179DOPC  H13S21939   7.079   5.572   4.452  0.4505  0.8249 -0.8599
  179DOPC  C21421940   7.211   5.715   4.557 -0.4667 -1.1298  0.4950
  179DOPC  H14R21941   7.224   5.788   4.474  1.3969 -2.1329 -0.1670
  179DOPC  H14S21942   7.314   5.716   4.599  0.0117 -0.8390 -0.6265
  179DOPC  C21521943   7.107   5.774   4.663 -0.1322  0.1693  0.2610
  179DOPC  H15R21944   7.094   5.691   4.736  2.7022  1.0236  1.8851
  179DOPC  H15S21945   7.012   5.814   4.621  0.8546 -0.4482 -2.8040
  179DOPC  C21621946   7.157   5.893   4.748  0.2681  0.1515 -0.8560
  179DOPC  H16R21947   7.170   5.980   4.681 -0.7963  0.7078 -0.3703
  179DOPC  H16S21948   7.254   5.872   4.797  0.6930  1.0915 -1.2736
  179DOPC  C21721949   7.072   5.925   4.874  0.2068  0.2075 -0.3254
  179DOPC  H17R21950   7.038   5.830   4.920  2.0514  0.5310  1.8941
  179DOPC  H17S21951   6.985   5.986   4.840  1.4720  2.2000 -0.1523
  179DOPC  C21821952   7.138   6.012   4.986  0.0214  0.2982  0.2888
  179DOPC  H18R21953   7.225   5.966   5.038 -0.5562 -0.5299  0.5319
  179DOPC  H18S21954   7.070   6.054   5.063  1.0886 -0.2275  1.5623
  179DOPC  H18T21955   7.184   6.099   4.934 -0.0247 -0.8312 -1.7500
  179DOPC   C3321956   6.409   5.916   3.876 -1.2306 -0.1585  0.2604
  179DOPC   H3X21957   6.407   6.024   3.900  0.0095  0.0313 -0.4381
  179DOPC   H3Y21958   6.515   5.883   3.881 -1.8108 -1.9736  2.0661
  179DOPC   C3421959   6.334   5.831   3.978  0.2970 -0.4657 -0.8493
  179DOPC   H4X21960   6.371   5.727   3.966  0.4871 -0.6499  0.9899
  179DOPC   H4Y21961   6.225   5.829   3.958  0.0253 -0.3095  0.5192
  179DOPC   C3521962   6.360   5.875   4.131 -0.2882 -0.0812  0.4741
  179DOPC   H5X21963   6.331   5.980   4.148 -0.8655  0.2092 -1.8964
  179DOPC   H5Y21964   6.469   5.858   4.145 -0.4941 -1.6661  0.4067
  179DOPC   C3621965   6.294   5.782   4.234 -0.3922  0.0695 -0.2106
  179DOPC   H6X21966   6.183   5.785   4.227 -0.5863 -1.1530  1.6033
  179DOPC   H6Y21967   6.315   5.675   4.215  1.0910  0.2497  0.2807
  179DOPC   C3721968   6.332   5.825   4.382 -0.0006 -0.2550 -0.4950
  179DOPC   H7X21969   6.439   5.804   4.407  0.2257 -0.3642 -1.4992
  179DOPC   H7Y21970   6.329   5.936   4.389  2.7708 -0.2016  1.2969
  179DOPC   C3821971   6.245   5.773   4.490 -0.0046  0.4546 -0.0507
  179DOPC   H8X21972   6.137   5.787   4.468 -0.3480 -1.7569  0.0229
  179DOPC   H8Y21973   6.268   5.821   4.588 -0.8336 -1.0565  0.9300
  179DOPC   C3921974   6.268   5.626   4.515 -0.6067  0.7164 -0.6803
  179DOPC   H9X21975   6.264   5.566   4.423 -2.0233  0.2491 -0.3293
  179DOPC  C31021976   6.302   5.562   4.626 -0.3733 -0.1908 -0.0709
  179DOPC  H10X21977   6.331   5.456   4.617  2.4301  0.5643 -0.5974
  179DOPC  C31121978   6.321   5.627   4.764 -0.5529 -0.7755  0.1158
  179DOPC  H11X21979   6.357   5.732   4.754 -2.1841 -0.1268  0.6461
  179DOPC  H11Y21980   6.400   5.571   4.817  1.3818  1.2727 -0.4428
  179DOPC  C31221981   6.197   5.647   4.859  0.0563  0.1085  0.3399
  179DOPC  H12X21982   6.176   5.543   4.892  2.5309 -0.5828 -0.0198
  179DOPC  H12Y21983   6.106   5.686   4.810 -0.7153 -0.8138  1.0068
  179DOPC  C31321984   6.231   5.717   4.997 -0.2567  0.0657 -0.2116
  179DOPC  H13X21985   6.310   5.656   5.045  0.1710  2.0282  1.7730
  179DOPC  H13Y21986   6.274   5.818   4.981  0.3758 -0.0511  0.6443
  179DOPC  C31421987   6.116   5.710   5.099  0.2034 -0.1451  0.3525
  179DOPC  H14X21988   6.035   5.763   5.045  2.0250  2.5512  0.0727
  179DOPC  H14Y21989   6.085   5.604   5.110  0.0974 -0.4370 -2.1603
  179DOPC  C31521990   6.155   5.778   5.233 -0.5088  0.2929  0.3762
  179DOPC  H15X21991   6.201   5.878   5.215 -1.8954  0.7719 -0.7037
  179DOPC  H15Y21992   6.230   5.712   5.279  2.5356  2.0782 -1.6722
  179DOPC  C31621993   6.032   5.786   5.319  0.3151 -0.3580 -0.0124
  179DOPC  H16X21994   5.948   5.834   5.264  0.8740 -1.4888 -1.9633
  179DOPC  H16Y21995   5.994   5.684   5.341 -1.2088  0.2048  0.0970
  179DOPC  C31721996   6.059   5.868   5.445 -0.4646 -0.2009 -0.5511
  179DOPC  H17X21997   6.072   5.976   5.422 -0.4351 -0.3596 -1.3230
  179DOPC  H17Y21998   5.973   5.865   5.514  0.4049  0.6996  0.6185
  179DOPC  C31821999   6.183   5.815   5.522 -0.9569 -0.3076 -0.4202
  179DOPC  H18X22000   6.193   5.708   5.549 -0.7254 -0.0090  0.7376
  179DOPC  H18Y22001   6.279   5.829   5.469 -0.4721 -2.5817 -0.2576
  179DOPC  H18Z22002   6.201   5.867   5.618 -0.4054 -0.4472 -0.4480
  180DOPC     N22003   6.967   3.440   2.839  0.2261  0.4298 -0.0889
  180DOPC   C1222004   6.967   3.431   2.988 -0.7218  0.1997 -0.6508
  180DOPC  H12A22005   7.024   3.516   3.021 -0.7355  1.3863 -3.4281
  180DOPC  H12B22006   7.013   3.339   3.023  0.6614  0.6595 -1.1634
  180DOPC   C1322007   7.097   3.436   2.776  0.0608  0.5890  0.1968
  180DOPC  H13A22008   7.148   3.347   2.809 -0.3633  0.8227  1.5614
  180DOPC  H13B22009   7.091   3.438   2.668  0.5679 -0.1274  0.1440
  180DOPC  H13C22010   7.159   3.516   2.812 -0.9921  1.0065  1.1197
  180DOPC   C1422011   6.895   3.564   2.791 -0.4269 -0.1382 -0.4225
  180DOPC  H14A22012   6.921   3.645   2.858  1.4702  0.3954 -1.7266
  180DOPC  H14B22013   6.937   3.602   2.699 -0.6823 -0.1295 -0.5387
  180DOPC  H14C22014   6.789   3.546   2.778 -0.1739 -0.0033 -3.3427
  180DOPC   C1522015   6.889   3.332   2.769  0.3770 -0.3264 -0.5476
  180DOPC  H15A22016   6.939   3.236   2.768 -0.4464 -0.7566 -0.6351
  180DOPC  H15B22017   6.867   3.374   2.671 -3.0553 -1.1222 -0.2405
  180DOPC  H15C22018   6.796   3.311   2.818  2.2162 -0.7629  3.1137
  180DOPC   C1122019   6.823   3.435   3.052  0.1645 -0.2679  0.0114
  180DOPC  H11A22020   6.824   3.446   3.163 -1.0972 -1.7099  0.1976
  180DOPC  H11B22021   6.758   3.512   3.006 -1.2910 -1.5113 -0.0748
  180DOPC     P22022   6.812   3.173   3.098 -0.2057  0.2531 -0.2118
  180DOPC   O1322023   6.959   3.158   3.094 -0.4763 -0.0607  0.0127
  180DOPC   O1422024   6.736   3.053   3.049 -0.4184  0.2473 -0.7809
  180DOPC   O1222025   6.756   3.303   3.022 -0.9769  0.2620 -0.6256
  180DOPC   O1122026   6.766   3.203   3.243 -0.6845  0.2251 -0.0721
  180DOPC    C122027   6.630   3.245   3.261 -0.1462  0.4196  1.3224
  180DOPC    HA22028   6.562   3.174   3.209  0.0909  2.5049 -2.1684
  180DOPC    HB22029   6.616   3.346   3.217 -0.5446 -0.8556 -1.7472
  180DOPC    C222030   6.597   3.251   3.411 -0.3975 -0.1194  0.2170
  180DOPC    HS22031   6.487   3.255   3.427 -0.8930  0.5867 -2.8195
  180DOPC   O2122032   6.669   3.352   3.487 -0.0746  0.5398  0.1034
  180DOPC   C2122033   6.607   3.466   3.484 -0.3525 -0.5073 -0.2324
  180DOPC   O2222034   6.505   3.494   3.427  0.2124  0.2425 -0.4444
  180DOPC   C2222035   6.680   3.559   3.588  0.9755  0.4532 -0.2413
  180DOPC   H2R22036   6.762   3.609   3.532  1.2916  0.9552  0.6542
  180DOPC   H2S22037   6.719   3.488   3.663 -0.6853 -1.1614 -0.8211
  180DOPC    C322038   6.631   3.107   3.467 -0.6170 -0.1321 -0.1008
  180DOPC    HX22039   6.741   3.109   3.478 -0.7798  0.7923  1.7666
  180DOPC    HY22040   6.604   3.030   3.391  0.5631 -1.1177  0.4388
  180DOPC   O3122041   6.560   3.085   3.590  0.4047  0.0916 -0.4754
  180DOPC   C3122042   6.440   3.038   3.593  0.1346  1.0149 -0.8000
  180DOPC   O3222043   6.381   2.975   3.504 -0.2880 -0.3554 -0.3096
  180DOPC   C3222044   6.380   3.054   3.729  0.2606 -0.4150  0.1750
  180DOPC   H2X22045   6.458   3.029   3.804 -0.8313 -0.8368  1.2086
  180DOPC   H2Y22046   6.353   3.162   3.739  0.6735 -0.4730  2.3460
  180DOPC   C2322047   6.587   3.656   3.661  0.1482  0.1404  0.2094
  180DOPC   H3R22048   6.522   3.718   3.595 -0.1346 -0.2546  0.1120
  180DOPC   H3S22049   6.660   3.730   3.700  2.1389 -0.5124 -2.0335
  180DOPC   C2422050   6.503   3.594   3.774  0.0152  0.0141 -0.1648
  180DOPC   H4R22051   6.572   3.525   3.828  0.9237  1.9643  1.2689
  180DOPC   H4S22052   6.426   3.526   3.732 -0.5694  1.1991 -1.0576
  180DOPC   C2522053   6.438   3.694   3.875  0.0974  0.7207  0.0280
  180DOPC   H5R22054   6.346   3.721   3.819  0.2630 -1.1302 -1.2306
  180DOPC   H5S22055   6.510   3.778   3.891  0.5517  0.3129  0.1631
  180DOPC   C2622056   6.416   3.644   4.021  0.0345 -0.2309  0.1725
  180DOPC   H6R22057   6.383   3.730   4.084 -0.6331 -1.3200  1.3453
  180DOPC   H6S22058   6.509   3.605   4.067  2.1701  2.5191 -1.4317
  180DOPC   C2722059   6.295   3.544   4.033  0.0173 -0.2315 -0.1105
  180DOPC   H7R22060   6.326   3.462   3.966  3.0439  0.7219 -0.0199
  180DOPC   H7S22061   6.208   3.585   3.976  0.1007 -1.3764 -1.1116
  180DOPC   C2822062   6.258   3.493   4.178  0.6243 -0.0212  0.0060
  180DOPC   H8R22063   6.346   3.442   4.222  0.4587  0.4681  0.9344
  180DOPC   H8S22064   6.190   3.407   4.166 -0.0592  0.4912  0.1491
  180DOPC   C2922065   6.192   3.597   4.261 -0.8290  0.0992  0.1120
  180DOPC   H9R22066   6.108   3.655   4.220 -0.5683 -1.2038 -2.5310
  180DOPC  C21022067   6.242   3.640   4.377 -0.5845  0.0458  0.3858
  180DOPC  H10R22068   6.211   3.735   4.422 -1.8745 -0.7139  1.1517
  180DOPC  C21122069   6.367   3.583   4.443  0.6049 -1.1012  0.2084
  180DOPC  H11R22070   6.382   3.474   4.427 -0.3805 -1.5380  2.0486
  180DOPC  H11S22071   6.356   3.604   4.551  2.1721  1.4089 -0.0403
  180DOPC  C21222072   6.495   3.655   4.399 -0.3675  0.2697  0.4720
  180DOPC  H12R22073   6.485   3.762   4.426  1.4629  0.6394 -0.2151
  180DOPC  H12S22074   6.514   3.651   4.290  1.3256  1.1924  0.7016
  180DOPC  C21322075   6.620   3.598   4.471 -0.8272  0.1445  0.6162
  180DOPC  H13R22076   6.706   3.650   4.424  0.2116 -3.5463 -2.0325
  180DOPC  H13S22077   6.639   3.489   4.458  2.2800  0.5763  0.8805
  180DOPC  C21422078   6.625   3.629   4.617  0.2038  0.5041  0.5402
  180DOPC  H14R22079   6.538   3.584   4.669 -0.2085  1.2831  0.5403
  180DOPC  H14S22080   6.637   3.739   4.625  0.8940  0.3636  1.6533
  180DOPC  C21522081   6.744   3.566   4.683 -0.2020  0.1432  0.1514
  180DOPC  H15R22082   6.836   3.613   4.641  1.8151 -1.5481  2.3508
  180DOPC  H15S22083   6.750   3.457   4.660 -0.6711  0.0809  0.3299
  180DOPC  C21622084   6.749   3.586   4.839 -0.6423  0.9509  0.4199
  180DOPC  H16R22085   6.643   3.582   4.869 -1.2644  1.7497 -1.5269
  180DOPC  H16S22086   6.791   3.686   4.862 -0.4990  0.1308  4.4849
  180DOPC  C21722087   6.851   3.488   4.901  0.3417 -0.7747  0.6237
  180DOPC  H17R22088   6.956   3.500   4.869  0.3115 -0.2160  0.7217
  180DOPC  H17S22089   6.817   3.387   4.871 -0.1108 -0.5159  0.2466
  180DOPC  C21822090   6.856   3.491   5.052 -0.7552 -0.3078  0.1741
  180DOPC  H18R22091   6.760   3.482   5.108 -0.2485  2.5670  1.6915
  180DOPC  H18S22092   6.901   3.591   5.072  1.8264 -1.2203 -0.7072
  180DOPC  H18T22093   6.924   3.409   5.084 -1.6568 -1.9750 -1.9380
  180DOPC   C3322094   6.254   2.963   3.753 -0.1322 -0.3534  0.5219
  180DOPC   H3X22095   6.278   2.863   3.710  1.3140  0.2080 -0.0472
  180DOPC   H3Y22096   6.169   3.001   3.692  1.1133  1.1788 -0.3456
  180DOPC   C3422097   6.227   2.957   3.905  0.2859  0.4724 -0.1745
  180DOPC   H4X22098   6.297   2.875   3.936 -0.3993 -0.1787 -0.3152
  180DOPC   H4Y22099   6.126   2.912   3.916  1.0303 -1.7577 -1.5942
  180DOPC   C3522100   6.236   3.080   3.986 -0.4861  0.0409  0.7477
  180DOPC   H5X22101   6.327   3.143   3.971 -0.8159  0.3530 -0.0230
  180DOPC   H5Y22102   6.240   3.059   4.095  3.3072  0.0082  0.7351
  180DOPC   C3622103   6.120   3.177   3.952  0.4396  0.1275  0.5703
  180DOPC   H6X22104   6.153   3.282   3.963  0.4038 -0.0031  2.0891
  180DOPC   H6Y22105   6.090   3.167   3.845  0.7746  0.0061  0.4854
  180DOPC   C3722106   5.998   3.159   4.044  0.0442 -0.1852  0.2123
  180DOPC   H7X22107   5.956   3.058   4.022 -0.1013  0.3414 -2.2076
  180DOPC   H7Y22108   6.033   3.187   4.146  0.7502 -1.0789  0.2274
  180DOPC   C3822109   5.877   3.252   4.013 -0.5299 -0.9609 -0.3846
  180DOPC   H8X22110   5.788   3.214   4.067 -1.6535  1.7379 -0.2187
  180DOPC   H8Y22111   5.863   3.238   3.904  0.7426  0.1971 -0.7249
  180DOPC   C3922112   5.902   3.399   4.046 -0.0467  0.4522 -0.0716
  180DOPC   H9X22113   5.968   3.462   3.983 -1.6114  2.4149  0.1532
  180DOPC  C31022114   5.842   3.458   4.148 -0.6606  0.6720 -0.4391
  180DOPC  H10X22115   5.841   3.568   4.155 -1.8121  0.6880 -0.6142
  180DOPC  C31122116   5.747   3.386   4.243 -0.4061 -0.0879 -0.6772
  180DOPC  H11X22117   5.774   3.425   4.343 -2.3867  0.0435 -0.1533
  180DOPC  H11Y22118   5.769   3.277   4.240  0.2978  0.0592 -1.5291
  180DOPC  C31222119   5.605   3.408   4.186  0.6864 -0.4587  0.0828
  180DOPC  H12X22120   5.595   3.338   4.100 -0.0684 -2.2804  1.5940
  180DOPC  H12Y22121   5.600   3.514   4.153  3.0903 -0.5024 -0.6582
  180DOPC  C31322122   5.496   3.385   4.288 -0.5312  0.2489 -0.2987
  180DOPC  H13X22123   5.524   3.446   4.376 -0.8940 -0.5041  0.3457
  180DOPC  H13Y22124   5.397   3.412   4.245 -1.0487 -2.3944 -0.9686
  180DOPC  C31422125   5.481   3.237   4.316  0.6541  0.4299  0.1293
  180DOPC  H14X22126   5.448   3.181   4.226 -2.4787 -0.0682  1.4729
  180DOPC  H14Y22127   5.576   3.197   4.359  1.0575  0.0411 -1.0742
  180DOPC  C31522128   5.368   3.199   4.411 -0.7765  0.4296  0.7319
  180DOPC  H15X22129   5.272   3.248   4.384 -1.4342 -2.3133 -2.5478
  180DOPC  H15Y22130   5.405   3.220   4.514  2.3492 -0.2405 -0.1646
  180DOPC  C31622131   5.337   3.053   4.402  0.0152 -0.1471 -0.1597
  180DOPC  H16X22132   5.309   3.024   4.299  0.2221 -1.1491  0.0598
  180DOPC  H16Y22133   5.429   2.992   4.415 -0.5982 -1.1565 -0.4336
  180DOPC  C31722134   5.218   3.019   4.495 -0.5535 -0.1257 -0.0035
  180DOPC  H17X22135   5.234   3.028   4.605  1.3533 -0.0942 -0.2455
  180DOPC  H17Y22136   5.130   3.082   4.473 -1.1513 -1.5482 -2.0138
  180DOPC  C31822137   5.161   2.881   4.462  0.1625  0.0634  0.1556
  180DOPC  H18X22138   5.242   2.805   4.466 -0.3064 -0.5261 -0.9628
  180DOPC  H18Y22139   5.076   2.853   4.528  0.4806  1.1213  1.0523
  180DOPC  H18Z22140   5.129   2.887   4.355  1.1160  1.6309 -0.0779
  181DOPC     N22141   0.518   2.800   2.769 -0.0309 -0.2000 -0.2054
  181DOPC   C1222142   0.524   2.736   2.907  0.1896 -0.6826 -0.0627
  181DOPC  H12A22143   0.600   2.660   2.901  0.5161 -0.5467  1.7181
  181DOPC  H12B22144   0.428   2.699   2.938 -0.6225  1.9154  0.8367
  181DOPC   C1322145   0.643   2.877   2.727  0.3798  0.1477  0.2205
  181DOPC  H13A22146   0.640   2.919   2.628  1.1353 -0.0601  0.1016
  181DOPC  H13B22147   0.652   2.964   2.791 -0.0308 -1.3002  2.3596
  181DOPC  H13C22148   0.727   2.810   2.732 -0.4233 -0.8322  1.2395
  181DOPC   C1422149   0.398   2.884   2.760  0.0939 -0.1378  0.1324
  181DOPC  H14A22150   0.310   2.829   2.728 -0.7975 -0.2397  2.5205
  181DOPC  H14B22151   0.384   2.940   2.851  0.2261 -0.5790  0.4297
  181DOPC  H14C22152   0.425   2.957   2.686 -2.1185  0.9284  0.2724
  181DOPC   C1522153   0.515   2.680   2.668  0.6457 -0.0370 -0.3920
  181DOPC  H15A22154   0.427   2.619   2.680  0.7074  0.2841  2.3797
  181DOPC  H15B22155   0.600   2.614   2.669  0.1264 -0.7243 -0.9775
  181DOPC  H15C22156   0.500   2.726   2.571 -0.6085  0.2621 -0.0665
  181DOPC   C1122157   0.562   2.836   3.019 -0.0491  0.1344 -0.1890
  181DOPC  H11A22158   0.610   2.780   3.102  0.3778  2.0059  0.8866
  181DOPC  H11B22159   0.646   2.904   2.993  1.1190 -0.4884  1.7469
  181DOPC     P22160   0.324   2.842   3.146  0.5133 -0.1899 -0.0623
  181DOPC   O1322161   0.278   2.726   3.067  0.1754 -0.4712  0.3028
  181DOPC   O1422162   0.235   2.954   3.183 -0.2537  0.5713  0.8514
  181DOPC   O1222163   0.451   2.907   3.071  0.0719 -0.0054 -0.2758
  181DOPC   O1122164   0.392   2.791   3.274 -0.2695 -0.9111 -0.7118
  181DOPC    C122165   0.444   2.882   3.371 -0.5109 -0.1883 -0.5327
  181DOPC    HA22166   0.375   2.968   3.378 -1.5016 -1.0247  0.3027
  181DOPC    HB22167   0.547   2.922   3.357 -1.2864  1.9544 -0.4064
  181DOPC    C222168   0.442   2.824   3.512  0.2064 -0.2327  0.0311
  181DOPC    HS22169   0.431   2.912   3.579 -0.1562  1.2867 -1.8955
  181DOPC   O2122170   0.559   2.746   3.536  0.2769 -0.4567  0.3435
  181DOPC   C2122171   0.604   2.748   3.661  0.5075  0.0471 -0.4806
  181DOPC   O2222172   0.570   2.834   3.743 -0.2855  0.4420  0.2541
  181DOPC   C2222173   0.692   2.625   3.677 -0.5184 -0.0078  0.4601
  181DOPC   H2R22174   0.775   2.626   3.603  1.8757 -0.6517  2.9563
  181DOPC   H2S22175   0.634   2.531   3.664 -1.2015  0.4482  0.1615
  181DOPC    C322176   0.307   2.747   3.524 -0.1057 -0.4760 -0.0558
  181DOPC    HX22177   0.293   2.664   3.451 -0.5122 -0.0765 -0.4364
  181DOPC    HY22178   0.227   2.819   3.497  0.2263 -0.7191 -1.7866
  181DOPC   O3122179   0.289   2.695   3.662  0.2307 -0.2412 -0.2420
  181DOPC   C3122180   0.312   2.567   3.684  0.4732  0.6634 -0.3095
  181DOPC   O3222181   0.356   2.481   3.608  0.7416  0.0266  0.3064
  181DOPC   C3222182   0.281   2.545   3.830 -0.0807 -0.7737  0.4510
  181DOPC   H2X22183   0.361   2.582   3.898 -0.9850 -2.0721  2.3331
  181DOPC   H2Y22184   0.183   2.590   3.853 -0.7584 -2.0436  0.1519
  181DOPC   C2322185   0.756   2.617   3.816 -0.4737  0.3541  0.5435
  181DOPC   H3R22186   0.790   2.720   3.838  2.6632  0.1791 -2.5818
  181DOPC   H3S22187   0.843   2.548   3.814 -0.5061  0.0748  3.6222
  181DOPC   C2422188   0.656   2.559   3.919  0.3301  0.0809 -0.3604
  181DOPC   H4R22189   0.642   2.454   3.885  0.0597 -0.5649  1.6086
  181DOPC   H4S22190   0.565   2.620   3.903 -0.4283 -0.8677  0.2414
  181DOPC   C2522191   0.701   2.563   4.065  0.1929  0.5936 -0.2718
  181DOPC   H5R22192   0.720   2.668   4.095  0.7930  1.0819 -2.1947
  181DOPC   H5S22193   0.789   2.495   4.064 -0.0752  0.2054 -2.0311
  181DOPC   C2622194   0.601   2.499   4.160 -0.6817  0.8825  0.5387
  181DOPC   H6R22195   0.559   2.417   4.098 -0.8276  2.7818 -2.0279
  181DOPC   H6S22196   0.507   2.557   4.172 -1.0467  0.1061  1.6849
  181DOPC   C2722197   0.658   2.455   4.303  0.1646  0.2339  0.5761
  181DOPC   H7R22198   0.727   2.368   4.299 -0.9734 -0.6537 -2.4157
  181DOPC   H7S22199   0.564   2.419   4.348 -1.4590 -2.2472 -4.1076
  181DOPC   C2822200   0.711   2.562   4.401 -0.3909 -0.5323  0.5753
  181DOPC   H8R22201   0.635   2.637   4.433  0.3319  0.8088 -0.7317
  181DOPC   H8S22202   0.774   2.625   4.336 -0.3016 -0.4189  0.7691
  181DOPC   C2922203   0.784   2.496   4.514 -0.4535 -0.8391  0.8838
  181DOPC   H9R22204   0.828   2.400   4.481 -0.4764 -1.2177  1.9120
  181DOPC  C21022205   0.814   2.548   4.635 -0.0236  0.5033 -0.4035
  181DOPC  H10R22206   0.877   2.496   4.708 -0.9656 -0.4937 -0.2661
  181DOPC  C21122207   0.769   2.682   4.678  0.4323 -0.7713  0.0464
  181DOPC  H11R22208   0.712   2.743   4.604  1.3712 -1.5044 -1.3294
  181DOPC  H11S22209   0.859   2.742   4.703 -1.2207  1.3619  1.1621
  181DOPC  C21222210   0.696   2.683   4.817  0.3698 -0.5073 -0.1500
  181DOPC  H12R22211   0.642   2.779   4.826  0.7531 -0.3773  0.9065
  181DOPC  H12S22212   0.770   2.690   4.900 -0.4931  0.2184  0.5723
  181DOPC  C21322213   0.592   2.577   4.853  1.0513  0.8471  0.2146
  181DOPC  H13R22214   0.646   2.480   4.843  2.2694  1.5191  0.1840
  181DOPC  H13S22215   0.507   2.569   4.782  1.6869  2.9749 -0.8582
  181DOPC  C21422216   0.554   2.586   5.008  0.4984 -0.3933 -0.1002
  181DOPC  H14R22217   0.505   2.682   5.033  2.0304  0.1156  1.1441
  181DOPC  H14S22218   0.646   2.607   5.066 -0.6601  1.6913  1.1052
  181DOPC  C21522219   0.473   2.475   5.067  0.3288 -0.3070 -0.3737
  181DOPC  H15R22220   0.538   2.385   5.075  1.0248  0.1551 -0.7787
  181DOPC  H15S22221   0.387   2.454   4.998 -0.3783  0.2768  0.3146
  181DOPC  C21622222   0.432   2.504   5.212  0.0969 -0.0328  0.1111
  181DOPC  H16R22223   0.385   2.604   5.201 -0.1851 -0.3293 -1.6800
  181DOPC  H16S22224   0.518   2.510   5.281  0.3139  1.9907 -0.2852
  181DOPC  C21722225   0.334   2.403   5.273 -0.0360 -0.1400 -0.3200
  181DOPC  H17R22226   0.386   2.305   5.276  0.4250  0.0500  4.0380
  181DOPC  H17S22227   0.247   2.401   5.203 -0.3343 -1.1228  0.0469
  181DOPC  C21822228   0.283   2.445   5.412  0.0474  0.1101  0.6351
  181DOPC  H18R22229   0.258   2.553   5.417  2.0171  0.6307  0.1658
  181DOPC  H18S22230   0.360   2.423   5.489 -0.0985  0.3697  0.8531
  181DOPC  H18T22231   0.196   2.380   5.437  0.7198 -1.4764 -0.8754
  181DOPC   C3322232   0.273   2.388   3.855 -0.7958 -0.4771 -0.2063
  181DOPC   H3X22233   0.365   2.326   3.856 -2.1058 -2.5229 -0.3193
  181DOPC   H3Y22234   0.202   2.348   3.780  0.6437  0.5963 -2.2465
  181DOPC   C3422235   0.214   2.368   4.002  0.1111  0.7966  0.2580
  181DOPC   H4X22236   0.132   2.439   4.029 -1.2631 -0.8417  0.6061
  181DOPC   H4Y22237   0.290   2.376   4.082  1.7263  0.5240 -1.1949
  181DOPC   C3522238   0.149   2.223   4.009 -0.0902  0.3594 -0.2792
  181DOPC   H5X22239   0.227   2.145   3.997  0.9637  1.6044 -2.1616
  181DOPC   H5Y22240   0.070   2.213   3.932  0.5390  0.2698 -0.9333
  181DOPC   C3622241   0.087   2.193   4.145  0.2378 -0.4216 -0.4699
  181DOPC   H6X22242   0.032   2.279   4.190  0.2801  0.1133 -1.4006
  181DOPC   H6Y22243   0.013   2.113   4.122  1.8811 -1.7999 -1.1430
  181DOPC   C3722244   0.179   2.132   4.251 -0.1448 -0.0748  0.3282
  181DOPC   H7X22245   0.125   2.075   4.330 -0.5892  0.5407  0.4756
  181DOPC   H7Y22246   0.253   2.066   4.201 -0.7141 -0.7595  0.3727
  181DOPC   C3822247   0.273   2.233   4.315 -0.0899 -0.8991 -0.4639
  181DOPC   H8X22248   0.347   2.270   4.240  0.1270 -1.8644 -0.7405
  181DOPC   H8Y22249   0.332   2.163   4.378  1.1828 -1.2845 -2.0154
  181DOPC   C3922250   0.203   2.348   4.382 -0.7909 -0.3678  0.9331
  181DOPC   H9X22251   0.164   2.419   4.307  0.7850  0.4811  0.8706
  181DOPC  C31022252   0.188   2.375   4.514 -0.5950 -0.4206  0.3652
  181DOPC  H10X22253   0.138   2.470   4.536  3.1126  1.4003  1.6758
  181DOPC  C31122254   0.241   2.294   4.633  0.3002 -0.5703 -0.4185
  181DOPC  H11X22255   0.342   2.318   4.673  0.2157 -0.5579 -0.2106
  181DOPC  H11Y22256   0.268   2.197   4.586  1.6660  0.8581 -2.8114
  181DOPC  C31222257   0.154   2.279   4.755  0.6294 -0.5232 -0.2022
  181DOPC  H12X22258   0.208   2.216   4.829 -0.1417 -1.4232 -0.3835
  181DOPC  H12Y22259   0.059   2.232   4.723  0.5599 -0.1167 -0.5985
  181DOPC  C31322260   0.108   2.407   4.831 -0.3193  1.1689 -0.4322
  181DOPC  H13X22261   0.203   2.461   4.852  0.6642 -0.8784  0.6307
  181DOPC  H13Y22262   0.048   2.471   4.762 -0.1469 -1.9729 -3.8618
  181DOPC  C31422263   0.041   2.376   4.969 -0.1738  0.2116 -0.2291
  181DOPC  H14X22264  -0.057   2.327   4.950  0.3028  0.0064 -2.3839
  181DOPC  H14Y22265   0.099   2.295   5.019 -1.8852 -1.9856 -1.5682
  181DOPC  C31522266   0.028   2.507   5.047  0.3605 -0.3208 -0.1332
  181DOPC  H15X22267  -0.050   2.572   5.002 -1.9870 -2.5657  0.4289
  181DOPC  H15Y22268   0.122   2.562   5.066 -0.5070  1.0799  0.1984
  181DOPC  C31622269  -0.035   2.477   5.187 -0.7483  0.4977 -0.0599
  181DOPC  H16X22270  -0.142   2.449   5.179 -0.3866 -0.9491 -0.1741
  181DOPC  H16Y22271   0.022   2.396   5.238 -0.4000  0.1370 -0.9889
  181DOPC  C31722272  -0.039   2.603   5.280  0.6240  0.7482  0.6478
  181DOPC  H17X22273   0.058   2.647   5.311  0.4882  0.9081  0.8510
  181DOPC  H17Y22274  -0.090   2.677   5.216  0.3810  0.2519  0.2587
  181DOPC  C31822275  -0.100   2.559   5.414  0.2418 -0.3550 -0.1627
  181DOPC  H18X22276  -0.038   2.476   5.454  1.5247 -0.1750 -1.6890
  181DOPC  H18Y22277  -0.113   2.644   5.485 -2.2516  0.9910 -2.0674
  181DOPC  H18Z22278  -0.200   2.515   5.397  0.3108 -0.2924 -0.7722
  182DOPC     N22279   1.876   0.333   2.716 -0.2783 -0.3918 -0.0849
  182DOPC   C1222280   2.005   0.305   2.797 -0.1483  0.2057 -0.0359
  182DOPC  H12A22281   1.978   0.271   2.897 -0.3296 -0.2862 -0.2472
  182DOPC  H12B22282   2.069   0.391   2.803  0.6690 -0.4376  0.6494
  182DOPC   C1322283   1.902   0.360   2.564  0.1520  0.1631  0.0627
  182DOPC  H13A22284   1.810   0.358   2.507  0.2787 -1.1825 -0.1179
  182DOPC  H13B22285   1.942   0.457   2.538  1.7537 -0.5744 -0.3457
  182DOPC  H13C22286   1.963   0.279   2.527  1.3664  1.9807 -2.1378
  182DOPC   C1422287   1.802   0.448   2.774  1.1792  0.0110  0.2021
  182DOPC  H14A22288   1.764   0.419   2.871 -0.1977 -1.6555 -0.7770
  182DOPC  H14B22289   1.850   0.544   2.775  0.5585  0.3768 -1.7276
  182DOPC  H14C22290   1.707   0.463   2.725  0.7462  1.7795  1.4994
  182DOPC   C1522291   1.790   0.209   2.728 -0.0489  0.3289 -0.2900
  182DOPC  H15A22292   1.825   0.138   2.655 -0.0453  1.4163 -1.3807
  182DOPC  H15B22293   1.691   0.241   2.698 -0.1043  0.4380  0.0129
  182DOPC  H15C22294   1.781   0.162   2.825 -0.7763 -0.0719 -0.5383
  182DOPC   C1122295   2.089   0.188   2.736 -0.3704 -0.0355 -0.2588
  182DOPC  H11A22296   2.029   0.110   2.684 -0.1169 -2.0153  2.2132
  182DOPC  H11B22297   2.149   0.232   2.654 -1.5041  1.5893 -0.2759
  182DOPC     P22298   2.291   0.170   2.894 -0.1635  0.3528 -0.0808
  182DOPC   O1322299   2.278   0.314   2.938 -0.2414  0.2367 -0.1997
  182DOPC   O1422300   2.387   0.131   2.788 -0.0899  0.9636 -0.4926
  182DOPC   O1222301   2.152   0.124   2.842 -0.0280 -0.0028  0.3535
  182DOPC   O1122302   2.320   0.080   3.017 -0.1707 -0.2939 -0.5524
  182DOPC    C122303   2.224   0.027   3.111  0.2456  0.8796  0.3451
  182DOPC    HA22304   2.230  -0.084   3.112 -1.4125  0.7522 -0.7031
  182DOPC    HB22305   2.122   0.039   3.069 -0.1756  0.5626  1.2482
  182DOPC    C222306   2.230   0.089   3.246 -0.6287 -0.2989  0.1156
  182DOPC    HS22307   2.191   0.192   3.231  0.7192  0.1895 -0.2297
  182DOPC   O2122308   2.360   0.070   3.305  0.7033 -0.1167  0.0213
  182DOPC   C2122309   2.429   0.180   3.317 -0.1928  0.6503  0.6198
  182DOPC   O2222310   2.395   0.293   3.289 -0.2282 -0.5336 -0.4395
  182DOPC   C2222311   2.562   0.141   3.377 -0.4823  0.5940 -0.3395
  182DOPC   H2R22312   2.633   0.168   3.297 -0.0355  1.4476  0.3362
  182DOPC   H2S22313   2.573   0.030   3.385 -0.8539  0.5767 -0.0181
  182DOPC    C322314   2.131   0.018   3.337  0.2485 -0.0708 -0.0299
  182DOPC    HX22315   2.132  -0.086   3.300  0.5581  0.2899 -1.0550
  182DOPC    HY22316   2.029   0.062   3.326  0.6295  1.0264  0.6541
  182DOPC   O3122317   2.168   0.031   3.482  0.0042  0.1507  0.4277
  182DOPC   C3122318   2.236  -0.070   3.527 -0.1045  0.8263 -0.8835
  182DOPC   O3222319   2.242  -0.186   3.483  0.1279 -0.3157  0.3401
  182DOPC   C3222320   2.318  -0.028   3.649  0.0179  0.0087 -1.1072
  182DOPC   H2X22321   2.421  -0.069   3.637 -1.0094 -3.2074  0.1200
  182DOPC   H2Y22322   2.321   0.083   3.649 -3.7744  0.2636  1.0613
  182DOPC   C2322323   2.594   0.219   3.504  0.1028  0.2734 -0.1553
  182DOPC   H3R22324   2.510   0.224   3.577 -0.6845  1.3092 -1.1151
  182DOPC   H3S22325   2.621   0.325   3.483  0.4696  0.3961  0.8362
  182DOPC   C2422326   2.698   0.138   3.585  0.2116  0.3618 -0.6047
  182DOPC   H4R22327   2.799   0.138   3.539  0.6747 -0.2774  0.3988
  182DOPC   H4S22328   2.684   0.029   3.597 -1.9636  0.6798  0.1657
  182DOPC   C2522329   2.717   0.193   3.725  0.6469  0.8163 -0.6340
  182DOPC   H5R22330   2.621   0.174   3.777  0.2971  0.8370 -1.2660
  182DOPC   H5S22331   2.734   0.303   3.732 -1.2746  1.0553  1.7305
  182DOPC   C2622332   2.829   0.127   3.803 -0.6917  0.2150 -0.6426
  182DOPC   H6R22333   2.926   0.162   3.762  0.5603 -1.5059  0.6832
  182DOPC   H6S22334   2.822   0.018   3.785  1.1598 -0.1008  0.3222
  182DOPC   C2722335   2.832   0.156   3.953  0.0956  0.6373 -0.4490
  182DOPC   H7R22336   2.805   0.259   3.984  0.3652  0.2752  1.0905
  182DOPC   H7S22337   2.939   0.146   3.982  0.0584  2.1347  0.2955
  182DOPC   C2822338   2.743   0.057   4.019  0.2567  0.4388  0.4859
  182DOPC   H8R22339   2.789  -0.036   3.979  0.1413  1.0729 -1.1888
  182DOPC   H8S22340   2.640   0.065   3.977  0.7011 -0.8246 -0.9136
  182DOPC   C2922341   2.728   0.065   4.169 -0.4049 -0.9252  0.5232
  182DOPC   H9R22342   2.672   0.154   4.201 -2.2302 -1.4432 -1.0948
  182DOPC  C21022343   2.784  -0.028   4.254  0.8787  0.1956  0.5769
  182DOPC  H10R22344   2.762  -0.021   4.361 -0.1311  2.0718  0.2763
  182DOPC  C21122345   2.855  -0.155   4.211  0.2681  0.1350  0.7032
  182DOPC  H11R22346   2.960  -0.140   4.177  0.4858 -0.2192  1.2079
  182DOPC  H11S22347   2.803  -0.200   4.124  0.0199 -1.0906  1.4703
  182DOPC  C21222348   2.854  -0.258   4.322 -0.9009  0.1345 -0.4382
  182DOPC  H12R22349   2.898  -0.352   4.284  0.4340  0.5516  0.0239
  182DOPC  H12S22350   2.751  -0.279   4.359  0.0548  1.3961  3.3870
  182DOPC  C21322351   2.934  -0.219   4.444 -0.4857  0.1606 -0.4156
  182DOPC  H13R22352   2.883  -0.144   4.508  2.1950  2.0590 -0.3537
  182DOPC  H13S22353   3.027  -0.172   4.405 -0.6347 -0.9678 -2.2594
  182DOPC  C21422354   2.980  -0.342   4.540  0.2870 -0.2523  0.3945
  182DOPC  H14R22355   3.050  -0.406   4.482  1.5271  0.7613  0.7312
  182DOPC  H14S22356   2.896  -0.407   4.574  0.3450 -0.2404  0.5630
  182DOPC  C21522357   3.063  -0.294   4.660 -0.3230 -0.6149 -0.5993
  182DOPC  H15R22358   3.007  -0.227   4.729  0.6856  0.5662 -0.8906
  182DOPC  H15S22359   3.141  -0.222   4.626 -1.6051  0.7688 -0.7688
  182DOPC  C21622360   3.117  -0.405   4.758  0.1233  0.2703  0.0379
  182DOPC  H16R22361   3.207  -0.369   4.813  2.5073 -0.9498 -2.7637
  182DOPC  H16S22362   3.146  -0.500   4.708  1.3887  0.5769  0.1309
  182DOPC  C21722363   3.016  -0.437   4.870 -0.2692 -0.8869  0.7818
  182DOPC  H17R22364   2.929  -0.466   4.807  0.1210 -0.0169 -0.1878
  182DOPC  H17S22365   2.986  -0.344   4.923 -1.8533  0.7496 -2.6927
  182DOPC  C21822366   3.055  -0.546   4.966 -0.3046 -0.4292  0.3183
  182DOPC  H18R22367   3.155  -0.518   5.006  0.0155 -0.7379 -0.2468
  182DOPC  H18S22368   3.054  -0.643   4.912  4.0222  0.0013 -0.9385
  182DOPC  H18T22369   2.980  -0.546   5.048 -0.5959  0.0061  0.0545
  182DOPC   C3322370   2.257  -0.075   3.786 -0.0517 -0.0452  0.6498
  182DOPC   H3X22371   2.240  -0.185   3.784  1.9685 -0.4386  1.9895
  182DOPC   H3Y22372   2.162  -0.019   3.800 -0.4936 -0.6912  0.3367
  182DOPC   C3422373   2.355  -0.050   3.895  0.3100 -0.3793  0.5898
  182DOPC   H4X22374   2.389   0.054   3.877 -1.9304  0.0357 -1.9294
  182DOPC   H4Y22375   2.445  -0.113   3.882  0.0014 -0.7372  0.1402
  182DOPC   C3522376   2.285  -0.073   4.032 -0.5319 -0.5816  1.0915
  182DOPC   H5X22377   2.245  -0.177   4.030 -1.9437 -0.0400  0.4933
  182DOPC   H5Y22378   2.196  -0.008   4.040  1.1027  2.0913 -0.8305
  182DOPC   C3622379   2.372  -0.059   4.154 -0.3933  0.3074 -0.6154
  182DOPC   H6X22380   2.456  -0.132   4.151 -1.1409 -0.6600  0.7987
  182DOPC   H6Y22381   2.412   0.044   4.161  0.2995  0.0065 -0.0235
  182DOPC   C3722382   2.281  -0.078   4.277  0.1278 -0.2082 -0.7039
  182DOPC   H7X22383   2.203   0.001   4.278 -1.0532 -1.3560  0.3835
  182DOPC   H7Y22384   2.237  -0.179   4.274  0.3121 -0.3163  0.0812
  182DOPC   C3822385   2.368  -0.056   4.408  0.1234  0.2317  0.0804
  182DOPC   H8X22386   2.299  -0.057   4.495 -0.1104  1.0400 -0.0895
  182DOPC   H8Y22387   2.416   0.043   4.395 -0.7712  0.7140  0.3805
  182DOPC   C3922388   2.474  -0.160   4.414  0.0124 -0.6747  0.0302
  182DOPC   H9X22389   2.517  -0.197   4.319 -1.4163  1.6437 -1.6480
  182DOPC  C31022390   2.523  -0.205   4.529  0.4880  0.3724  0.0242
  182DOPC  H10X22391   2.588  -0.293   4.529 -0.2663 -0.2015  0.7980
  182DOPC  C31122392   2.486  -0.164   4.673  0.5235  0.6267  0.2862
  182DOPC  H11X22393   2.454  -0.058   4.670 -4.0336 -0.5762 -1.2261
  182DOPC  H11Y22394   2.568  -0.197   4.741 -1.2587 -3.6649  0.6664
  182DOPC  C31222395   2.366  -0.246   4.736 -0.3315 -0.5169 -0.6488
  182DOPC  H12X22396   2.394  -0.350   4.711  1.7208 -0.0730 -0.3693
  182DOPC  H12Y22397   2.264  -0.226   4.695 -0.8343 -0.5746  0.5220
  182DOPC  C31322398   2.368  -0.243   4.889 -0.7786 -0.3959 -0.9698
  182DOPC  H13X22399   2.470  -0.231   4.931 -1.2053 -0.8045  0.2171
  182DOPC  H13Y22400   2.298  -0.168   4.932  0.4754  0.3854 -0.2296
  182DOPC  C31422401   2.326  -0.385   4.937 -0.6125 -0.5564  0.3473
  182DOPC  H14X22402   2.220  -0.396   4.907  0.2725  0.7215 -3.9218
  182DOPC  H14Y22403   2.386  -0.465   4.888  0.3289  0.8736 -0.9117
  182DOPC  C31522404   2.337  -0.399   5.088  0.2202 -0.4570 -0.0299
  182DOPC  H15X22405   2.279  -0.320   5.140  2.1111 -0.0666  1.5840
  182DOPC  H15Y22406   2.440  -0.373   5.121  1.2935 -0.0177 -3.3355
  182DOPC  C31622407   2.286  -0.532   5.147  0.6249 -0.0466 -1.2106
  182DOPC  H16X22408   2.251  -0.514   5.251  1.2001 -2.6298 -0.5068
  182DOPC  H16Y22409   2.195  -0.563   5.092  1.5025 -1.6720 -1.7925
  182DOPC  C31722410   2.379  -0.652   5.147 -0.0589 -0.4660  0.0706
  182DOPC  H17X22411   2.317  -0.738   5.182 -0.7403  0.2323  0.6330
  182DOPC  H17Y22412   2.412  -0.677   5.045  1.3138 -0.1004  0.4076
  182DOPC  C31822413   2.497  -0.638   5.238  0.0599 -0.7662  0.6551
  182DOPC  H18X22414   2.472  -0.589   5.335 -2.1380 -0.3740 -0.0640
  182DOPC  H18Y22415   2.552  -0.734   5.229 -1.7230 -1.7546 -0.0398
  182DOPC  H18Z22416   2.559  -0.565   5.182 -2.5981  0.1969 -1.2608
  183DOPC     N22417   0.413   5.672   2.763  0.3043  0.7126 -0.4251
  183DOPC   C1222418   0.441   5.598   2.901 -0.6103 -0.1466  0.1277
  183DOPC  H12A22419   0.457   5.680   2.971  2.8947  1.2757 -2.0550
  183DOPC  H12B22420   0.527   5.534   2.905 -0.7584 -0.3068  1.0887
  183DOPC   C1322421   0.522   5.772   2.732 -0.9228 -0.3682  0.6164
  183DOPC  H13A22422   0.615   5.724   2.758 -1.0322 -2.3758 -2.2798
  183DOPC  H13B22423   0.522   5.799   2.627  1.7903 -0.6463  0.4686
  183DOPC  H13C22424   0.513   5.852   2.804  1.9648 -0.5526  1.3334
  183DOPC   C1422425   0.284   5.745   2.777  0.2655 -0.5016  0.3309
  183DOPC  H14A22426   0.270   5.803   2.687  0.6701 -2.6371 -1.1727
  183DOPC  H14B22427   0.207   5.670   2.780 -1.0031  0.7031 -0.7867
  183DOPC  H14C22428   0.269   5.803   2.868  0.8816 -1.3778  1.0095
  183DOPC   C1522429   0.402   5.566   2.657  1.0943  0.1950  0.1156
  183DOPC  H15A22430   0.388   5.472   2.710 -1.9304  0.4250 -0.1245
  183DOPC  H15B22431   0.492   5.557   2.598  0.7361 -0.1999 -0.3808
  183DOPC  H15C22432   0.316   5.586   2.595  2.6979  1.3237 -1.8453
  183DOPC   C1122433   0.326   5.509   2.964 -0.1367 -0.6820  0.5525
  183DOPC  H11A22434   0.346   5.475   3.068 -3.8714  1.6289  2.2227
  183DOPC  H11B22435   0.242   5.578   2.983 -1.3073 -2.4868  2.3323
  183DOPC     P22436   0.368   5.271   2.874 -0.0201  0.1875 -0.2016
  183DOPC   O1322437   0.508   5.297   2.830  0.0624  0.6852  0.0796
  183DOPC   O1422438   0.289   5.183   2.780  0.2106  0.0490 -0.1984
  183DOPC   O1222439   0.289   5.404   2.877  0.1996 -0.2823  0.6270
  183DOPC   O1122440   0.365   5.210   3.021 -0.4741 -0.0065 -0.1052
  183DOPC    C122441   0.264   5.118   3.052 -0.3508  0.2891  0.6287
  183DOPC    HA22442   0.287   5.077   3.153  1.5570 -2.4803 -0.8135
  183DOPC    HB22443   0.273   5.026   2.991 -1.6989  0.7629 -0.3256
  183DOPC    C222444   0.118   5.177   3.050 -0.1099  0.2871  0.4066
  183DOPC    HS22445   0.103   5.211   2.946 -0.4956  3.6740  1.4381
  183DOPC   O2122446   0.110   5.293   3.136  0.2199 -0.2874  0.3719
  183DOPC   C2122447   0.003   5.368   3.129  0.0877  0.0912  0.2266
  183DOPC   O2222448  -0.091   5.352   3.055  0.7422  0.2712 -0.3571
  183DOPC   C2222449   0.013   5.493   3.224  0.6748 -0.1307 -0.2937
  183DOPC   H2R22450   0.063   5.575   3.169 -2.6119  1.1402 -1.6697
  183DOPC   H2S22451   0.084   5.482   3.309 -0.1004  0.9068  0.5382
  183DOPC    C322452   0.018   5.064   3.087 -0.3441  0.1798 -0.5864
  183DOPC    HX22453   0.033   4.982   3.014  0.2182 -1.4504  1.2824
  183DOPC    HY22454  -0.081   5.111   3.068 -0.1076  1.5939  1.3945
  183DOPC   O3122455   0.026   5.016   3.224  0.4554 -0.3027  0.6102
  183DOPC   C3122456   0.065   4.895   3.243  0.0736  0.3024 -0.1579
  183DOPC   O3222457   0.100   4.810   3.157  0.0750 -0.0140  0.3020
  183DOPC   C3222458   0.094   4.880   3.391  0.3014 -0.0547 -0.4768
  183DOPC   H2X22459   0.173   4.957   3.409 -0.0901  0.4246 -0.7851
  183DOPC   H2Y22460   0.010   4.911   3.457  1.2055  1.8084 -0.1212
  183DOPC   C2322461  -0.124   5.556   3.254  0.5063  0.0957  0.0083
  183DOPC   H3R22462  -0.162   5.591   3.156  0.1679  2.7024  0.9918
  183DOPC   H3S22463  -0.109   5.655   3.304 -1.6931  0.4060  0.1602
  183DOPC   C2422464  -0.239   5.473   3.317 -0.1507 -0.8474  0.2263
  183DOPC   H4R22465  -0.284   5.396   3.251 -0.1721 -0.4601 -0.2172
  183DOPC   H4S22466  -0.325   5.543   3.317 -0.1832 -0.8584 -1.0475
  183DOPC   C2522467  -0.200   5.418   3.459 -0.1921  0.2325  0.1636
  183DOPC   H5R22468  -0.159   5.500   3.522 -1.0414  1.0340 -0.3060
  183DOPC   H5S22469  -0.116   5.346   3.449  0.3240  0.9383 -0.8369
  183DOPC   C2622470  -0.313   5.359   3.540  0.5864  0.1696  0.6444
  183DOPC   H6R22471  -0.367   5.287   3.475 -0.2826  0.2053  1.3177
  183DOPC   H6S22472  -0.389   5.437   3.563  1.5148  1.2369  0.2204
  183DOPC   C2722473  -0.281   5.290   3.672 -0.4161  0.7094 -0.5927
  183DOPC   H7R22474  -0.367   5.293   3.742 -0.4996 -0.7912 -0.5877
  183DOPC   H7S22475  -0.198   5.341   3.725  0.0648  1.5755 -2.1240
  183DOPC   C2822476  -0.237   5.145   3.657  0.7727 -0.4385 -0.2200
  183DOPC   H8R22477  -0.184   5.123   3.753 -1.1472 -1.5016  0.6388
  183DOPC   H8S22478  -0.168   5.145   3.570 -1.4797  1.4413 -2.1597
  183DOPC   C2922479  -0.353   5.050   3.627 -0.2132  0.4123  0.2985
  183DOPC   H9R22480  -0.377   5.052   3.520 -0.5526  1.2150  0.3792
  183DOPC  C21022481  -0.427   4.998   3.724  0.4017 -0.1246  0.2944
  183DOPC  H10R22482  -0.506   4.926   3.696  0.1839  0.4050 -0.4897
  183DOPC  C21122483  -0.400   5.021   3.867  0.5664 -0.3974 -0.2436
  183DOPC  H11R22484  -0.498   5.042   3.914 -0.0058 -2.4500 -0.4202
  183DOPC  H11S22485  -0.330   5.106   3.883 -0.4779  0.3918  0.2897
  183DOPC  C21222486  -0.351   4.907   3.950 -0.3402  0.1889 -0.5104
  183DOPC  H12R22487  -0.252   4.881   3.907 -0.3074 -0.1674 -0.2290
  183DOPC  H12S22488  -0.416   4.818   3.933 -0.3111  0.0506  0.0797
  183DOPC  C21322489  -0.335   4.938   4.105  0.2552  0.1685  1.4957
  183DOPC  H13R22490  -0.289   4.851   4.154  2.8475  1.1885  1.0203
  183DOPC  H13S22491  -0.440   4.957   4.137 -0.9790  1.2478 -2.4887
  183DOPC  C21422492  -0.264   5.073   4.129 -0.1060  0.3542  0.5723
  183DOPC  H14R22493  -0.328   5.163   4.122 -0.5511 -0.0073 -0.2062
  183DOPC  H14S22494  -0.189   5.087   4.048 -1.7361 -0.4153 -1.1503
  183DOPC  C21522495  -0.191   5.075   4.259  0.5756  0.1481 -0.1786
  183DOPC  H15R22496  -0.091   5.028   4.254  0.8182  0.7650 -1.6032
  183DOPC  H15S22497  -0.250   5.026   4.339  1.5778  1.4969  1.4666
  183DOPC  C21622498  -0.160   5.222   4.294 -0.0626 -0.7988 -0.2426
  183DOPC  H16R22499  -0.260   5.268   4.309 -0.0927 -0.1820 -2.0982
  183DOPC  H16S22500  -0.112   5.282   4.213  1.5173 -0.8384  0.6140
  183DOPC  C21722501  -0.063   5.235   4.417  0.2572  0.2909 -0.1858
  183DOPC  H17R22502   0.031   5.189   4.382  0.7872  1.2460 -0.0402
  183DOPC  H17S22503  -0.098   5.174   4.503  1.1400  0.9525  0.6631
  183DOPC  C21822504  -0.043   5.373   4.484 -0.4991  0.3359 -0.1781
  183DOPC  H18R22505   0.035   5.421   4.421  0.9243  1.1766  2.0983
  183DOPC  H18S22506   0.003   5.361   4.585 -0.2106  2.2535 -0.0493
  183DOPC  H18T22507  -0.140   5.426   4.492 -0.5157  0.2016  0.6424
  183DOPC   C3322508   0.138   4.737   3.433 -0.4933 -0.4376 -0.1685
  183DOPC   H3X22509   0.227   4.703   3.375 -0.4689 -1.8114  0.6275
  183DOPC   H3Y22510   0.067   4.653   3.424  0.3969 -1.0307 -2.3567
  183DOPC   C3422511   0.191   4.747   3.587 -0.4208 -0.1693  0.5388
  183DOPC   H4X22512   0.286   4.804   3.571  0.9622 -2.9715 -2.4946
  183DOPC   H4Y22513   0.221   4.645   3.616 -1.4212 -0.7877 -0.5044
  183DOPC   C3522514   0.104   4.810   3.687  0.4213 -0.0344 -0.5029
  183DOPC   H5X22515   0.023   4.734   3.696  1.5101 -1.2891 -0.8461
  183DOPC   H5Y22516   0.065   4.908   3.654 -1.5498 -0.2211  1.0875
  183DOPC   C3622517   0.190   4.824   3.820 -0.1876  0.1284 -0.2182
  183DOPC   H6X22518   0.238   4.729   3.850 -1.4145 -0.7093 -0.8236
  183DOPC   H6Y22519   0.281   4.887   3.806  0.5186 -0.3539  1.9551
  183DOPC   C3722520   0.102   4.880   3.928  1.0150 -0.6275 -0.2266
  183DOPC   H7X22521   0.042   4.957   3.874  1.8122 -0.9992 -1.7109
  183DOPC   H7Y22522   0.031   4.796   3.944  0.9432 -0.7191 -0.9687
  183DOPC   C3822523   0.178   4.930   4.055 -0.1687 -0.4182  0.1976
  183DOPC   H8X22524   0.116   4.983   4.131  0.5518  2.3261 -1.0139
  183DOPC   H8Y22525   0.242   5.007   4.005 -1.3177  0.1014 -0.5058
  183DOPC   C3922526   0.267   4.828   4.125 -0.1223 -0.1257  0.7553
  183DOPC   H9X22527   0.309   4.746   4.065 -0.4478 -1.0342  1.7511
  183DOPC  C31022528   0.281   4.810   4.264  0.4878  0.2422  0.7929
  183DOPC  H10X22529   0.336   4.724   4.305  0.8810  0.7232  1.2948
  183DOPC  C31122530   0.216   4.886   4.374  0.5469 -0.3994  0.0755
  183DOPC  H11X22531   0.181   4.811   4.449 -2.2151 -1.7431 -2.3524
  183DOPC  H11Y22532   0.128   4.944   4.339  0.7699 -0.5610 -0.7846
  183DOPC  C31222533   0.330   4.976   4.430  0.2528  0.0903 -0.5402
  183DOPC  H12X22534   0.367   5.044   4.351 -0.1921  0.4478 -0.4466
  183DOPC  H12Y22535   0.406   4.913   4.481  0.0432  0.4551  0.2370
  183DOPC  C31322536   0.275   5.081   4.530 -0.6531  0.4180 -0.6709
  183DOPC  H13X22537   0.215   5.162   4.483 -1.9005 -0.1500 -0.0871
  183DOPC  H13Y22538   0.199   5.032   4.593  0.4636  0.0247  0.4054
  183DOPC  C31422539   0.378   5.155   4.609 -0.8791 -0.5521 -0.0492
  183DOPC  H14X22540   0.435   5.083   4.672 -0.7563 -2.2619 -1.9709
  183DOPC  H14Y22541   0.463   5.188   4.544  0.8852 -1.0329  1.9025
  183DOPC  C31522542   0.324   5.285   4.678 -0.3428  0.3903 -0.0980
  183DOPC  H15X22543   0.248   5.263   4.756 -0.2813  3.5610  0.9919
  183DOPC  H15Y22544   0.268   5.351   4.608  0.0270 -1.0348 -1.8213
  183DOPC  C31622545   0.446   5.361   4.731 -0.0045  0.1816  0.2397
  183DOPC  H16X22546   0.480   5.289   4.809 -0.2508 -0.8834 -0.5970
  183DOPC  H16Y22547   0.525   5.352   4.653  0.3214 -1.7149  0.7198
  183DOPC  C31722548   0.437   5.507   4.777  0.2967  0.2435  0.1960
  183DOPC  H17X22549   0.541   5.540   4.799 -0.1288  1.9440 -0.1745
  183DOPC  H17Y22550   0.407   5.571   4.691 -2.2374 -2.4699 -1.1182
  183DOPC  C31822551   0.332   5.536   4.886 -0.3835  0.1339 -0.3683
  183DOPC  H18X22552   0.233   5.523   4.836  1.2295 -2.0485 -3.2998
  183DOPC  H18Y22553   0.331   5.466   4.973  2.9881 -0.8671 -0.9997
  183DOPC  H18Z22554   0.354   5.636   4.929  3.1322  0.1290 -1.8656
  184DOPC     N22555   4.307   0.647   2.837  0.3478 -0.0540 -0.7485
  184DOPC   C1222556   4.403   0.765   2.835  0.2611 -0.7958  0.0742
  184DOPC  H12A22557   4.348   0.854   2.863  0.9257  0.1067 -1.3588
  184DOPC  H12B22558   4.436   0.772   2.733  1.1169  1.7082  0.4499
  184DOPC   C1322559   4.365   0.544   2.744 -0.0223 -0.0169 -0.0479
  184DOPC  H13A22560   4.314   0.449   2.749  0.5265 -0.4206 -1.5375
  184DOPC  H13B22561   4.373   0.586   2.645 -2.4019  2.1861  0.5822
  184DOPC  H13C22562   4.468   0.530   2.775 -0.3226  0.7388  1.3760
  184DOPC   C1422563   4.164   0.676   2.801 -0.0060 -0.0336  0.8866
  184DOPC  H14A22564   4.117   0.756   2.856  1.2156  1.6184 -0.3612
  184DOPC  H14B22565   4.176   0.708   2.699 -0.1156  1.1446  1.2231
  184DOPC  H14C22566   4.106   0.585   2.803 -1.0079  0.5805  0.1360
  184DOPC   C1522567   4.299   0.586   2.981  0.2996  0.2200 -0.4574
  184DOPC  H15A22568   4.245   0.493   2.972  0.3570  0.3429 -2.7189
  184DOPC  H15B22569   4.257   0.662   3.044  0.8968  2.1030 -2.2064
  184DOPC  H15C22570   4.399   0.559   3.014 -0.2062 -2.4491 -0.8458
  184DOPC   C1122571   4.535   0.756   2.922  0.2849 -0.9382 -0.3157
  184DOPC  H11A22572   4.594   0.850   2.917  1.1413 -1.4041  0.6920
  184DOPC  H11B22573   4.492   0.756   3.024 -0.1412  0.0968 -0.4814
  184DOPC     P22574   4.714   0.573   3.007  0.3464  0.3647  0.1579
  184DOPC   O1322575   4.841   0.539   2.941  0.2206  0.2168 -0.8430
  184DOPC   O1422576   4.644   0.471   3.088  0.4199  0.4510  0.6302
  184DOPC   O1222577   4.619   0.642   2.884 -0.2784  0.1060 -0.6740
  184DOPC   O1122578   4.725   0.705   3.093 -0.0010  0.0310  0.1731
  184DOPC    C122579   4.787   0.707   3.218  0.7536 -0.8426  0.6875
  184DOPC    HA22580   4.878   0.643   3.215  0.1060 -1.9085  2.1382
  184DOPC    HB22581   4.713   0.672   3.294  1.1095 -1.2311  0.8657
  184DOPC    C222582   4.822   0.850   3.262  0.3109  0.1749 -0.2676
  184DOPC    HS22583   4.905   0.890   3.200  0.1606  0.3200 -0.3773
  184DOPC   O2122584   4.839   0.855   3.408  0.0351  0.4725  0.2776
  184DOPC   C2122585   4.957   0.898   3.458 -0.0526  0.6463 -0.3502
  184DOPC   O2222586   5.056   0.931   3.396  0.0168  0.8320  0.2428
  184DOPC   C2222587   4.948   0.900   3.610  0.1314 -0.7521 -0.4260
  184DOPC   H2R22588   4.963   0.797   3.648 -2.9088 -0.6455  1.3837
  184DOPC   H2S22589   4.840   0.906   3.633 -0.2759 -0.3130 -2.2868
  184DOPC    C322590   4.699   0.950   3.219 -0.1661  0.4168  0.1559
  184DOPC    HX22591   4.681   0.947   3.109  0.0847  1.6061  0.0652
  184DOPC    HY22592   4.739   1.053   3.233 -0.3523  0.7260 -1.3347
  184DOPC   O3122593   4.581   0.932   3.299  0.4759 -0.3279 -0.1980
  184DOPC   C3122594   4.491   1.036   3.300  0.0016 -0.4843  0.8321
  184DOPC   O3222595   4.503   1.146   3.246  0.0426 -0.0716 -0.4490
  184DOPC   C3222596   4.385   1.002   3.407  0.3148  0.0771 -0.3341
  184DOPC   H2X22597   4.299   1.061   3.368  0.8438 -0.0405 -1.7547
  184DOPC   H2Y22598   4.375   0.893   3.393  2.4978 -0.2178  0.0152
  184DOPC   C2322599   5.028   1.016   3.678 -0.1743  0.1583  0.5277
  184DOPC   H3R22600   4.996   1.105   3.619 -2.2206 -0.3404  0.8279
  184DOPC   H3S22601   5.135   0.998   3.655  0.0323 -0.1450  1.6582
  184DOPC   C2422602   5.002   1.049   3.824 -0.0231 -0.2014  0.2642
  184DOPC   H4R22603   4.895   1.045   3.854  0.4855  0.2499  2.2959
  184DOPC   H4S22604   5.037   1.154   3.833 -1.5266  0.2211  1.7711
  184DOPC   C2522605   5.095   0.975   3.926  0.3947 -0.1804 -0.1235
  184DOPC   H5R22606   5.201   0.988   3.896  0.1913  2.3589  0.0749
  184DOPC   H5S22607   5.072   0.866   3.915  1.2135 -0.2762 -1.0096
  184DOPC   C2622608   5.067   1.014   4.074 -0.6386 -0.9362 -0.6384
  184DOPC   H6R22609   4.961   0.988   4.091 -0.8368  0.6224  0.7129
  184DOPC   H6S22610   5.082   1.124   4.077  1.2510 -1.1725  0.2127
  184DOPC   C2722611   5.164   0.962   4.188  0.4152 -0.1552  0.4143
  184DOPC   H7R22612   5.255   1.022   4.170 -1.6219  3.2257  0.5807
  184DOPC   H7S22613   5.178   0.851   4.186 -1.7739 -0.4797  0.8153
  184DOPC   C2822614   5.119   1.010   4.329  0.2574  0.0472  0.3007
  184DOPC   H8R22615   5.128   1.120   4.317  3.2060 -0.3684 -2.5047
  184DOPC   H8S22616   5.195   0.992   4.408 -0.3494  1.4330  1.2358
  184DOPC   C2922617   4.977   0.964   4.371  0.1731  0.1700 -0.8532
  184DOPC   H9R22618   4.891   1.017   4.326 -1.4976 -0.0246  1.9170
  184DOPC  C21022619   4.952   0.873   4.465  0.5251 -0.2949 -0.3167
  184DOPC  H10R22620   4.847   0.838   4.464 -0.9918  3.7116  0.0908
  184DOPC  C21122621   5.051   0.790   4.542  0.1945  0.1585 -0.2488
  184DOPC  H11R22622   5.151   0.790   4.494  0.6851  1.9756  0.6632
  184DOPC  H11S22623   5.021   0.683   4.550  0.4928 -0.0304 -1.4523
  184DOPC  C21222624   5.074   0.835   4.686  0.1606  0.5474  0.3517
  184DOPC  H12R22625   4.988   0.821   4.755  0.6202 -2.1672  0.4713
  184DOPC  H12S22626   5.088   0.945   4.687  1.0929  0.4777  2.6203
  184DOPC  C21322627   5.203   0.756   4.730 -0.6261  0.1606 -0.0385
  184DOPC  H13R22628   5.287   0.792   4.667  0.2422  0.9476  1.5058
  184DOPC  H13S22629   5.191   0.646   4.718  2.2361 -0.3418  0.9704
  184DOPC  C21422630   5.245   0.790   4.878  0.8046 -0.4293 -0.7687
  184DOPC  H14R22631   5.296   0.889   4.880  1.0295 -0.5580  0.0814
  184DOPC  H14S22632   5.328   0.722   4.907 -0.1083 -0.7872  1.0846
  184DOPC  C21522633   5.134   0.769   4.984 -0.4866 -0.3559  0.8117
  184DOPC  H15R22634   5.083   0.672   4.967  0.2650 -0.2928 -2.2133
  184DOPC  H15S22635   5.053   0.845   4.975 -1.6529 -1.7878 -1.7421
  184DOPC  C21622636   5.183   0.776   5.135 -0.8782  0.2962  0.6360
  184DOPC  H16R22637   5.236   0.873   5.137  0.4656 -0.3989 -0.0259
  184DOPC  H16S22638   5.254   0.695   5.165  1.3685  2.5524  1.7705
  184DOPC  C21722639   5.065   0.788   5.238 -0.1242 -0.0623  0.1180
  184DOPC  H17R22640   5.036   0.683   5.262  3.1889 -0.9169  0.9610
  184DOPC  H17S22641   4.986   0.842   5.183  0.3771 -0.2287 -0.7748
  184DOPC  C21822642   5.107   0.847   5.369 -0.4440 -0.2180 -0.5436
  184DOPC  H18R22643   5.167   0.938   5.347 -1.0588  0.3465  0.0329
  184DOPC  H18S22644   5.151   0.773   5.439  0.9286 -0.2188 -1.3753
  184DOPC  H18T22645   5.012   0.876   5.419  0.0141 -0.2690  0.3759
  184DOPC   C3322646   4.422   1.032   3.555 -0.3360 -0.8288 -0.3173
  184DOPC   H3X22647   4.341   0.995   3.620 -0.7492  0.6527  0.0604
  184DOPC   H3Y22648   4.437   1.141   3.571  0.7552 -0.8609 -0.9945
  184DOPC   C3422649   4.552   0.971   3.599  0.2796  0.0048 -0.7399
  184DOPC   H4X22650   4.637   1.033   3.564 -0.3918  1.2040 -0.3088
  184DOPC   H4Y22651   4.555   0.884   3.530 -3.4804  0.0529 -1.1967
  184DOPC   C3522652   4.561   0.940   3.749  0.4597  0.1814 -0.1217
  184DOPC   H5X22653   4.661   0.894   3.763  1.0758  1.0589 -1.4473
  184DOPC   H5Y22654   4.489   0.860   3.779  2.1186 -0.7730  1.5547
  184DOPC   C3622655   4.550   1.064   3.838  0.1374  0.4092  0.1198
  184DOPC   H6X22656   4.598   1.151   3.789  3.6928  0.2334  2.8267
  184DOPC   H6Y22657   4.443   1.089   3.846 -0.0245 -0.4200  0.6690
  184DOPC   C3722658   4.623   1.046   3.969 -0.5585 -0.1235 -0.5025
  184DOPC   H7X22659   4.584   0.952   4.013 -1.9029  0.2834 -0.7667
  184DOPC   H7Y22660   4.731   1.027   3.952 -0.5148  1.4145 -2.2481
  184DOPC   C3822661   4.600   1.150   4.080 -0.7599  0.4047 -0.1510
  184DOPC   H8X22662   4.633   1.108   4.178 -2.3863  1.8139  1.0739
  184DOPC   H8Y22663   4.490   1.165   4.084 -1.0505 -1.4355 -0.1163
  184DOPC   C3922664   4.684   1.274   4.051  0.2329  0.2934  0.0516
  184DOPC   H9X22665   4.689   1.303   3.945 -1.4344  0.2153 -0.0763
  184DOPC  C31022666   4.757   1.342   4.140  0.9983  0.3741  0.6018
  184DOPC  H10X22667   4.805   1.438   4.113 -0.7091  0.7596 -1.3633
  184DOPC  C31122668   4.770   1.311   4.291 -0.6921 -0.2601 -0.3086
  184DOPC  H11X22669   4.844   1.383   4.331 -2.3192  0.9551  0.6004
  184DOPC  H11Y22670   4.828   1.219   4.316  0.4958  0.6595  0.4328
  184DOPC  C31222671   4.651   1.313   4.387  0.0774 -0.6534 -0.1310
  184DOPC  H12X22672   4.575   1.234   4.368 -0.3910 -0.7447  1.9366
  184DOPC  H12Y22673   4.600   1.410   4.369  1.5459  0.2773  0.5492
  184DOPC  C31322674   4.680   1.302   4.538  0.0001 -0.0234 -0.1838
  184DOPC  H13X22675   4.585   1.291   4.593  0.2748  1.4073  0.6169
  184DOPC  H13Y22676   4.740   1.213   4.568  1.6415  1.4724  1.2068
  184DOPC  C31422677   4.736   1.431   4.600  0.3449  0.5031 -0.2176
  184DOPC  H14X22678   4.841   1.430   4.565  0.4224 -1.2141 -0.0457
  184DOPC  H14Y22679   4.695   1.517   4.543  0.9547  0.5747 -0.5533
  184DOPC  C31522680   4.702   1.440   4.748 -0.4007  0.3826  0.0372
  184DOPC  H15X22681   4.732   1.347   4.801  0.5367  0.2072 -0.7660
  184DOPC  H15Y22682   4.592   1.452   4.758 -0.4937  0.9811 -1.4400
  184DOPC  C31622683   4.778   1.556   4.823 -0.4671  0.0358 -0.3398
  184DOPC  H16X22684   4.750   1.642   4.758 -1.6129  0.0703  0.1820
  184DOPC  H16Y22685   4.732   1.568   4.923 -1.6495 -0.0434 -0.8537
  184DOPC  C31722686   4.930   1.546   4.821  0.6852  0.3959  0.3699
  184DOPC  H17X22687   4.956   1.440   4.842 -1.3906 -0.0567  0.8325
  184DOPC  H17Y22688   4.963   1.557   4.715 -1.6958  0.0695 -0.4580
  184DOPC  C31822689   5.002   1.641   4.917 -0.6252  0.7026 -0.0100
  184DOPC  H18X22690   5.113   1.635   4.914 -0.4823  2.3765  0.9638
  184DOPC  H18Y22691   4.990   1.744   4.877  0.1873  0.7129 -0.2517
  184DOPC  H18Z22692   4.962   1.655   5.020  0.5399 -0.6037  0.6590
  185DOPC     N22693   7.669   5.506   2.635  0.2584  0.0447 -0.7331
  185DOPC   C1222694   7.511   5.492   2.647 -0.3235  0.2699  0.7786
  185DOPC  H12A22695   7.484   5.388   2.657 -0.7206  0.3068  0.1782
  185DOPC  H12B22696   7.468   5.528   2.555  0.3936  0.7322  0.6148
  185DOPC   C1322697   7.724   5.484   2.775 -0.3273 -0.7168  0.7318
  185DOPC  H13A22698   7.707   5.577   2.826  2.9729 -0.7089  2.0481
  185DOPC  H13B22699   7.667   5.409   2.827 -2.3448 -1.0438 -1.7107
  185DOPC  H13C22700   7.828   5.456   2.768 -0.2992 -0.3497 -0.6316
  185DOPC   C1422701   7.705   5.639   2.579  0.4332 -0.8689 -0.1041
  185DOPC  H14A22702   7.693   5.639   2.471 -1.0600  2.3905 -0.0634
  185DOPC  H14B22703   7.632   5.707   2.621  1.7943 -0.6737  2.0499
  185DOPC  H14C22704   7.802   5.677   2.605 -0.7053  0.1083  3.1993
  185DOPC   C1522705   7.723   5.400   2.540  0.3835 -0.3466  0.4216
  185DOPC  H15A22706   7.827   5.420   2.517  0.2386 -0.5377 -0.3999
  185DOPC  H15B22707   7.664   5.396   2.450  0.6042  2.6611  0.0207
  185DOPC  H15C22708   7.719   5.303   2.587 -0.4851 -1.0294 -1.0179
  185DOPC   C1122709   7.440   5.571   2.756 -0.2961  1.1661  0.1651
  185DOPC  H11A22710   7.332   5.546   2.764  0.0361 -0.1762  0.8835
  185DOPC  H11B22711   7.480   5.528   2.851 -2.6225 -1.6717 -0.0116
  185DOPC     P22712   7.514   5.798   2.866 -0.3550  0.1899  0.4271
  185DOPC   O1322713   7.526   5.933   2.822  0.0844 -0.5026 -0.5670
  185DOPC   O1422714   7.639   5.736   2.913  0.2390  0.1002  0.4106
  185DOPC   O1222715   7.460   5.708   2.748  0.2780 -0.5437  0.4011
  185DOPC   O1122716   7.410   5.784   2.987 -0.0536 -0.1691  0.2990
  185DOPC    C122717   7.291   5.856   2.997 -0.3713 -0.0187  0.7219
  185DOPC    HA22718   7.227   5.845   2.906  0.0568  0.2491  0.3837
  185DOPC    HB22719   7.311   5.961   3.028 -1.1600  0.1638  0.6260
  185DOPC    C222720   7.196   5.802   3.114 -0.0194 -0.2963 -0.8072
  185DOPC    HS22721   7.109   5.871   3.120  0.9818  0.9668 -0.3543
  185DOPC   O2122722   7.268   5.808   3.239 -0.1915 -0.4217 -0.1864
  185DOPC   C2122723   7.201   5.832   3.348  0.8019  0.6428  0.0611
  185DOPC   O2222724   7.081   5.836   3.366  0.2349 -0.5459  0.4861
  185DOPC   C2222725   7.300   5.867   3.454  0.4631  0.3675  0.2467
  185DOPC   H2R22726   7.347   5.967   3.442  0.2385  0.2574 -2.0525
  185DOPC   H2S22727   7.383   5.793   3.458  0.8957  0.8699  0.7452
  185DOPC    C322728   7.144   5.657   3.084  0.1369 -0.0845  0.3040
  185DOPC    HX22729   7.233   5.598   3.053 -0.6151 -0.8905 -0.3664
  185DOPC    HY22730   7.083   5.662   2.992  0.7091 -1.3541 -0.1634
  185DOPC   O3122731   7.085   5.593   3.197 -0.4871  0.2602  0.0632
  185DOPC   C3122732   6.953   5.560   3.191  0.1118  0.2476 -0.1460
  185DOPC   O3222733   6.885   5.552   3.087  0.2776 -0.2285  0.8121
  185DOPC   C3222734   6.911   5.511   3.327  0.0248 -0.3504 -0.5414
  185DOPC   H2X22735   6.999   5.458   3.369  0.1276  0.4850  0.3206
  185DOPC   H2Y22736   6.889   5.598   3.393 -1.0848  0.5691 -2.0473
  185DOPC   C2322737   7.248   5.852   3.602  0.3126  0.0701 -0.7287
  185DOPC   H3R22738   7.315   5.789   3.665 -1.4293 -1.6061 -0.4715
  185DOPC   H3S22739   7.152   5.797   3.591  0.5351 -0.8828  1.5186
  185DOPC   C2422740   7.218   5.986   3.668  0.2905  0.0055  0.9135
  185DOPC   H4R22741   7.155   6.047   3.600 -0.3916 -0.3000  1.2628
  185DOPC   H4S22742   7.312   6.045   3.667  0.8752 -0.9342 -0.1303
  185DOPC   C2522743   7.148   5.971   3.807 -0.2168 -0.6179 -0.0217
  185DOPC   H5R22744   7.062   5.901   3.802  0.1453 -0.9732 -1.8013
  185DOPC   H5S22745   7.091   6.065   3.821 -2.4821 -2.0373  0.8886
  185DOPC   C2622746   7.250   5.944   3.919 -0.1085 -0.7764  0.1192
  185DOPC   H6R22747   7.271   6.035   3.979  0.3230 -0.7598 -0.0584
  185DOPC   H6S22748   7.345   5.904   3.878 -1.1369 -1.0653 -2.1390
  185DOPC   C2722749   7.215   5.825   4.008  0.3104  0.5309 -0.4676
  185DOPC   H7R22750   7.309   5.803   4.063 -0.2111  2.8450  1.5387
  185DOPC   H7S22751   7.191   5.734   3.950  2.5748 -2.9315  3.4656
  185DOPC   C2822752   7.116   5.857   4.119 -0.1654 -0.6288 -0.1071
  185DOPC   H8R22753   7.146   5.935   4.191 -0.1108 -2.0785  1.5032
  185DOPC   H8S22754   7.129   5.763   4.176  0.7373  0.4082  1.4556
  185DOPC   C2922755   6.977   5.870   4.079 -0.4967  0.4208  0.5010
  185DOPC   H9R22756   6.964   5.924   3.984  0.5195  3.2330  1.8627
  185DOPC  C21022757   6.868   5.829   4.143  0.5480 -0.7023  0.2337
  185DOPC  H10R22758   6.770   5.861   4.105  1.0071  3.0533  1.7788
  185DOPC  C21122759   6.862   5.762   4.278 -0.1335 -0.1545  0.1511
  185DOPC  H11R22760   6.795   5.826   4.340 -0.7041 -1.2375  0.6731
  185DOPC  H11S22761   6.958   5.759   4.333 -0.0579  1.2561  0.1232
  185DOPC  C21222762   6.797   5.626   4.274  0.0382  0.0492 -0.2750
  185DOPC  H12R22763   6.880   5.559   4.243 -1.2543 -1.4091 -0.6778
  185DOPC  H12S22764   6.716   5.617   4.198 -2.2370  0.6638  1.9319
  185DOPC  C21322765   6.759   5.574   4.414  0.1028 -0.4338  0.3812
  185DOPC  H13R22766   6.685   5.634   4.472 -0.9984 -1.4328  0.0408
  185DOPC  H13S22767   6.853   5.582   4.473  0.3995  2.3971 -0.3241
  185DOPC  C21422768   6.701   5.433   4.430  0.2095 -0.2975  0.5623
  185DOPC  H14R22769   6.772   5.361   4.384  0.8431  0.4769  0.3220
  185DOPC  H14S22770   6.607   5.428   4.370  1.9531 -0.5081 -2.3397
  185DOPC  C21522771   6.688   5.397   4.579 -0.4492  0.1770 -0.2518
  185DOPC  H15R22772   6.618   5.311   4.586 -3.1876  2.3591  1.3859
  185DOPC  H15S22773   6.636   5.481   4.628 -0.4858  0.5470 -0.9161
  185DOPC  C21622774   6.823   5.366   4.639  0.4378  0.2554 -0.1853
  185DOPC  H16R22775   6.859   5.467   4.668 -2.6299  2.2878 -2.7001
  185DOPC  H16S22776   6.888   5.323   4.560  0.1816 -0.6440  0.0846
  185DOPC  C21722777   6.817   5.276   4.765  0.2874 -0.6002 -0.3318
  185DOPC  H17R22778   6.919   5.267   4.810  1.3999 -0.0273 -2.6087
  185DOPC  H17S22779   6.795   5.173   4.728  1.3553 -1.2729  0.8097
  185DOPC  C21822780   6.711   5.311   4.875  0.0836 -0.1536 -0.6016
  185DOPC  H18R22781   6.614   5.284   4.828 -0.1781 -1.0937  0.4295
  185DOPC  H18S22782   6.717   5.418   4.903  2.0581 -0.4410  0.2726
  185DOPC  H18T22783   6.722   5.258   4.972 -1.5951  1.3349  0.4461
  185DOPC   C3322784   6.790   5.417   3.327 -0.1288 -0.2926  0.2655
  185DOPC   H3X22785   6.792   5.348   3.414 -2.0803  0.7209  1.1733
  185DOPC   H3Y22786   6.786   5.358   3.233 -0.6611 -0.1423  0.1920
  185DOPC   C3422787   6.659   5.498   3.335  0.8256 -0.1634 -0.6370
  185DOPC   H4X22788   6.668   5.596   3.285 -1.0894  1.7020  2.3281
  185DOPC   H4Y22789   6.631   5.521   3.440 -1.5939 -2.6527 -0.6413
  185DOPC   C3522790   6.542   5.424   3.274 -0.6479  0.5627 -0.2481
  185DOPC   H5X22791   6.446   5.454   3.320 -0.2893  2.1340 -0.4522
  185DOPC   H5Y22792   6.559   5.316   3.292 -2.1354  0.4430  0.5469
  185DOPC   C3622793   6.534   5.454   3.125 -0.0753 -0.3003 -0.8974
  185DOPC   H6X22794   6.525   5.564   3.114 -1.5785  0.1656  3.1881
  185DOPC   H6Y22795   6.631   5.425   3.079  0.1938  0.3642 -0.7538
  185DOPC   C3722796   6.426   5.372   3.042  0.3294 -0.6872 -0.6987
  185DOPC   H7X22797   6.318   5.386   3.063  0.2759  0.0637 -1.4049
  185DOPC   H7Y22798   6.451   5.428   2.950  0.4635  0.0683 -0.2156
  185DOPC   C3822799   6.460   5.222   3.019 -0.2120 -0.2643 -0.2046
  185DOPC   H8X22800   6.383   5.177   2.952 -0.4380 -1.4751  0.8218
  185DOPC   H8Y22801   6.425   5.169   3.111 -0.3325 -2.0306 -1.2265
  185DOPC   C3922802   6.602   5.179   2.969  0.3921 -0.0360 -0.0240
  185DOPC   H9X22803   6.668   5.136   3.046  1.0317  3.0169  1.2596
  185DOPC  C31022804   6.650   5.203   2.844  0.2122  0.0882  0.3063
  185DOPC  H10X22805   6.748   5.166   2.811  0.0886  0.0256  0.0132
  185DOPC  C31122806   6.575   5.275   2.734  0.3241 -0.1850  0.4150
  185DOPC  H11X22807   6.650   5.318   2.664 -0.9732  1.5049  0.0059
  185DOPC  H11Y22808   6.525   5.362   2.782  0.4435  0.6402 -0.9073
  185DOPC  C31222809   6.467   5.198   2.653 -0.3652  0.1055  0.5341
  185DOPC  H12X22810   6.428   5.252   2.564  0.0281  0.4408  0.5649
  185DOPC  H12Y22811   6.379   5.180   2.719 -1.5864  0.5528 -0.8990
  185DOPC  C31322812   6.520   5.060   2.604 -0.2172 -1.4499 -0.0753
  185DOPC  H13X22813   6.564   5.004   2.689  0.4267  0.1795  0.7211
  185DOPC  H13Y22814   6.442   5.003   2.550 -0.0945 -2.1512  0.4811
  185DOPC  C31422815   6.632   5.080   2.493  0.1552 -0.3188 -0.0450
  185DOPC  H14X22816   6.674   5.182   2.491  1.4681 -0.8403 -0.2522
  185DOPC  H14Y22817   6.714   5.006   2.502 -0.8486 -1.3789  0.8590
  185DOPC  C31522818   6.582   5.054   2.350 -0.0128 -0.8290  0.3593
  185DOPC  H15X22819   6.498   5.123   2.326 -0.3151 -1.4397 -0.3879
  185DOPC  H15Y22820   6.543   4.950   2.351  0.0318 -0.8698 -0.7443
  185DOPC  C31622821   6.689   5.078   2.239 -0.9340  0.7344 -1.2103
  185DOPC  H16X22822   6.739   5.177   2.249  1.8694 -0.5621 -1.2811
  185DOPC  H16Y22823   6.772   5.005   2.256 -2.2613 -0.5479  0.0004
  185DOPC  C31722824   6.648   5.077   2.092 -0.7417 -0.3546  0.2268
  185DOPC  H17X22825   6.544   5.115   2.086 -0.7366 -0.5581 -1.4773
  185DOPC  H17Y22826   6.709   5.149   2.033  2.5590 -3.3893 -0.4302
  185DOPC  C31822827   6.665   4.951   2.007 -0.1895 -0.4753  1.0853
  185DOPC  H18X22828   6.622   4.961   1.905  2.3256 -2.7150 -0.3183
  185DOPC  H18Y22829   6.763   4.902   1.989 -0.7439 -1.3866  0.4783
  185DOPC  H18Z22830   6.598   4.869   2.041  0.0494 -1.5960 -0.9724
  186DOPC     N22831   7.268   2.830   2.826 -0.1167  0.7203  0.1614
  186DOPC   C1222832   7.321   2.867   2.959  0.3469 -0.6240 -0.0288
  186DOPC  H12A22833   7.280   2.961   2.995 -1.1552 -1.2255 -0.0790
  186DOPC  H12B22834   7.422   2.904   2.955 -0.3553  1.7294  1.4541
  186DOPC   C1322835   7.121   2.804   2.833 -0.3724 -0.1529 -0.0025
  186DOPC  H13A22836   7.087   2.754   2.744  0.9849 -2.1537  0.5365
  186DOPC  H13B22837   7.092   2.742   2.917 -0.6243  0.0202  0.0396
  186DOPC  H13C22838   7.080   2.903   2.844  0.9919  0.2894  1.6457
  186DOPC   C1422839   7.330   2.703   2.775 -0.7450 -0.4343  0.1935
  186DOPC  H14A22840   7.291   2.671   2.679  2.1967  1.8999 -1.9467
  186DOPC  H14B22841   7.437   2.708   2.770 -0.7085  0.0295  1.2452
  186DOPC  H14C22842   7.312   2.623   2.846  1.2233  0.4254  1.7383
  186DOPC   C1522843   7.300   2.939   2.725  0.5471 -0.0976 -0.0358
  186DOPC  H15A22844   7.243   2.935   2.633 -0.0880  1.6889  0.2405
  186DOPC  H15B22845   7.406   2.939   2.708  0.5974 -2.8216 -0.2033
  186DOPC  H15C22846   7.274   3.035   2.767 -0.8087 -0.4725  0.0240
  186DOPC   C1122847   7.304   2.771   3.082  0.2821  0.1370  0.8734
  186DOPC  H11A22848   7.318   2.828   3.176  0.9068 -1.6689  1.9371
  186DOPC  H11B22849   7.208   2.717   3.065  2.0298 -2.6338 -1.2148
  186DOPC     P22850   7.546   2.677   3.104 -0.6196 -0.0385  0.1518
  186DOPC   O1322851   7.595   2.807   3.053 -0.1043 -0.2442 -0.1907
  186DOPC   O1422852   7.619   2.561   3.052 -0.6905  0.2160 -0.3023
  186DOPC   O1222853   7.396   2.664   3.070  0.2487  0.0884 -0.0505
  186DOPC   O1122854   7.540   2.670   3.265 -0.0116  0.5781  0.4182
  186DOPC    C122855   7.619   2.754   3.342  0.2339 -0.7950 -0.5796
  186DOPC    HA22856   7.587   2.860   3.331  1.2659 -0.3079  0.7947
  186DOPC    HB22857   7.726   2.753   3.311  0.3131 -1.8198 -0.3201
  186DOPC    C222858   7.612   2.716   3.494 -0.0814  0.3387  0.4935
  186DOPC    HS22859   7.507   2.724   3.529 -0.4465 -0.4821 -0.3621
  186DOPC   O2122860   7.695   2.811   3.561 -0.5485  0.0285 -0.0574
  186DOPC   C2122861   7.668   2.828   3.690  0.3103 -0.5699  0.7522
  186DOPC   O2222862   7.591   2.756   3.750 -0.4118  0.2676 -0.2413
  186DOPC   C2222863   7.744   2.949   3.744 -0.6079  0.3676 -0.4127
  186DOPC   H2R22864   7.661   3.019   3.767 -0.0616  0.6009  1.0094
  186DOPC   H2S22865   7.807   2.984   3.660  0.3539  0.3602  0.2831
  186DOPC    C322866   7.662   2.568   3.513 -0.2367 -0.3141 -0.3737
  186DOPC    HX22867   7.769   2.552   3.488 -0.2845  2.6401 -3.1716
  186DOPC    HY22868   7.613   2.502   3.438 -1.5828 -0.4859  0.6065
  186DOPC   O3122869   7.631   2.514   3.647 -0.1592  0.2162  0.0853
  186DOPC   C3122870   7.513   2.465   3.678  0.0950 -0.4499  0.5391
  186DOPC   O3222871   7.419   2.454   3.605  0.3068  0.6934  0.3285
  186DOPC   C3222872   7.499   2.439   3.826 -0.2037 -0.5873 -0.7643
  186DOPC   H2X22873   7.599   2.405   3.860 -0.1987 -0.8453 -1.0409
  186DOPC   H2Y22874   7.483   2.538   3.874 -0.0961 -0.4432 -1.0216
  186DOPC   C2322875   7.825   2.913   3.869  0.3439 -0.7395  0.5289
  186DOPC   H3R22876   7.906   2.984   3.895  0.0558 -0.0444 -0.4314
  186DOPC   H3S22877   7.883   2.819   3.860  2.0627  0.2882  0.3434
  186DOPC   C2422878   7.740   2.879   3.991  0.2891 -0.6042 -0.0666
  186DOPC   H4R22879   7.706   2.774   3.986 -0.7878 -0.2850  0.1168
  186DOPC   H4S22880   7.655   2.951   3.991  1.5859  1.1026  2.5020
  186DOPC   C2522881   7.815   2.903   4.124  0.8569 -0.2915  0.8826
  186DOPC   H5R22882   7.751   2.874   4.210 -2.3852  2.7629 -0.2552
  186DOPC   H5S22883   7.831   3.014   4.125  4.0128 -0.6141  0.0246
  186DOPC   C2622884   7.955   2.836   4.152  0.5357  0.3166  1.3442
  186DOPC   H6R22885   8.025   2.865   4.070  0.1674  0.2736  1.0095
  186DOPC   H6S22886   7.945   2.726   4.148  0.4118  0.3138  1.7628
  186DOPC   C2722887   8.010   2.887   4.277  0.0556 -0.6150  0.4998
  186DOPC   H7R22888   7.951   2.843   4.361 -0.5093  0.7794  0.8666
  186DOPC   H7S22889   7.997   2.998   4.275 -0.4149 -0.6542  1.1133
  186DOPC   C2822890   8.156   2.853   4.312 -0.2945 -0.5415 -0.1036
  186DOPC   H8R22891   8.175   2.745   4.293 -0.8415 -0.3909 -1.6877
  186DOPC   H8S22892   8.174   2.866   4.421  3.1050  1.6415 -0.7764
  186DOPC   C2922893   8.253   2.934   4.237  0.9184  0.1007  0.4120
  186DOPC   H9R22894   8.235   2.940   4.129  1.4702  1.8458  0.3845
  186DOPC  C21022895   8.351   3.009   4.292  0.2275 -0.5461 -0.1558
  186DOPC  H10R22896   8.428   3.057   4.229 -0.8264 -0.7378 -1.6226
  186DOPC  C21122897   8.375   3.026   4.442  0.5316 -0.4994 -0.4597
  186DOPC  H11R22898   8.486   3.034   4.450  0.9795 -2.9904 -2.9266
  186DOPC  H11S22899   8.348   2.937   4.502 -0.3282  0.9918  1.4992
  186DOPC  C21222900   8.306   3.150   4.512 -0.6225 -0.2933 -0.0778
  186DOPC  H12R22901   8.197   3.138   4.501 -1.4430  3.2357  2.4392
  186DOPC  H12S22902   8.346   3.241   4.463 -0.0599 -0.6525 -0.3097
  186DOPC  C21322903   8.313   3.150   4.668  0.7841 -0.0541  0.1965
  186DOPC  H13R22904   8.421   3.159   4.690  1.1872 -1.1433 -1.1327
  186DOPC  H13S22905   8.281   3.052   4.710  0.1594  0.8325  1.8492
  186DOPC  C21422906   8.227   3.256   4.733 -0.0718  0.2701 -0.4094
  186DOPC  H14R22907   8.120   3.255   4.706 -0.1611  1.3264 -0.1272
  186DOPC  H14S22908   8.267   3.354   4.700  1.8189 -0.7744 -1.4216
  186DOPC  C21522909   8.240   3.247   4.888  0.5973 -0.0769 -0.0450
  186DOPC  H15R22910   8.310   3.166   4.919  2.0251  1.2635  0.3430
  186DOPC  H15S22911   8.143   3.222   4.935  1.0908  0.6798  1.4404
  186DOPC  C21622912   8.295   3.378   4.953 -0.2291 -0.1903 -0.1188
  186DOPC  H16R22913   8.223   3.458   4.925  1.7670  1.6775 -0.1341
  186DOPC  H16S22914   8.395   3.393   4.909  0.6368 -0.3311  1.6969
  186DOPC  C21722915   8.300   3.377   5.106  0.0715  0.6412 -0.9259
  186DOPC  H17R22916   8.349   3.476   5.120  1.2600 -0.0355 -0.0785
  186DOPC  H17S22917   8.379   3.311   5.149 -0.9860 -1.9375 -2.7375
  186DOPC  C21822918   8.169   3.357   5.182 -0.0848 -0.7227  0.2215
  186DOPC  H18R22919   8.185   3.367   5.292 -1.8374  1.1813  0.3632
  186DOPC  H18S22920   8.125   3.258   5.159 -0.3191 -0.7780  0.8707
  186DOPC  H18T22921   8.097   3.437   5.157 -0.5880 -1.8769 -2.2741
  186DOPC   C3322922   7.386   2.338   3.870  0.4632 -0.5278 -0.2584
  186DOPC   H3X22923   7.385   2.246   3.808  0.9708 -2.2143  2.0605
  186DOPC   H3Y22924   7.286   2.384   3.858 -0.3096 -1.8046  0.9582
  186DOPC   C3422925   7.396   2.290   4.018 -0.6778  0.2189  0.0120
  186DOPC   H4X22926   7.500   2.251   4.019 -1.1386 -1.0453  0.5862
  186DOPC   H4Y22927   7.331   2.201   4.029 -0.9713  0.3944 -0.3177
  186DOPC   C3522928   7.373   2.409   4.108  0.9273 -0.0787  0.6141
  186DOPC   H5X22929   7.274   2.453   4.083 -1.2606 -4.2400  1.1487
  186DOPC   H5Y22930   7.457   2.480   4.091  0.8184 -0.0044  0.3845
  186DOPC   C3622931   7.377   2.367   4.259 -0.5200  0.4709 -0.7007
  186DOPC   H6X22932   7.471   2.309   4.270 -0.7251  0.3195  0.3224
  186DOPC   H6Y22933   7.368   2.462   4.316 -2.5285 -0.4945  0.6908
  186DOPC   C3722934   7.257   2.283   4.307 -0.3113 -0.0716  0.5633
  186DOPC   H7X22935   7.161   2.328   4.274 -1.0857 -0.1351  2.5737
  186DOPC   H7Y22936   7.261   2.177   4.274 -1.3741  0.4023 -1.2221
  186DOPC   C3822937   7.237   2.292   4.459 -0.6597  1.2535  0.4796
  186DOPC   H8X22938   7.145   2.241   4.496 -0.0530 -1.7680 -1.8281
  186DOPC   H8Y22939   7.210   2.398   4.483  0.3129  1.1740  2.1007
  186DOPC   C3922940   7.363   2.245   4.528 -0.1264 -0.5340 -0.2285
  186DOPC   H9X22941   7.422   2.167   4.478  1.4866 -0.3515  1.3003
  186DOPC  C31022942   7.424   2.298   4.632  0.4254  0.6548 -0.2490
  186DOPC  H10X22943   7.524   2.260   4.659  0.6852  1.2549 -0.3526
  186DOPC  C31122944   7.384   2.415   4.719 -0.1601 -0.7753  0.6590
  186DOPC  H11X22945   7.312   2.480   4.666  0.3053 -0.9603 -0.2130
  186DOPC  H11Y22946   7.471   2.478   4.748  0.7011 -1.8932  0.5638
  186DOPC  C31222947   7.316   2.371   4.848  0.7375 -0.0362 -0.5967
  186DOPC  H12X22948   7.305   2.457   4.918 -1.3801 -0.8945  0.2021
  186DOPC  H12Y22949   7.372   2.289   4.898 -0.1601 -2.0590 -2.7364
  186DOPC  C31322950   7.166   2.336   4.832  0.6217  0.0187  0.2319
  186DOPC  H13X22951   7.119   2.414   4.769  0.9413  0.5449  0.6329
  186DOPC  H13Y22952   7.158   2.237   4.782 -1.6625 -0.1434  0.8181
  186DOPC  C31422953   7.081   2.307   4.961  0.4213 -0.7206  0.5164
  186DOPC  H14X22954   7.116   2.380   5.037 -0.0213  0.6275 -0.5317
  186DOPC  H14Y22955   6.974   2.322   4.932 -0.0983 -3.6288  0.7146
  186DOPC  C31522956   7.113   2.177   5.026  0.3271 -0.3386  0.9090
  186DOPC  H15X22957   7.219   2.184   5.058  1.0468 -1.5373 -1.0622
  186DOPC  H15Y22958   7.101   2.090   4.959  1.3979 -0.9860  1.5329
  186DOPC  C31622959   7.042   2.164   5.162  0.0963 -0.0266 -0.3137
  186DOPC  H16X22960   7.091   2.079   5.213 -0.6698 -1.0049 -1.1753
  186DOPC  H16Y22961   7.058   2.257   5.220  1.2757 -0.5571  0.2321
  186DOPC  C31722962   6.896   2.128   5.146 -0.6767 -0.8122  0.0331
  186DOPC  H17X22963   6.839   2.203   5.088 -1.1117 -1.2434 -0.0976
  186DOPC  H17Y22964   6.894   2.043   5.074  0.6481 -0.1431 -0.8424
  186DOPC  C31822965   6.815   2.096   5.263  0.6080 -0.0387 -0.3532
  186DOPC  H18X22966   6.854   2.009   5.320 -2.1147 -1.8270 -1.0679
  186DOPC  H18Y22967   6.799   2.176   5.339  0.5312 -0.3788 -0.0097
  186DOPC  H18Z22968   6.713   2.059   5.242  1.2305 -0.9605 -1.9698
  187DOPC     N22969   6.342   1.438   2.880 -0.8077  0.0898  0.3572
  187DOPC   C1222970   6.303   1.450   3.034 -0.2279 -0.2827 -0.2360
  187DOPC  H12A22971   6.325   1.548   3.074 -0.2662 -2.1494  5.0639
  187DOPC  H12B22972   6.370   1.379   3.079  0.7450  0.2791 -0.7766
  187DOPC   C1322973   6.268   1.536   2.800 -0.1486  0.1695  0.6867
  187DOPC  H13A22974   6.291   1.640   2.815  1.4532 -0.2727  1.5512
  187DOPC  H13B22975   6.283   1.516   2.695 -0.6391 -1.6509  0.9141
  187DOPC  H13C22976   6.162   1.527   2.820 -0.4838  0.6828 -0.7825
  187DOPC   C1422977   6.311   1.303   2.827 -0.6718  0.1144 -0.2002
  187DOPC  H14A22978   6.345   1.283   2.727 -1.7865 -1.1166 -0.3577
  187DOPC  H14B22979   6.352   1.223   2.887 -2.0440 -0.9865 -0.6544
  187DOPC  H14C22980   6.204   1.287   2.829 -0.9126  1.4804  2.1568
  187DOPC   C1522981   6.486   1.478   2.868 -0.7467  0.1025 -0.6270
  187DOPC  H15A22982   6.526   1.463   2.768 -0.1512 -1.2602 -0.2060
  187DOPC  H15B22983   6.549   1.429   2.941  0.9244  3.1436  0.1586
  187DOPC  H15C22984   6.503   1.580   2.899  1.7520 -0.2218 -0.6795
  187DOPC   C1122985   6.158   1.408   3.081  0.0207 -0.2935 -0.1702
  187DOPC  H11A22986   6.145   1.298   3.067 -1.2520 -0.2364  0.4507
  187DOPC  H11B22987   6.152   1.425   3.190  0.6664  0.6284 -0.2666
  187DOPC     P22988   6.012   1.617   3.061  0.2896  0.2423  0.1850
  187DOPC   O1322989   5.885   1.652   2.988  0.8138  0.0318  0.3437
  187DOPC   O1422990   6.121   1.706   3.027 -1.0375 -0.1199  0.5678
  187DOPC   O1222991   6.056   1.476   3.009  0.2065 -0.0963 -0.2683
  187DOPC   O1122992   5.985   1.604   3.210 -0.0965  0.1644 -0.3211
  187DOPC    C122993   5.882   1.504   3.245 -0.5142 -0.1663  0.2633
  187DOPC    HA22994   5.924   1.401   3.239 -1.4825 -0.7002  1.9815
  187DOPC    HB22995   5.792   1.514   3.181  0.1910  4.1340 -0.3809
  187DOPC    C222996   5.845   1.517   3.391 -0.1967  0.6549 -0.2909
  187DOPC    HS22997   5.791   1.426   3.423  2.0091 -1.4007 -2.0377
  187DOPC   O2122998   5.756   1.633   3.396  0.2544  0.4211  0.2212
  187DOPC   C2122999   5.658   1.645   3.494 -0.1091  0.3920 -0.3532
  187DOPC   O2223000   5.616   1.555   3.562 -0.1492 -0.0311 -0.2339
  187DOPC   C2223001   5.606   1.790   3.493  0.5153 -0.6914  0.5012
  187DOPC   H2R23002   5.591   1.818   3.387  0.2443 -0.3663  0.6219
  187DOPC   H2S23003   5.674   1.866   3.536 -0.8327  1.4810 -1.0048
  187DOPC    C323004   5.978   1.523   3.476  0.5239  0.6080 -0.3566
  187DOPC    HX23005   6.019   1.621   3.445  1.2731  0.1697 -0.7925
  187DOPC    HY23006   6.048   1.445   3.438 -0.5017 -0.5853  0.1146
  187DOPC   O3123007   5.952   1.513   3.618  0.1759  0.3533 -0.1422
  187DOPC   C3123008   5.948   1.395   3.675  0.5352  0.6061 -0.1791
  187DOPC   O3223009   5.957   1.289   3.612  0.5820 -0.2735  0.6942
  187DOPC   C3223010   5.911   1.403   3.828 -0.3044  0.0693  0.4399
  187DOPC   H2X23011   5.940   1.506   3.858  1.1916 -0.6316  1.5257
  187DOPC   H2Y23012   5.800   1.403   3.832 -0.3287  0.5418 -0.1434
  187DOPC   C2323013   5.476   1.816   3.576 -0.0320  0.1415 -0.0639
  187DOPC   H3R23014   5.412   1.725   3.576  0.0885  0.0572  0.1756
  187DOPC   H3S23015   5.409   1.896   3.538 -2.3184 -0.4951  2.2961
  187DOPC   C2423016   5.508   1.842   3.721 -0.1630 -0.0729 -0.0162
  187DOPC   H4R23017   5.588   1.918   3.726  0.2455 -0.4669 -0.4617
  187DOPC   H4S23018   5.557   1.754   3.768 -0.8562 -0.1819  0.5289
  187DOPC   C2523019   5.390   1.892   3.805  0.4442 -0.0731 -0.0008
  187DOPC   H5R23020   5.294   1.847   3.773  0.3520  0.7958 -0.9795
  187DOPC   H5S23021   5.382   2.000   3.783  2.3929 -0.1028 -1.1049
  187DOPC   C2623022   5.398   1.858   3.954  0.5473 -1.1920  0.3637
  187DOPC   H6R23023   5.507   1.866   3.973  0.6451 -0.9809 -0.2689
  187DOPC   H6S23024   5.362   1.753   3.954 -0.7631 -0.7672 -0.2459
  187DOPC   C2723025   5.318   1.958   4.032 -0.4786 -0.4095  0.6564
  187DOPC   H7R23026   5.213   1.961   3.994  0.1379  0.1089 -1.0977
  187DOPC   H7S23027   5.353   2.063   4.019  0.7523 -0.5833  2.1974
  187DOPC   C2823028   5.322   1.925   4.184 -0.2849 -0.2064  0.5688
  187DOPC   H8R23029   5.424   1.944   4.223  1.0684 -1.8092 -1.8822
  187DOPC   H8S23030   5.307   1.816   4.192 -0.4892 -0.4151 -1.8034
  187DOPC   C2923031   5.228   2.003   4.264  0.7198  0.1573  0.2410
  187DOPC   H9R23032   5.133   2.034   4.217  1.0523 -0.3358 -0.7886
  187DOPC  C21023033   5.254   2.046   4.392 -0.5182  0.3362 -0.3330
  187DOPC  H10R23034   5.177   2.105   4.444 -0.7915  0.0343 -0.3883
  187DOPC  C21123035   5.381   2.022   4.469 -0.2034 -0.0227 -0.5299
  187DOPC  H11R23036   5.453   1.943   4.439 -0.5676 -0.1846 -0.9839
  187DOPC  H11S23037   5.348   1.999   4.573  2.8430 -1.1030  0.2889
  187DOPC  C21223038   5.473   2.153   4.465 -0.5174 -0.0350  0.1977
  187DOPC  H12R23039   5.482   2.171   4.356  0.8527  0.1436  0.3160
  187DOPC  H12S23040   5.564   2.122   4.522 -1.3966  0.5424  2.0134
  187DOPC  C21323041   5.422   2.280   4.527  0.4518 -0.4315  0.3839
  187DOPC  H13R23042   5.332   2.325   4.479 -0.4823 -0.9722  1.5558
  187DOPC  H13S23043   5.506   2.352   4.524  0.4217 -0.4040  0.2114
  187DOPC  C21423044   5.398   2.262   4.675  0.2415 -1.2760  0.0269
  187DOPC  H14R23045   5.481   2.222   4.736  0.4341  0.9690  1.3365
  187DOPC  H14S23046   5.324   2.183   4.702  1.4275 -2.0477  1.1238
  187DOPC  C21523047   5.362   2.397   4.739  0.1744 -0.3994  0.6883
  187DOPC  H15R23048   5.300   2.373   4.828 -0.9801 -2.3034 -0.5569
  187DOPC  H15S23049   5.297   2.454   4.670 -0.3492 -1.0305  0.6521
  187DOPC  C21623050   5.486   2.473   4.775 -0.3879 -0.5417  0.0164
  187DOPC  H16R23051   5.536   2.504   4.680  1.7415 -0.0616  1.2354
  187DOPC  H16S23052   5.553   2.409   4.836  0.0567 -1.4965 -1.4052
  187DOPC  C21723053   5.461   2.614   4.853  0.1056  0.1485 -0.1870
  187DOPC  H17R23054   5.559   2.664   4.838  1.0041 -2.0562 -2.3143
  187DOPC  H17S23055   5.446   2.603   4.962  0.4303  1.3801 -0.0021
  187DOPC  C21823056   5.353   2.695   4.799  0.3959 -0.1185  0.4527
  187DOPC  H18R23057   5.351   2.799   4.838  1.1849  0.3435 -0.6962
  187DOPC  H18S23058   5.260   2.635   4.808  0.2070 -0.7725 -3.7470
  187DOPC  H18T23059   5.364   2.705   4.689 -1.1761 -1.1580  0.1672
  187DOPC   C3323060   5.974   1.295   3.919 -0.6222 -0.1668  0.4650
  187DOPC   H3X23061   5.980   1.198   3.865  2.2518  0.1173  0.1236
  187DOPC   H3Y23062   5.924   1.275   4.017 -1.2219  2.6103  0.8033
  187DOPC   C3423063   6.111   1.325   3.979 -0.0359 -0.1597  0.5742
  187DOPC   H4X23064   6.095   1.419   4.036  0.2567  1.2945 -1.6615
  187DOPC   H4Y23065   6.173   1.350   3.891 -0.4087 -1.7351 -0.1687
  187DOPC   C3523066   6.185   1.211   4.057 -0.4821  0.0626  0.1003
  187DOPC   H5X23067   6.295   1.218   4.072  0.0834 -2.6997 -2.0683
  187DOPC   H5Y23068   6.174   1.116   4.001  0.6120  0.2061 -0.3826
  187DOPC   C3623069   6.129   1.193   4.195 -0.5397  0.2916  0.1748
  187DOPC   H6X23070   6.021   1.173   4.185 -0.2530 -2.5300  1.5826
  187DOPC   H6Y23071   6.178   1.103   4.238 -0.4830 -0.3401 -1.1649
  187DOPC   C3723072   6.164   1.306   4.292 -0.1964 -0.3729 -0.4494
  187DOPC   H7X23073   6.273   1.304   4.311 -0.2280  0.3840 -0.1521
  187DOPC   H7Y23074   6.162   1.404   4.240  2.6374 -0.6070 -1.1661
  187DOPC   C3823075   6.091   1.299   4.429 -0.5659  0.4548 -0.0274
  187DOPC   H8X23076   6.156   1.350   4.503 -0.2974 -0.8013  0.6255
  187DOPC   H8Y23077   6.091   1.192   4.459  0.3533  0.1758 -0.9856
  187DOPC   C3923078   5.954   1.359   4.434 -0.0234  0.2926 -0.5174
  187DOPC   H9X23079   5.891   1.329   4.349 -0.7366 -0.2283  0.1753
  187DOPC  C31023080   5.903   1.436   4.530 -0.0723  0.0236  0.0624
  187DOPC  H10X23081   5.797   1.462   4.514  0.2353  0.1031 -2.1655
  187DOPC  C31123082   5.980   1.483   4.652  0.6723 -0.3586  0.3153
  187DOPC  H11X23083   6.073   1.426   4.674 -0.3660 -1.3954  2.2985
  187DOPC  H11Y23084   5.908   1.463   4.734  1.6221 -2.2600  0.7590
  187DOPC  C31223085   6.023   1.632   4.647  0.0050  0.5385  0.3717
  187DOPC  H12X23086   5.935   1.699   4.633 -0.5137 -0.3378 -0.7313
  187DOPC  H12Y23087   6.079   1.645   4.552  0.6206 -0.0187  0.6448
  187DOPC  C31323088   6.105   1.676   4.775  0.6645  0.9763  0.9742
  187DOPC  H13X23089   6.189   1.605   4.791 -1.3721 -2.0112 -0.5908
  187DOPC  H13Y23090   6.149   1.778   4.763  0.6247  0.7611 -1.4970
  187DOPC  C31423091   6.018   1.676   4.895 -0.0701 -0.2125 -0.9097
  187DOPC  H14X23092   5.917   1.638   4.869 -0.2798  0.1802 -0.6825
  187DOPC  H14Y23093   6.056   1.599   4.966 -1.4512 -0.5725 -0.5336
  187DOPC  C31523094   6.005   1.812   4.968  0.2768 -0.2720  0.1573
  187DOPC  H15X23095   6.005   1.898   4.897 -1.3126 -1.4895 -1.4223
  187DOPC  H15Y23096   6.094   1.824   5.033  1.0784 -0.6873 -0.8338
  187DOPC  C31623097   5.888   1.810   5.065 -0.8002  0.4189 -0.7730
  187DOPC  H16X23098   5.787   1.815   5.019 -0.8114 -0.1321 -0.8257
  187DOPC  H16Y23099   5.885   1.711   5.117 -0.2956  1.6994  1.8305
  187DOPC  C31723100   5.894   1.917   5.175 -0.1046  0.3310 -0.2303
  187DOPC  H17X23101   5.997   1.911   5.215  0.0005 -0.1900 -0.5658
  187DOPC  H17Y23102   5.882   2.018   5.130 -0.2372  0.0656 -0.7937
  187DOPC  C31823103   5.792   1.892   5.284  0.2906 -0.0356  0.5365
  187DOPC  H18X23104   5.693   1.875   5.237 -0.1250  0.2547  1.2953
  187DOPC  H18Y23105   5.821   1.797   5.334  0.6317 -0.1382  0.1501
  187DOPC  H18Z23106   5.782   1.967   5.365 -1.2818 -0.1472  0.4613
  188DOPC     N23107   1.333   0.751   3.016  0.4578 -0.0977  0.3208
  188DOPC   C1223108   1.317   0.616   3.095  0.0560 -0.2366 -0.0239
  188DOPC  H12A23109   1.318   0.528   3.032  2.8934 -0.8432  0.7744
  188DOPC  H12B23110   1.222   0.617   3.146 -0.5839 -0.8242 -1.1584
  188DOPC   C1323111   1.384   0.862   3.097  0.0789  0.7673 -0.0530
  188DOPC  H13A23112   1.394   0.954   3.042  0.4303  1.4340  1.0981
  188DOPC  H13B23113   1.320   0.883   3.182  1.0076  3.3289  0.1071
  188DOPC  H13C23114   1.478   0.825   3.133 -1.6575 -1.8774  2.2169
  188DOPC   C1423115   1.187   0.791   2.981 -0.2982  0.1495 -0.0759
  188DOPC  H14A23116   1.164   0.728   2.896 -0.8255  0.4455 -0.1571
  188DOPC  H14B23117   1.115   0.777   3.061 -0.5637 -0.5245 -0.4239
  188DOPC  H14C23118   1.182   0.895   2.954 -1.0143 -0.0798 -0.8829
  188DOPC   C1523119   1.411   0.732   2.892 -0.5001  0.0084 -0.0761
  188DOPC  H15A23120   1.402   0.823   2.834  1.4647 -1.1745 -2.4180
  188DOPC  H15B23121   1.374   0.657   2.823  2.3100 -0.9136 -0.6787
  188DOPC  H15C23122   1.513   0.708   2.917 -0.7931 -0.8022  0.3723
  188DOPC   C1123123   1.429   0.594   3.200 -0.2674  0.5952 -0.2243
  188DOPC  H11A23124   1.428   0.677   3.273 -0.0116  1.2354 -0.9392
  188DOPC  H11B23125   1.409   0.499   3.254 -1.2520  0.8023 -0.2152
  188DOPC     P23126   1.697   0.629   3.191 -0.0167 -0.5850 -0.1419
  188DOPC   O1323127   1.682   0.776   3.211 -0.1937 -0.5701 -0.5610
  188DOPC   O1423128   1.807   0.584   3.110  0.3659  0.2923 -0.1180
  188DOPC   O1223129   1.555   0.584   3.130  0.2557  0.4306 -0.6656
  188DOPC   O1123130   1.697   0.552   3.332 -0.6389  0.0383 -0.1864
  188DOPC    C123131   1.823   0.556   3.396  0.2671 -0.1019  0.2937
  188DOPC    HA23132   1.902   0.614   3.344 -0.0638 -0.3328 -0.4747
  188DOPC    HB23133   1.861   0.453   3.413 -0.1994 -0.5667 -1.2716
  188DOPC    C223134   1.814   0.616   3.541  0.0585 -0.3349  0.3529
  188DOPC    HS23135   1.760   0.545   3.607  1.0134  0.5003  2.1083
  188DOPC   O2123136   1.752   0.744   3.545  0.0612 -0.3591  0.6369
  188DOPC   C2123137   1.615   0.748   3.546 -0.2988  1.1934 -1.0566
  188DOPC   O2223138   1.549   0.648   3.569  0.3751 -0.0413 -0.5169
  188DOPC   C2223139   1.554   0.878   3.531 -0.0487 -0.6871 -0.0713
  188DOPC   H2R23140   1.448   0.864   3.501 -0.0080 -0.6063 -0.2546
  188DOPC   H2S23141   1.599   0.940   3.450  0.8946 -0.1540  0.8356
  188DOPC    C323142   1.956   0.627   3.599 -0.4514 -0.1918 -0.0025
  188DOPC    HX23143   1.948   0.689   3.691  0.6859 -1.7662  1.2119
  188DOPC    HY23144   2.017   0.683   3.525 -1.2090  0.6946  0.0153
  188DOPC   O3123145   2.017   0.505   3.641  0.0308 -0.1771  0.5187
  188DOPC   C3123146   2.112   0.449   3.563  0.7746 -0.1386 -0.4864
  188DOPC   O3223147   2.142   0.490   3.455 -0.6044 -0.0804 -0.1009
  188DOPC   C3223148   2.176   0.328   3.638 -1.0060 -0.8583 -0.4216
  188DOPC   H2X23149   2.099   0.282   3.704  0.0451  0.8903  2.1620
  188DOPC   H2Y23150   2.207   0.269   3.549  0.9340  1.1917 -1.2221
  188DOPC   C2323151   1.540   0.959   3.662  0.0581 -0.1460  0.7006
  188DOPC   H3R23152   1.484   0.886   3.723 -1.6170 -1.2620 -1.9891
  188DOPC   H3S23153   1.464   1.039   3.647 -1.4882 -1.8493 -1.0414
  188DOPC   C2423154   1.664   1.017   3.721  0.2766  0.4352 -0.3130
  188DOPC   H4R23155   1.704   1.096   3.654 -0.9119 -0.1130 -1.7256
  188DOPC   H4S23156   1.746   0.943   3.731  0.6947  1.1131  1.7378
  188DOPC   C2523157   1.648   1.079   3.861 -0.1575 -1.0993  0.6955
  188DOPC   H5R23158   1.644   0.999   3.938  3.0889 -0.8788  1.2721
  188DOPC   H5S23159   1.551   1.132   3.868  1.1393  1.5886 -0.3748
  188DOPC   C2623160   1.746   1.188   3.897  0.1435 -0.1854 -0.1722
  188DOPC   H6R23161   1.718   1.281   3.844 -0.4124 -0.7828 -0.9504
  188DOPC   H6S23162   1.844   1.148   3.863  0.7141  0.3231  0.8292
  188DOPC   C2723163   1.747   1.214   4.054 -0.3745  0.8881  0.8191
  188DOPC   H7R23164   1.737   1.112   4.098  2.5303  0.3902  0.5738
  188DOPC   H7S23165   1.666   1.284   4.082 -1.0429  0.0946  0.8833
  188DOPC   C2823166   1.883   1.287   4.081  0.1079 -0.2493 -0.1617
  188DOPC   H8R23167   1.893   1.364   4.001  2.2234  2.1398  2.2318
  188DOPC   H8S23168   1.962   1.209   4.071  1.7384  1.2426  0.6338
  188DOPC   C2923169   1.901   1.363   4.216 -0.8149  0.4243  0.6675
  188DOPC   H9R23170   1.987   1.431   4.220  0.8401 -1.5787  1.2251
  188DOPC  C21023171   1.841   1.335   4.334  0.2078 -0.2085 -0.3216
  188DOPC  H10R23172   1.857   1.397   4.423 -1.3151 -1.0714  0.6028
  188DOPC  C21123173   1.739   1.225   4.366 -0.4963 -0.3644 -0.2173
  188DOPC  H11R23174   1.737   1.139   4.296  1.0454 -2.4200  2.1013
  188DOPC  H11S23175   1.640   1.275   4.359  1.2810  3.3913 -0.8392
  188DOPC  C21223176   1.757   1.170   4.507 -0.0250  0.3487 -0.3233
  188DOPC  H12R23177   1.741   1.249   4.584 -0.6878  1.0891 -1.1846
  188DOPC  H12S23178   1.863   1.145   4.529 -0.0625  0.4635 -0.0018
  188DOPC  C21323179   1.653   1.063   4.539 -0.2692  0.2991  0.3290
  188DOPC  H13R23180   1.554   1.114   4.539  0.0071  0.9182  2.3983
  188DOPC  H13S23181   1.668   1.037   4.646 -0.7253 -1.3725  0.0131
  188DOPC  C21423182   1.640   0.942   4.439 -0.5749 -0.6948 -0.4699
  188DOPC  H14R23183   1.740   0.901   4.413 -0.9338 -1.7961 -0.1512
  188DOPC  H14S23184   1.584   0.964   4.345  0.2181 -0.3215 -0.8690
  188DOPC  C21523185   1.557   0.825   4.500  0.1250 -0.2297  0.9209
  188DOPC  H15R23186   1.451   0.855   4.518  0.3569  2.7163 -1.7672
  188DOPC  H15S23187   1.590   0.818   4.606 -0.6620  2.7894  1.4637
  188DOPC  C21623188   1.573   0.690   4.424  0.0594  0.8006  0.5045
  188DOPC  H16R23189   1.678   0.664   4.399 -0.8427 -0.3898 -2.3975
  188DOPC  H16S23190   1.521   0.683   4.327  0.3630 -0.3906  0.4129
  188DOPC  C21723191   1.518   0.562   4.500 -0.1490 -0.0601  0.4809
  188DOPC  H17R23192   1.408   0.576   4.506 -0.3806 -2.1554  2.4802
  188DOPC  H17S23193   1.569   0.553   4.599  2.2712 -0.1748 -0.6992
  188DOPC  C21823194   1.541   0.429   4.422  0.2419 -0.0343  0.5220
  188DOPC  H18R23195   1.551   0.446   4.313 -0.9573  2.4753  0.7405
  188DOPC  H18S23196   1.465   0.351   4.448 -1.3029  0.2530 -2.6879
  188DOPC  H18T23197   1.637   0.388   4.460  1.1628  2.3997  0.9555
  188DOPC   C3323198   2.297   0.374   3.721  0.7749 -0.3209 -0.2502
  188DOPC   H3X23199   2.359   0.449   3.668 -0.4443  1.2344  0.4031
  188DOPC   H3Y23200   2.353   0.286   3.758 -2.1094 -2.7248 -1.2538
  188DOPC   C3423201   2.238   0.431   3.853  0.4155  0.2062 -0.6736
  188DOPC   H4X23202   2.170   0.353   3.894 -0.1390  0.1900 -1.6147
  188DOPC   H4Y23203   2.171   0.515   3.826 -0.9909 -0.2363  1.2002
  188DOPC   C3523204   2.337   0.467   3.959 -0.4204 -0.2493  0.7751
  188DOPC   H5X23205   2.282   0.519   4.041 -0.9175  2.0405 -0.8910
  188DOPC   H5Y23206   2.403   0.549   3.922 -0.1397 -0.6790  0.3088
  188DOPC   C3623207   2.428   0.356   4.021  0.5200  0.1459 -0.0762
  188DOPC   H6X23208   2.365   0.272   4.057  0.4570  0.2963  0.1686
  188DOPC   H6Y23209   2.507   0.325   3.950  0.3196 -1.3231  0.3125
  188DOPC   C3723210   2.503   0.414   4.138 -0.6387  0.2443  0.0756
  188DOPC   H7X23211   2.572   0.334   4.173 -0.0424  0.6456 -0.1623
  188DOPC   H7Y23212   2.571   0.496   4.108  3.7591 -2.7549  0.8374
  188DOPC   C3823213   2.427   0.454   4.264  0.4557 -0.0942 -0.3435
  188DOPC   H8X23214   2.351   0.528   4.229  1.3536  0.3357 -1.4678
  188DOPC   H8Y23215   2.497   0.507   4.332  2.2173 -0.3719 -1.8529
  188DOPC   C3923216   2.362   0.341   4.341  0.3139  0.1389 -0.7780
  188DOPC   H9X23217   2.431   0.274   4.394 -0.5769  2.1934  3.3167
  188DOPC  C31023218   2.229   0.308   4.341  0.2449  0.4789 -0.5504
  188DOPC  H10X23219   2.201   0.222   4.403  2.3543  0.8212  1.0060
  188DOPC  C31123220   2.119   0.377   4.269  0.0022 -0.1113 -0.0529
  188DOPC  H11X23221   2.048   0.306   4.221 -0.5523 -0.3064  1.0290
  188DOPC  H11Y23222   2.158   0.451   4.196 -1.1761  1.4899  0.8538
  188DOPC  C31223223   2.032   0.480   4.352  0.3780 -0.3117 -0.0990
  188DOPC  H12X23224   1.964   0.432   4.426  1.7950  0.1237  1.5455
  188DOPC  H12Y23225   1.969   0.531   4.276  1.6329  0.0212 -0.9533
  188DOPC  C31323226   2.111   0.587   4.428 -0.6447  0.3613 -0.2516
  188DOPC  H13X23227   2.170   0.540   4.510  0.1662  0.1132 -0.9586
  188DOPC  H13Y23228   2.180   0.640   4.360 -0.7607  0.7614 -0.0593
  188DOPC  C31423229   2.017   0.699   4.482  0.4927 -0.1862  0.3106
  188DOPC  H14X23230   1.973   0.757   4.398 -0.1273  0.4814  1.0834
  188DOPC  H14Y23231   1.936   0.646   4.536  1.2268  0.8166  2.5358
  188DOPC  C31523232   2.078   0.795   4.586  0.4014  0.4816 -0.5304
  188DOPC  H15X23233   2.088   0.736   4.679 -2.2881  0.0533 -0.4428
  188DOPC  H15Y23234   2.012   0.883   4.603 -0.2923 -0.0246 -0.5798
  188DOPC  C31623235   2.213   0.850   4.550 -0.5047 -0.2700  0.4113
  188DOPC  H16X23236   2.256   0.917   4.629  0.4422 -0.1683 -0.1736
  188DOPC  H16Y23237   2.279   0.761   4.550  1.4660  1.1220  0.8625
  188DOPC  C31723238   2.224   0.929   4.421 -0.1417  0.0268 -0.1154
  188DOPC  H17X23239   2.331   0.917   4.391  0.2996 -0.1478  1.4387
  188DOPC  H17Y23240   2.154   0.895   4.342 -1.3241  3.6320 -0.8191
  188DOPC  C31823241   2.210   1.080   4.430 -0.2487 -0.3746 -0.0675
  188DOPC  H18X23242   2.109   1.116   4.462  0.1281  1.8385 -1.1701
  188DOPC  H18Y23243   2.291   1.134   4.482 -0.8084  1.5364 -1.0808
  188DOPC  H18Z23244   2.217   1.120   4.327  0.2474 -1.5487 -0.4972
  189DOPC     N23245   4.265   7.415   2.858 -0.3331 -0.2320 -0.0691
  189DOPC   C1223246   4.130   7.365   2.900  0.5088  0.8177  0.3381
  189DOPC  H12A23247   4.140   7.296   2.982  0.7194 -0.2207 -0.5389
  189DOPC  H12B23248   4.085   7.305   2.821 -0.6978 -0.3120  1.8279
  189DOPC   C1323249   4.333   7.511   2.947  0.0060 -0.0838 -0.2893
  189DOPC  H13A23250   4.430   7.547   2.914 -0.7343  0.4137 -2.0706
  189DOPC  H13B23251   4.260   7.588   2.966 -0.5835 -0.6067 -0.4227
  189DOPC  H13C23252   4.339   7.472   3.047  0.7530  0.4035 -0.1302
  189DOPC   C1423253   4.250   7.470   2.721  0.3858  0.0815  1.1058
  189DOPC  H14A23254   4.223   7.385   2.660 -2.5968  1.8584 -0.2822
  189DOPC  H14B23255   4.160   7.529   2.716 -0.2696 -0.9037  0.8234
  189DOPC  H14C23256   4.337   7.515   2.677  1.1879  0.8086  3.3154
  189DOPC   C1523257   4.357   7.298   2.849  0.0284  0.2257 -0.2063
  189DOPC  H15A23258   4.377   7.266   2.950  0.1670  0.2941 -0.2129
  189DOPC  H15B23259   4.455   7.328   2.816  0.3755 -0.3130  0.3194
  189DOPC  H15C23260   4.307   7.216   2.799 -0.7704 -0.3575  1.4547
  189DOPC   C1123261   4.027   7.475   2.934  0.1433 -0.1217  0.3285
  189DOPC  H11A23262   4.011   7.537   2.842  2.3774 -1.3724 -0.9923
  189DOPC  H11B23263   3.927   7.428   2.948 -0.4023  0.5423 -1.0624
  189DOPC     P23264   4.011   7.698   3.054  0.3102 -0.6444  0.1521
  189DOPC   O1323265   3.878   7.720   2.988  0.2891  0.0832  0.5220
  189DOPC   O1423266   4.122   7.794   3.023  0.8197  0.6397  0.0346
  189DOPC   O1223267   4.057   7.551   3.049  0.3149 -0.2340 -0.0679
  189DOPC   O1123268   3.994   7.707   3.214 -0.2944 -0.0479  0.3221
  189DOPC    C123269   4.112   7.673   3.290 -0.3069  0.5083 -0.8295
  189DOPC    HA23270   4.165   7.768   3.316  0.5455 -0.4985  1.3214
  189DOPC    HB23271   4.183   7.600   3.246 -0.0621  0.0800  0.2492
  189DOPC    C223272   4.067   7.610   3.422 -0.6362 -0.7921 -0.5395
  189DOPC    HS23273   4.153   7.581   3.487  0.5498  0.3277 -1.5452
  189DOPC   O2123274   3.974   7.503   3.410 -0.0595  0.0191  0.5281
  189DOPC   C2123275   4.023   7.389   3.384 -0.6074  0.3499 -0.0741
  189DOPC   O2223276   4.144   7.364   3.357 -0.0894  1.0404 -0.4355
  189DOPC   C2223277   3.918   7.282   3.389  0.4175  0.7030 -0.8152
  189DOPC   H2R23278   3.958   7.180   3.402  0.9783  0.9378 -0.6727
  189DOPC   H2S23279   3.862   7.289   3.294 -0.2816  0.4439 -0.4298
  189DOPC    C323280   3.988   7.720   3.499  0.3221 -0.8805  0.1051
  189DOPC    HX23281   3.903   7.747   3.433 -1.0131  1.0762  2.4820
  189DOPC    HY23282   4.050   7.812   3.509 -2.2895  0.9227  0.8044
  189DOPC   O3123283   3.934   7.673   3.625 -0.1219  0.0564 -0.0296
  189DOPC   C3123284   3.860   7.768   3.681  0.5437 -0.5388 -0.0407
  189DOPC   O3223285   3.813   7.868   3.630 -0.0535 -0.5923  0.4492
  189DOPC   C3223286   3.834   7.736   3.830 -0.0342 -0.6132 -0.2657
  189DOPC   H2X23287   3.724   7.718   3.830 -0.6814  2.5826 -1.5992
  189DOPC   H2Y23288   3.893   7.647   3.860  0.7902 -0.1740 -0.5396
  189DOPC   C2323289   3.806   7.304   3.498  0.2335 -0.0917  0.0936
  189DOPC   H3R23290   3.725   7.229   3.487 -0.8237  0.7611  1.6154
  189DOPC   H3S23291   3.754   7.399   3.479 -3.0929 -1.2758  2.3717
  189DOPC   C2423292   3.861   7.287   3.647 -0.0723 -0.7819  0.2642
  189DOPC   H4R23293   3.939   7.366   3.651 -2.3915  1.8519 -1.9294
  189DOPC   H4S23294   3.911   7.192   3.675 -2.8738 -2.0532  1.3056
  189DOPC   C2523295   3.753   7.332   3.744 -0.1486 -0.0352 -1.1505
  189DOPC   H5R23296   3.667   7.263   3.728 -0.8900  0.5482  0.1263
  189DOPC   H5S23297   3.696   7.427   3.727 -1.0401  0.1780  2.2259
  189DOPC   C2623298   3.794   7.336   3.895  0.3430 -0.9201  0.4346
  189DOPC   H6R23299   3.862   7.423   3.909 -2.0198  1.2697 -0.7477
  189DOPC   H6S23300   3.848   7.242   3.918 -2.4871 -2.7958 -0.0468
  189DOPC   C2723301   3.682   7.355   4.000 -0.2389 -1.0435  0.3805
  189DOPC   H7R23302   3.601   7.279   4.002 -0.5145 -0.8586 -1.5592
  189DOPC   H7S23303   3.632   7.453   3.981 -1.5912 -1.3813  1.9610
  189DOPC   C2823304   3.739   7.357   4.145  0.2103 -0.4927  0.0048
  189DOPC   H8R23305   3.775   7.254   4.165  0.3180 -1.2724 -3.4928
  189DOPC   H8S23306   3.655   7.373   4.216  0.8211  0.5478  0.5164
  189DOPC   C2923307   3.845   7.464   4.175  0.0432  0.4475 -0.0687
  189DOPC   H9R23308   3.792   7.559   4.157  0.2949  0.5601 -0.2208
  189DOPC  C21023309   3.974   7.462   4.208  0.5054 -0.7666  0.0123
  189DOPC  H10R23310   4.023   7.561   4.206 -2.4228  0.8534  1.3386
  189DOPC  C21123311   4.062   7.336   4.233  0.3647  0.1678  0.0867
  189DOPC  H11R23312   4.160   7.356   4.186  0.5691  1.5382  1.0272
  189DOPC  H11S23313   4.013   7.249   4.184  1.1682 -2.3351  3.4343
  189DOPC  C21223314   4.076   7.306   4.381  0.1523  0.4941  0.1625
  189DOPC  H12R23315   4.108   7.201   4.402  1.8790  1.2004  1.3042
  189DOPC  H12S23316   3.977   7.325   4.427 -0.1704 -3.3817  1.4972
  189DOPC  C21323317   4.178   7.392   4.457 -0.4772  0.0049 -0.4529
  189DOPC  H13R23318   4.127   7.491   4.461 -0.4828  0.1645 -2.9328
  189DOPC  H13S23319   4.271   7.407   4.399  0.4842 -0.8512  0.8281
  189DOPC  C21423320   4.222   7.340   4.592  0.2626 -0.2197  0.0863
  189DOPC  H14R23321   4.275   7.243   4.584  1.7495  0.5846 -0.1594
  189DOPC  H14S23322   4.127   7.323   4.647 -0.6921  0.4021 -1.3012
  189DOPC  C21523323   4.291   7.439   4.680  0.5761 -0.1184  0.8239
  189DOPC  H15R23324   4.229   7.531   4.685 -2.0626 -1.5904 -1.8125
  189DOPC  H15S23325   4.388   7.456   4.628 -0.2875  1.7752 -0.2680
  189DOPC  C21623326   4.333   7.385   4.817 -0.4357  0.3020 -1.2146
  189DOPC  H16R23327   4.380   7.476   4.861  0.0979  1.2365 -3.5695
  189DOPC  H16S23328   4.411   7.308   4.803  0.3774  0.4231  1.8458
  189DOPC  C21723329   4.216   7.339   4.913 -0.2400 -0.6594  0.3277
  189DOPC  H17R23330   4.256   7.311   5.013 -0.0360 -0.2332  0.3651
  189DOPC  H17S23331   4.152   7.254   4.881 -2.1639 -0.0852  2.4658
  189DOPC  C21823332   4.115   7.446   4.946 -0.0195 -0.3549 -0.1346
  189DOPC  H18R23333   4.057   7.407   5.032  0.4808 -2.6149 -0.7642
  189DOPC  H18S23334   4.055   7.456   4.853  1.0104 -0.6598 -0.8498
  189DOPC  H18T23335   4.163   7.539   4.985 -1.2525 -0.1800  1.0324
  189DOPC   C3323336   3.855   7.858   3.921  0.5847 -0.3202 -0.4409
  189DOPC   H3X23337   3.771   7.929   3.903  0.8169  0.2999  0.8305
  189DOPC   H3Y23338   3.949   7.911   3.892  0.3642  0.0949 -0.4107
  189DOPC   C3423339   3.855   7.810   4.068  0.0931  0.3674 -0.0210
  189DOPC   H4X23340   3.927   7.726   4.081 -0.5617 -0.4698 -1.4647
  189DOPC   H4Y23341   3.753   7.774   4.093 -0.7332  2.6618  0.1732
  189DOPC   C3523342   3.903   7.918   4.155  0.0509  0.7807  0.3103
  189DOPC   H5X23343   3.814   7.971   4.195 -1.2546 -1.3653  0.4251
  189DOPC   H5Y23344   3.971   7.984   4.097  0.2262  0.0710 -0.3087
  189DOPC   C3623345   3.975   7.872   4.282 -0.5539 -0.2712  0.0693
  189DOPC   H6X23346   4.067   7.821   4.248 -0.2217  0.6099 -0.3869
  189DOPC   H6Y23347   4.010   7.954   4.349  1.9893  0.5609 -2.1020
  189DOPC   C3723348   3.883   7.780   4.366 -0.0512  1.0476  0.3497
  189DOPC   H7X23349   3.796   7.839   4.404 -0.1098  1.0524  0.2064
  189DOPC   H7Y23350   3.839   7.692   4.314 -2.2689  3.3489 -1.9196
  189DOPC   C3823351   3.964   7.739   4.494 -0.1053  0.5890  0.2285
  189DOPC   H8X23352   3.979   7.822   4.567  1.9025  1.2779 -0.8875
  189DOPC   H8Y23353   4.071   7.723   4.471 -0.1680  0.3126  0.1373
  189DOPC   C3923354   3.907   7.614   4.571 -0.5021 -0.7397  0.7155
  189DOPC   H9X23355   3.886   7.536   4.496  0.6782  0.5858 -1.0722
  189DOPC  C31023356   3.885   7.604   4.701  0.0962 -0.3755 -0.3917
  189DOPC  H10X23357   3.838   7.510   4.734  0.3330 -0.0357  0.9587
  189DOPC  C31123358   3.910   7.707   4.805 -0.3802 -0.8994  0.6697
  189DOPC  H11X23359   3.990   7.779   4.777 -1.7787  0.2355 -0.5879
  189DOPC  H11Y23360   3.954   7.664   4.898  0.5239 -1.6754 -0.0975
  189DOPC  C31223361   3.793   7.792   4.856 -0.0785 -0.2884 -0.3985
  189DOPC  H12X23362   3.830   7.873   4.923  1.2300  1.3478 -2.9378
  189DOPC  H12Y23363   3.718   7.722   4.898  2.4530 -4.2825 -1.9145
  189DOPC  C31323364   3.718   7.868   4.742 -0.9553 -0.7778 -0.2182
  189DOPC  H13X23365   3.798   7.923   4.689  0.8755 -1.3322  1.8345
  189DOPC  H13Y23366   3.659   7.793   4.685  0.5405 -1.9969 -0.2187
  189DOPC  C31423367   3.614   7.974   4.792 -0.3496 -0.4830  0.1734
  189DOPC  H14X23368   3.535   7.909   4.835  2.0625 -3.5779  0.3035
  189DOPC  H14Y23369   3.643   8.026   4.886 -1.4205  0.1848  0.1492
  189DOPC  C31523370   3.569   8.080   4.686  0.0769  0.1998 -1.0946
  189DOPC  H15X23371   3.517   8.026   4.604  0.7857 -0.5753 -1.0490
  189DOPC  H15Y23372   3.660   8.131   4.649  0.3428  1.3757  1.0059
  189DOPC  C31623373   3.476   8.196   4.747 -0.0484  0.9748  0.4235
  189DOPC  H16X23374   3.386   8.140   4.782  1.3420 -0.5750  1.6670
  189DOPC  H16Y23375   3.530   8.232   4.837  2.3870  1.8891 -1.3010
  189DOPC  C31723376   3.444   8.306   4.642 -0.1469 -0.2747  0.2378
  189DOPC  H17X23377   3.413   8.389   4.709 -1.3789  0.2661 -0.9607
  189DOPC  H17Y23378   3.534   8.334   4.584  1.9979 -4.7346  0.9706
  189DOPC  C31823379   3.330   8.265   4.549  0.2336  0.0598  0.1560
  189DOPC  H18X23380   3.295   8.354   4.493  0.7564  0.1625 -0.0101
  189DOPC  H18Y23381   3.358   8.185   4.477 -1.1552 -0.2667 -0.0487
  189DOPC  H18Z23382   3.250   8.220   4.613  0.0525  0.5644  0.2851
  190DOPC     N23383   2.926   7.387   2.630  0.1603  0.2223 -0.1348
  190DOPC   C1223384   3.056   7.393   2.715  0.1156  0.2716 -0.3927
  190DOPC  H12A23385   3.118   7.478   2.691  0.2625  0.1107 -0.5963
  190DOPC  H12B23386   3.125   7.313   2.691 -0.4776  0.5426 -3.4178
  190DOPC   C1323387   2.950   7.346   2.493  0.0117 -0.0587  0.4781
  190DOPC  H13A23388   3.033   7.279   2.480 -1.4981 -1.9443  0.1572
  190DOPC  H13B23389   2.866   7.303   2.441  1.4438 -1.4801 -0.7734
  190DOPC  H13C23390   2.973   7.433   2.432  0.7113 -1.2492 -1.0136
  190DOPC   C1423391   2.863   7.519   2.626  0.1461 -0.4032 -0.1012
  190DOPC  H14A23392   2.783   7.525   2.697  1.7787 -3.3686  2.2095
  190DOPC  H14B23393   2.933   7.600   2.643  0.0919 -0.7764  2.1631
  190DOPC  H14C23394   2.824   7.534   2.526  0.1157  1.8387  0.1935
  190DOPC   C1523395   2.830   7.276   2.672  0.0726  0.4447  0.3349
  190DOPC  H15A23396   2.882   7.182   2.655 -1.3199 -0.5456  1.2789
  190DOPC  H15B23397   2.741   7.275   2.611 -0.5440  0.0961  1.2067
  190DOPC  H15C23398   2.804   7.284   2.777  1.2212 -0.0653  0.6765
  190DOPC   C1123399   3.040   7.402   2.873 -0.0667 -0.5197 -0.3555
  190DOPC  H11A23400   2.994   7.308   2.910  1.0856 -0.4099  1.4861
  190DOPC  H11B23401   3.140   7.398   2.921 -0.0462 -0.0770 -0.3519
  190DOPC     P23402   3.056   7.651   2.928  0.4067 -0.0582  0.4036
  190DOPC   O1323403   2.958   7.764   2.921 -0.3130  0.4819  0.3816
  190DOPC   O1423404   3.161   7.644   2.823 -0.3807  0.5217  0.7730
  190DOPC   O1223405   2.968   7.517   2.921  0.5415  0.1130 -0.5235
  190DOPC   O1123406   3.119   7.640   3.074 -0.2790  0.3435  0.1608
  190DOPC    C123407   3.036   7.675   3.184 -0.2944 -1.2826  0.1547
  190DOPC    HA23408   2.928   7.685   3.159  0.2075  2.5951 -1.0951
  190DOPC    HB23409   3.070   7.775   3.218 -2.1817 -0.5024 -0.1078
  190DOPC    C223410   3.061   7.581   3.297  0.5904 -0.1123 -0.9639
  190DOPC    HS23411   3.040   7.636   3.391 -1.4696  1.3064 -2.1746
  190DOPC   O2123412   3.201   7.528   3.311  0.3996 -0.6091  0.1193
  190DOPC   C2123413   3.294   7.621   3.346 -0.4637  0.5983 -0.4021
  190DOPC   O2223414   3.278   7.742   3.340  0.5255  0.2021 -0.2678
  190DOPC   C2223415   3.417   7.551   3.377  0.4498  0.1203  0.3640
  190DOPC   H2R23416   3.482   7.590   3.295  0.1614  0.7369  0.4237
  190DOPC   H2S23417   3.408   7.442   3.358 -0.8304 -0.0368  1.6743
  190DOPC    C323418   2.965   7.455   3.281 -0.2104  0.1364 -0.1159
  190DOPC    HX23419   3.008   7.379   3.212  0.0734  0.6078 -0.4597
  190DOPC    HY23420   2.877   7.487   3.221  0.8300  2.5506 -0.4679
  190DOPC   O3123421   2.940   7.388   3.408  0.1967 -0.2951 -0.3999
  190DOPC   C3123422   2.841   7.447   3.474  0.2157 -0.0496 -0.3626
  190DOPC   O3223423   2.768   7.537   3.439 -0.0416 -0.7334 -0.0307
  190DOPC   C3223424   2.812   7.372   3.606 -0.1971 -0.1516 -0.4265
  190DOPC   H2X23425   2.779   7.434   3.692 -1.0061 -1.1658  0.0118
  190DOPC   H2Y23426   2.724   7.308   3.583 -1.3093  1.5445 -1.0150
  190DOPC   C2323427   3.485   7.591   3.518 -0.1976 -0.2206  0.3423
  190DOPC   H3R23428   3.464   7.699   3.530  0.0024  0.3984 -3.6798
  190DOPC   H3S23429   3.595   7.574   3.518  0.5818  3.6445  2.2137
  190DOPC   C2423430   3.427   7.510   3.634 -0.6804  0.2607  0.0175
  190DOPC   H4R23431   3.487   7.509   3.727 -0.6045  0.1244 -0.0333
  190DOPC   H4S23432   3.419   7.406   3.595 -0.0088  0.0386  0.4619
  190DOPC   C2523433   3.288   7.555   3.674 -0.2258 -0.2696 -0.2415
  190DOPC   H5R23434   3.211   7.551   3.594 -1.2233 -2.4037  0.7473
  190DOPC   H5S23435   3.286   7.658   3.717 -1.1759 -0.2466 -0.3145
  190DOPC   C2623436   3.234   7.466   3.787  0.1580  0.2159  0.1838
  190DOPC   H6R23437   3.235   7.358   3.760 -1.1750 -0.0750  1.1795
  190DOPC   H6S23438   3.126   7.484   3.808 -0.3057 -2.3441  0.4169
  190DOPC   C2723439   3.295   7.484   3.928  0.0908  0.4688 -0.1389
  190DOPC   H7R23440   3.301   7.591   3.958  0.7527 -0.2331  2.5716
  190DOPC   H7S23441   3.402   7.456   3.931 -0.8406 -3.7591 -1.0681
  190DOPC   C2823442   3.202   7.424   4.034  0.2781  0.8303  0.4543
  190DOPC   H8R23443   3.202   7.316   4.008  1.3555  0.6505  1.1131
  190DOPC   H8S23444   3.098   7.463   4.033  0.0338  0.1930 -0.0674
  190DOPC   C2923445   3.261   7.428   4.174 -0.5693  0.0949  0.0768
  190DOPC   H9R23446   3.309   7.523   4.200  0.6056 -0.0030 -1.6004
  190DOPC  C21023447   3.268   7.328   4.265  0.6237  0.1298  0.2276
  190DOPC  H10R23448   3.337   7.331   4.350 -0.7411 -0.7974  1.4176
  190DOPC  C21123449   3.209   7.188   4.244 -0.3040  1.0065  0.0929
  190DOPC  H11R23450   3.169   7.159   4.145 -1.0129 -2.0887  1.1763
  190DOPC  H11S23451   3.119   7.188   4.309 -0.0876  0.9019  0.3950
  190DOPC  C21223452   3.306   7.079   4.292 -0.2617  0.5997  0.4641
  190DOPC  H12R23453   3.269   6.976   4.275 -1.7037  0.7791  2.2312
  190DOPC  H12S23454   3.308   7.093   4.402 -3.7298  1.9263  0.4735
  190DOPC  C21323455   3.444   7.067   4.223 -0.7114 -0.3190  0.1145
  190DOPC  H13R23456   3.493   7.162   4.251 -0.4414 -0.3791 -0.1486
  190DOPC  H13S23457   3.440   7.065   4.112  1.3520  0.6436 -0.0241
  190DOPC  C21423458   3.511   6.934   4.269  0.5401  0.4462  0.2647
  190DOPC  H14R23459   3.458   6.851   4.219 -0.3638 -1.1590  3.6045
  190DOPC  H14S23460   3.496   6.921   4.379  0.4077  2.5876  0.5453
  190DOPC  C21523461   3.657   6.927   4.241 -0.5044  0.0347 -0.8893
  190DOPC  H15R23462   3.701   7.027   4.260 -1.5951  0.5072 -0.7270
  190DOPC  H15S23463   3.673   6.903   4.133 -2.4514  1.2375 -1.5064
  190DOPC  C21623464   3.722   6.816   4.323 -0.0340  0.0551  0.0921
  190DOPC  H16R23465   3.675   6.717   4.308 -1.1819  0.3106  1.6788
  190DOPC  H16S23466   3.726   6.857   4.427  1.8972 -0.7041  0.3685
  190DOPC  C21723467   3.869   6.783   4.274 -0.4927 -0.0798  0.4103
  190DOPC  H17R23468   3.885   6.688   4.330 -0.1949 -0.6597 -0.6286
  190DOPC  H17S23469   3.936   6.863   4.313 -0.4342  1.3014 -2.3486
  190DOPC  C21823470   3.887   6.749   4.127 -0.6472  1.0156 -0.5561
  190DOPC  H18R23471   3.935   6.831   4.070  0.6330  0.7429  0.0766
  190DOPC  H18S23472   3.790   6.716   4.085 -0.6774 -1.6718  1.3504
  190DOPC  H18T23473   3.962   6.669   4.111 -2.1758 -0.2748 -1.5365
  190DOPC   C3323474   2.928   7.278   3.654  0.0995  0.1825 -0.0044
  190DOPC   H3X23475   3.021   7.329   3.690  1.3239 -1.7156 -0.3413
  190DOPC   H3Y23476   2.963   7.213   3.571  0.3991 -0.7884  0.8653
  190DOPC   C3423477   2.884   7.170   3.753 -0.8867  0.3956 -0.4264
  190DOPC   H4X23478   2.784   7.133   3.725 -0.4457 -0.6595 -0.6478
  190DOPC   H4Y23479   2.856   7.213   3.851 -0.3097 -1.8384  0.7840
  190DOPC   C3523480   2.990   7.055   3.774  0.9653  0.3909 -0.1347
  190DOPC   H5X23481   3.078   7.097   3.827  1.2025 -1.5150  1.0797
  190DOPC   H5Y23482   3.030   7.031   3.673 -2.2427 -2.9002 -0.8395
  190DOPC   C3623483   2.930   6.939   3.845  0.1415 -0.5877  0.9949
  190DOPC   H6X23484   2.883   6.981   3.936  0.9791  2.2097  0.2463
  190DOPC   H6Y23485   2.848   6.895   3.785  0.0532 -1.0453  1.4481
  190DOPC   C3723486   3.022   6.820   3.873 -1.0742 -0.3477 -0.4551
  190DOPC   H7X23487   2.963   6.731   3.903  2.0991 -2.3979  0.1932
  190DOPC   H7Y23488   3.057   6.782   3.775  0.0837  0.0482 -0.2030
  190DOPC   C3823489   3.127   6.857   3.974 -0.6640 -0.7452 -0.3736
  190DOPC   H8X23490   3.083   6.904   4.065  0.1123  1.8828 -1.2771
  190DOPC   H8Y23491   3.180   6.946   3.935 -1.4107 -0.6182 -1.1508
  190DOPC   C3923492   3.228   6.745   3.998 -0.6334  0.0157  0.0424
  190DOPC   H9X23493   3.293   6.729   3.911 -1.5310  0.6472 -0.7564
  190DOPC  C31023494   3.227   6.644   4.094  0.7966 -0.7610 -0.0605
  190DOPC  H10X23495   3.307   6.570   4.082  0.5030 -0.7063 -3.2221
  190DOPC  C31123496   3.112   6.625   4.191  0.0891  0.8410 -0.1037
  190DOPC  H11X23497   3.052   6.539   4.154  0.3767  0.3436  0.5683
  190DOPC  H11Y23498   3.060   6.723   4.200 -0.6240  0.4899 -0.3125
  190DOPC  C31223499   3.182   6.584   4.323  0.1683 -0.3132  0.0771
  190DOPC  H12X23500   3.217   6.683   4.360 -0.0323 -0.3206  0.2944
  190DOPC  H12Y23501   3.271   6.523   4.299  0.9814  0.2486  1.4848
  190DOPC  C31323502   3.097   6.518   4.439  0.3460  0.3014  0.9073
  190DOPC  H13X23503   3.046   6.597   4.498 -3.1291 -1.0465 -0.0337
  190DOPC  H13Y23504   3.025   6.445   4.396  2.0329  0.1348 -1.9211
  190DOPC  C31423505   3.176   6.443   4.553 -0.2103 -0.2457  0.4249
  190DOPC  H14X23506   3.220   6.350   4.512 -1.0723 -0.9983  1.1522
  190DOPC  H14Y23507   3.261   6.509   4.581 -0.2755  0.9403 -1.8671
  190DOPC  C31523508   3.082   6.416   4.671 -0.4934  0.0726  0.2499
  190DOPC  H15X23509   3.009   6.340   4.637  0.1488  0.1053 -1.3117
  190DOPC  H15Y23510   3.025   6.507   4.698  0.4047  0.9869 -0.8249
  190DOPC  C31623511   3.152   6.371   4.797  0.0232  0.0174  0.2840
  190DOPC  H16X23512   3.238   6.436   4.820  1.5122 -1.0002 -2.0157
  190DOPC  H16Y23513   3.076   6.394   4.875  0.6268 -0.5964  1.0716
  190DOPC  C31723514   3.184   6.218   4.781 -0.1359  0.4260 -0.3853
  190DOPC  H17X23515   3.091   6.160   4.793  0.3711 -0.0431  1.6493
  190DOPC  H17Y23516   3.239   6.215   4.684  0.2067 -2.6490 -0.1885
  190DOPC  C31823517   3.273   6.159   4.887 -1.3034 -0.7514  0.1513
  190DOPC  H18X23518   3.363   6.224   4.898 -1.3770 -0.1430 -2.2862
  190DOPC  H18Y23519   3.223   6.150   4.986  1.8564 -0.1911  1.9459
  190DOPC  H18Z23520   3.315   6.059   4.862 -0.0440 -0.0067 -0.8443
  191DOPC     N23521   5.847   7.543   2.808 -0.2147  0.0318 -0.3547
  191DOPC   C1223522   5.781   7.577   2.936 -0.4713 -0.1238  0.0238
  191DOPC  H12A23523   5.769   7.488   2.996 -1.8827 -1.0171 -1.4887
  191DOPC  H12B23524   5.677   7.597   2.916 -0.6480 -0.4972  0.5406
  191DOPC   C1323525   5.983   7.482   2.825  0.1197 -0.0952  0.6553
  191DOPC  H13A23526   6.026   7.463   2.727 -0.6676  0.9895  0.0884
  191DOPC  H13B23527   6.053   7.552   2.868 -0.8302  0.7566  0.8248
  191DOPC  H13C23528   5.980   7.387   2.876  1.7782 -0.2320  0.5758
  191DOPC   C1423529   5.839   7.666   2.719  0.0637 -0.3872  0.2185
  191DOPC  H14A23530   5.882   7.752   2.768  1.3399 -0.6120 -0.4472
  191DOPC  H14B23531   5.896   7.657   2.627 -0.1701 -1.3982  0.1641
  191DOPC  H14C23532   5.738   7.686   2.688  0.9694  1.1118 -2.1621
  191DOPC   C1523533   5.756   7.445   2.738  0.1931  0.8769 -0.2965
  191DOPC  H15A23534   5.800   7.411   2.646  2.2610  0.3658  0.8322
  191DOPC  H15B23535   5.658   7.488   2.720 -1.0772 -0.6284  2.4222
  191DOPC  H15C23536   5.735   7.358   2.798  0.5918  2.4215  2.2682
  191DOPC   C1123537   5.838   7.690   3.030  0.5965  0.9213  0.1645
  191DOPC  H11A23538   5.767   7.678   3.114 -1.5700 -3.1284 -1.9526
  191DOPC  H11B23539   5.933   7.665   3.083 -1.2445 -2.1832  2.3110
  191DOPC     P23540   5.692   7.894   2.957 -0.4338 -0.5573  0.2140
  191DOPC   O1323541   5.585   7.807   2.891 -0.2938 -0.2924  0.1713
  191DOPC   O1423542   5.722   8.018   2.883  0.3196 -0.0800  0.0061
  191DOPC   O1223543   5.827   7.816   2.962 -0.2710 -0.6535 -0.3448
  191DOPC   O1123544   5.667   7.920   3.113 -0.5522  0.4811  0.1594
  191DOPC    C123545   5.769   7.998   3.184  0.1367 -0.0161  0.6025
  191DOPC    HA23546   5.751   8.106   3.165 -2.9966 -0.6191 -0.6110
  191DOPC    HB23547   5.874   7.972   3.159  0.3243  0.9733  0.3271
  191DOPC    C223548   5.752   7.989   3.344 -0.3921 -0.0207  0.8679
  191DOPC    HS23549   5.659   8.045   3.364 -0.0409  0.2955  1.6420
  191DOPC   O2123550   5.860   8.050   3.417  0.7127 -0.2194 -0.1254
  191DOPC   C2123551   5.851   8.180   3.436 -0.2912  0.0240  0.4709
  191DOPC   O2223552   5.762   8.252   3.391 -0.0602  0.5604  0.5348
  191DOPC   C2223553   5.958   8.238   3.522 -0.2784 -0.0979 -0.2290
  191DOPC   H2R23554   5.934   8.345   3.538 -1.0728 -0.6346  2.7446
  191DOPC   H2S23555   6.054   8.237   3.466 -1.9552  1.5046 -3.3861
  191DOPC    C323556   5.732   7.842   3.380 -0.4995 -0.2969  0.4178
  191DOPC    HX23557   5.821   7.788   3.342 -0.4448  0.3799 -0.4314
  191DOPC    HY23558   5.642   7.800   3.330 -0.7283 -1.3844  1.6712
  191DOPC   O3123559   5.731   7.832   3.522 -0.1686 -0.1463  0.1198
  191DOPC   C3123560   5.597   7.840   3.561  0.0933  0.0070 -1.0757
  191DOPC   O3223561   5.503   7.841   3.488  0.7018 -1.2462  0.0303
  191DOPC   C3223562   5.583   7.852   3.718  0.3600  0.2145  0.2363
  191DOPC   H2X23563   5.660   7.788   3.767 -0.2126 -0.7560 -0.1149
  191DOPC   H2Y23564   5.597   7.959   3.746 -0.6284  0.4730 -0.2127
  191DOPC   C2323565   5.986   8.148   3.649  0.4196 -0.3400  0.9040
  191DOPC   H3R23566   6.077   8.191   3.698  1.7531 -0.8055 -1.0317
  191DOPC   H3S23567   6.012   8.044   3.622 -0.3350 -0.1414 -0.6687
  191DOPC   C2423568   5.862   8.140   3.742 -0.5189 -0.7435 -0.1691
  191DOPC   H4R23569   5.779   8.088   3.690 -1.8364  0.5363  0.5950
  191DOPC   H4S23570   5.825   8.243   3.760  1.5438 -0.3332  2.3334
  191DOPC   C2523571   5.896   8.084   3.880 -0.4093  0.2559  0.9130
  191DOPC   H5R23572   5.979   8.148   3.918 -0.4170  1.2236 -0.6284
  191DOPC   H5S23573   5.937   7.981   3.889  1.7169  1.2010  3.5624
  191DOPC   C2623574   5.779   8.092   3.976 -0.3209  0.0701 -0.5495
  191DOPC   H6R23575   5.694   8.022   3.958 -0.8525 -0.6846  3.9327
  191DOPC   H6S23576   5.733   8.193   3.968 -2.2598 -0.9129 -3.8393
  191DOPC   C2723577   5.813   8.065   4.118 -0.4207 -0.3212 -0.7773
  191DOPC   H7R23578   5.722   8.087   4.177 -0.8532  1.8399 -2.1256
  191DOPC   H7S23579   5.890   8.143   4.139  0.2916 -0.9007 -1.1917
  191DOPC   C2823580   5.863   7.924   4.159 -0.2064 -0.2602 -0.5774
  191DOPC   H8R23581   5.948   7.938   4.229 -0.8725  0.4545  0.1140
  191DOPC   H8S23582   5.904   7.885   4.064 -1.4415 -1.5488 -0.6329
  191DOPC   C2923583   5.750   7.831   4.214  0.9265  0.0440 -0.2796
  191DOPC   H9R23584   5.689   7.794   4.131 -0.2305  1.1459  0.0494
  191DOPC  C21023585   5.704   7.827   4.338 -0.5569  0.1809 -0.3100
  191DOPC  H10R23586   5.619   7.764   4.369  0.4470 -0.7492  0.6921
  191DOPC  C21123587   5.758   7.908   4.451 -0.2217  0.7208 -0.2502
  191DOPC  H11R23588   5.686   7.988   4.479 -1.8630 -1.3422  1.8156
  191DOPC  H11S23589   5.852   7.959   4.421  0.2994 -0.9567 -1.6358
  191DOPC  C21223590   5.785   7.812   4.573  0.0545 -0.0806  0.2343
  191DOPC  H12R23591   5.835   7.721   4.534  1.0783  0.7263 -0.4160
  191DOPC  H12S23592   5.686   7.790   4.619 -0.7082  2.8272  0.2338
  191DOPC  C21323593   5.885   7.871   4.683  0.4832 -0.0320  0.0855
  191DOPC  H13R23594   5.988   7.870   4.641  0.5423 -0.0696  0.2339
  191DOPC  H13S23595   5.891   7.796   4.764  0.9278  0.4687  0.5213
  191DOPC  C21423596   5.835   8.011   4.741  0.9850  0.3885  0.2889
  191DOPC  H14R23597   5.732   8.001   4.783  0.8951  1.1589  0.2658
  191DOPC  H14S23598   5.843   8.085   4.658 -2.7120 -0.4913 -1.0655
  191DOPC  C21523599   5.920   8.057   4.856  0.4970  0.7666  0.2397
  191DOPC  H15R23600   5.899   7.997   4.947 -1.6569 -1.1582 -1.4155
  191DOPC  H15S23601   5.894   8.160   4.889  2.0275  1.2750 -0.0744
  191DOPC  C21623602   6.074   8.060   4.824  0.7649  0.3116 -0.4791
  191DOPC  H16R23603   6.129   7.963   4.830  0.5488  0.2482  0.9255
  191DOPC  H16S23604   6.114   8.113   4.913 -0.3266 -0.1008  0.2692
  191DOPC  C21723605   6.100   8.135   4.697 -0.1129 -0.0066  0.1737
  191DOPC  H17R23606   6.055   8.237   4.699  1.2167  0.5917  0.9695
  191DOPC  H17S23607   6.060   8.087   4.605  1.4243  2.2264 -1.8070
  191DOPC  C21823608   6.253   8.148   4.670 -0.4002 -0.0207  0.2364
  191DOPC  H18R23609   6.290   8.195   4.576 -0.4743 -1.9204 -0.7900
  191DOPC  H18S23610   6.305   8.050   4.660 -0.8108 -0.0905 -1.5952
  191DOPC  H18T23611   6.300   8.204   4.754  1.0447 -1.9177  0.7684
  191DOPC   C3323612   5.442   7.809   3.767 -0.1337 -0.2010 -0.5606
  191DOPC   H3X23613   5.407   7.714   3.721  3.2615 -2.5751  1.2485
  191DOPC   H3Y23614   5.373   7.893   3.744 -1.0017 -1.1566 -1.5427
  191DOPC   C3423615   5.443   7.771   3.915 -0.1651  0.2797  0.1712
  191DOPC   H4X23616   5.346   7.787   3.967  0.4776  0.5415  1.3033
  191DOPC   H4Y23617   5.512   7.842   3.965 -1.0017  1.3059 -0.0694
  191DOPC   C3523618   5.483   7.621   3.939 -0.2304 -0.1700 -0.2615
  191DOPC   H5X23619   5.523   7.623   4.043 -0.8771 -4.0679  0.2039
  191DOPC   H5Y23620   5.572   7.599   3.876 -0.5657 -0.6084 -0.5850
  191DOPC   C3623621   5.369   7.524   3.923 -0.0273 -0.0823  0.3517
  191DOPC   H6X23622   5.285   7.545   3.993 -0.0538  0.5130  0.1530
  191DOPC   H6Y23623   5.326   7.560   3.827 -1.4857 -0.2142  0.9361
  191DOPC   C3723624   5.406   7.379   3.929 -0.5069  1.2186  0.5342
  191DOPC   H7X23625   5.316   7.326   3.892 -0.6802  0.7494  1.5716
  191DOPC   H7Y23626   5.495   7.366   3.863 -1.4193  2.4589 -0.9948
  191DOPC   C3823627   5.437   7.314   4.065  0.3057 -0.1418 -0.2398
  191DOPC   H8X23628   5.515   7.379   4.109 -0.8789  0.7706  0.5881
  191DOPC   H8Y23629   5.480   7.213   4.047  1.5965  0.1574  0.9855
  191DOPC   C3923630   5.312   7.303   4.151  0.1203  0.3202  0.4258
  191DOPC   H9X23631   5.250   7.220   4.113  0.8789  0.8767 -2.2086
  191DOPC  C31023632   5.280   7.371   4.258 -0.9157  0.2379 -0.6188
  191DOPC  H10X23633   5.188   7.336   4.307  0.4111 -3.4133 -0.4004
  191DOPC  C31123634   5.364   7.469   4.327  0.6628 -0.1485 -0.4891
  191DOPC  H11X23635   5.321   7.571   4.316  1.3497  0.2546  0.3830
  191DOPC  H11Y23636   5.465   7.482   4.284  1.1562 -1.8092  0.0929
  191DOPC  C31223637   5.387   7.420   4.473  0.4301  0.8925 -0.4989
  191DOPC  H12X23638   5.459   7.336   4.462 -2.5771 -2.0506  0.4056
  191DOPC  H12Y23639   5.299   7.369   4.518  1.0065 -1.6355 -2.0098
  191DOPC  C31323640   5.447   7.537   4.559 -0.8504 -0.6329 -0.6184
  191DOPC  H13X23641   5.551   7.560   4.525 -0.1588 -0.7023  1.3459
  191DOPC  H13Y23642   5.381   7.626   4.562  1.3690  1.1245 -0.8392
  191DOPC  C31423643   5.478   7.499   4.709  0.5705  0.4808 -0.1788
  191DOPC  H14X23644   5.542   7.408   4.711  0.0276  0.0936  1.9252
  191DOPC  H14Y23645   5.548   7.580   4.740  0.6006 -0.0739  1.2717
  191DOPC  C31523646   5.357   7.476   4.793 -0.0818 -1.0155  0.1979
  191DOPC  H15X23647   5.287   7.409   4.738 -0.8845  0.5861 -0.8284
  191DOPC  H15Y23648   5.302   7.573   4.800  0.4351 -0.6625 -0.4914
  191DOPC  C31623649   5.381   7.427   4.935 -0.1869 -0.1941 -0.0226
  191DOPC  H16X23650   5.462   7.482   4.987  1.7315 -0.9518 -2.0443
  191DOPC  H16Y23651   5.277   7.424   4.975  0.0890  0.8642  0.7941
  191DOPC  C31723652   5.426   7.282   4.941  0.3388  0.1049 -0.1667
  191DOPC  H17X23653   5.343   7.218   4.904  0.5337  1.0760 -2.4377
  191DOPC  H17Y23654   5.511   7.264   4.872  1.8679 -0.3685  1.7418
  191DOPC  C31823655   5.477   7.234   5.083  0.1502  0.0252 -0.1290
  191DOPC  H18X23656   5.410   7.278   5.160  1.3656  0.7869  0.5174
  191DOPC  H18Y23657   5.452   7.126   5.095  4.0115 -0.6924  4.4821
  191DOPC  H18Z23658   5.584   7.255   5.102  0.2368 -0.1701 -0.3923
  192DOPC     N23659   0.995   4.680   2.946 -0.1823 -0.0661 -0.3729
  192DOPC   C1223660   0.946   4.716   3.087 -0.2136  0.0742 -0.6982
  192DOPC  H12A23661   0.918   4.820   3.085  2.6940  0.9178 -0.5323
  192DOPC  H12B23662   1.034   4.713   3.149 -0.2028  0.5320 -0.6884
  192DOPC   C1323663   0.885   4.689   2.845 -0.1170  0.9984  0.3548
  192DOPC  H13A23664   0.865   4.787   2.805  0.7830  0.1862 -2.2972
  192DOPC  H13B23665   0.897   4.621   2.761  0.8378  3.6487 -1.7791
  192DOPC  H13C23666   0.791   4.646   2.878  0.1249 -0.1127 -0.3274
  192DOPC   C1423667   1.065   4.549   2.934  0.3255  0.1314 -0.3516
  192DOPC  H14A23668   1.074   4.519   2.831  0.2123  0.0669 -0.3443
  192DOPC  H14B23669   1.159   4.551   2.986  0.8568  1.1089 -1.3110
  192DOPC  H14C23670   1.006   4.464   2.968 -0.2446  0.1191 -1.3093
  192DOPC   C1523671   1.102   4.778   2.911 -0.2216 -0.2059 -0.2134
  192DOPC  H15A23672   1.068   4.879   2.893  3.4438  1.5063  1.2440
  192DOPC  H15B23673   1.153   4.756   2.818 -1.4512  0.0615 -0.9764
  192DOPC  H15C23674   1.180   4.783   2.987 -0.0249  0.5644 -0.4519
  192DOPC   C1123675   0.839   4.625   3.146 -0.5872 -0.5286 -0.2223
  192DOPC  H11A23676   0.872   4.519   3.151  2.1912  0.1877 -1.5195
  192DOPC  H11B23677   0.828   4.651   3.253 -1.1192  1.0857 -0.6426
  192DOPC     P23678   0.593   4.561   3.120 -0.0686  0.3601  0.1298
  192DOPC   O1323679   0.605   4.426   3.057  0.0775  0.3060 -1.1005
  192DOPC   O1423680   0.482   4.649   3.076  0.6341  0.0298  0.6046
  192DOPC   O1223681   0.716   4.635   3.071 -0.0933 -0.3081  0.1145
  192DOPC   O1123682   0.611   4.555   3.272 -0.8150 -0.4709 -0.0655
  192DOPC    C123683   0.545   4.641   3.362  0.3161  0.7845  0.2306
  192DOPC    HA23684   0.441   4.662   3.328  0.2930  0.0325 -0.1860
  192DOPC    HB23685   0.607   4.732   3.377  2.2635 -0.4238 -0.1523
  192DOPC    C223686   0.523   4.577   3.498  0.6738  0.3184  0.2871
  192DOPC    HS23687   0.441   4.625   3.556 -0.2746 -1.4903  0.5407
  192DOPC   O2123688   0.646   4.579   3.572 -0.3615 -0.1167 -0.0928
  192DOPC   C2123689   0.667   4.702   3.629 -0.1956  0.3914 -0.4155
  192DOPC   O2223690   0.584   4.790   3.626  0.2162  0.3843  0.5788
  192DOPC   C2223691   0.812   4.714   3.672 -0.6153 -0.4355  0.1824
  192DOPC   H2R23692   0.843   4.820   3.659  0.6493 -0.4518  2.5584
  192DOPC   H2S23693   0.888   4.661   3.610 -0.5508  2.1237 -2.1674
  192DOPC    C323694   0.466   4.430   3.486 -0.0179 -0.7302  0.3297
  192DOPC    HX23695   0.554   4.377   3.445  0.7336  1.5854 -1.2657
  192DOPC    HY23696   0.375   4.434   3.422 -1.4613 -0.3044  2.3272
  192DOPC   O3123697   0.414   4.389   3.613 -0.2756 -0.0977  0.1723
  192DOPC   C3123698   0.410   4.256   3.622  0.2371 -0.0743  0.8337
  192DOPC   O3223699   0.384   4.181   3.528 -0.0200 -0.2449  0.3840
  192DOPC   C3223700   0.443   4.219   3.771  0.2454 -0.6588 -0.3190
  192DOPC   H2X23701   0.476   4.316   3.812  1.0088 -0.8654 -0.4434
  192DOPC   H2Y23702   0.354   4.196   3.834  2.3092 -2.0846  2.2798
  192DOPC   C2323703   0.828   4.679   3.826  0.2315  0.2471  0.0903
  192DOPC   H3R23704   0.934   4.653   3.850  1.0229  0.1612 -3.0954
  192DOPC   H3S23705   0.772   4.585   3.849 -0.4276  0.1030 -1.9316
  192DOPC   C2423706   0.772   4.776   3.925 -0.2054 -0.4645 -0.1391
  192DOPC   H4R23707   0.670   4.802   3.889 -0.8486 -0.4621  1.5683
  192DOPC   H4S23708   0.844   4.860   3.919  0.8595 -1.3479 -0.1442
  192DOPC   C2523709   0.772   4.718   4.073  0.1003 -0.4344 -0.0774
  192DOPC   H5R23710   0.788   4.809   4.135 -0.8691  0.1314 -0.6305
  192DOPC   H5S23711   0.861   4.653   4.087 -1.6630 -2.7153  1.3140
  192DOPC   C2623712   0.637   4.638   4.120 -0.2315 -0.2528  1.0004
  192DOPC   H6R23713   0.640   4.547   4.056  0.6036 -1.5439  2.8074
  192DOPC   H6S23714   0.559   4.714   4.096  0.9509  0.0690 -2.4146
  192DOPC   C2723715   0.640   4.586   4.268 -0.6761 -0.2054  0.1324
  192DOPC   H7R23716   0.611   4.682   4.316 -2.2111  0.9005 -2.7449
  192DOPC   H7S23717   0.745   4.567   4.302 -1.0998  1.0119  2.3427
  192DOPC   C2823718   0.537   4.483   4.296 -0.0531  0.3029  0.4230
  192DOPC   H8R23719   0.449   4.513   4.236 -0.0830  2.2415  1.3278
  192DOPC   H8S23720   0.502   4.484   4.402 -2.4594 -2.5595 -0.2386
  192DOPC   C2923721   0.585   4.344   4.274  0.0934 -0.3928  0.1362
  192DOPC   H9R23722   0.689   4.324   4.305  0.1420 -0.8273 -0.2899
  192DOPC  C21023723   0.518   4.239   4.216 -0.3401  0.4833  0.0790
  192DOPC  H10R23724   0.589   4.159   4.191  0.7235  0.9840  1.3414
  192DOPC  C21123725   0.376   4.236   4.162 -0.1999 -0.4425  0.0542
  192DOPC  H11R23726   0.392   4.221   4.053  1.0379  1.2205 -0.0303
  192DOPC  H11S23727   0.327   4.335   4.171  0.7027  0.4814 -3.4705
  192DOPC  C21223728   0.281   4.123   4.220 -0.1276 -0.5091 -0.6554
  192DOPC  H12R23729   0.305   4.016   4.205 -2.6694 -1.4646  1.3283
  192DOPC  H12S23730   0.174   4.133   4.193 -0.8303 -0.2165  1.8910
  192DOPC  C21323731   0.269   4.146   4.372 -0.0357 -0.2337  0.0235
  192DOPC  H13R23732   0.249   4.252   4.397  0.3157 -0.4096  1.0871
  192DOPC  H13S23733   0.367   4.118   4.416 -0.4345 -1.2381  0.3002
  192DOPC  C21423734   0.163   4.061   4.425 -0.3760  0.9100  0.6305
  192DOPC  H14R23735   0.061   4.104   4.413 -0.3911  0.6641 -0.1614
  192DOPC  H14S23736   0.176   4.070   4.535 -1.2538 -2.3506  1.0781
  192DOPC  C21523737   0.155   3.910   4.376 -0.0243 -0.2975 -0.1073
  192DOPC  H15R23738   0.241   3.841   4.387 -2.3253 -3.2978  0.3065
  192DOPC  H15S23739   0.127   3.894   4.270  2.1144 -5.1772 -0.1976
  192DOPC  C21623740   0.039   3.843   4.446  0.5401  0.1872 -0.6473
  192DOPC  H16R23741  -0.055   3.891   4.411  0.4483  0.3598 -0.1738
  192DOPC  H16S23742   0.039   3.857   4.556  0.0873  1.8113 -0.8233
  192DOPC  C21723743   0.002   3.692   4.424 -0.0783  0.0054 -0.5769
  192DOPC  H17R23744   0.095   3.636   4.448 -2.1986 -2.4441  2.6572
  192DOPC  H17S23745  -0.025   3.682   4.316 -0.5486  0.4080 -0.4999
  192DOPC  C21823746  -0.111   3.646   4.510  0.6520 -0.4003 -0.0254
  192DOPC  H18R23747  -0.195   3.717   4.511  0.4634 -0.6233  1.1870
  192DOPC  H18S23748  -0.074   3.649   4.615 -0.3563  1.1984  0.3173
  192DOPC  H18T23749  -0.138   3.542   4.480 -0.8595  0.7154 -2.8102
  192DOPC   C3323750   0.541   4.108   3.796  1.0114  0.6423 -0.1576
  192DOPC   H3X23751   0.520   4.016   3.738 -1.3611 -0.0865  1.7260
  192DOPC   H3Y23752   0.531   4.069   3.899 -0.5093  0.3645 -0.3945
  192DOPC   C3423753   0.687   4.146   3.783  0.7903  0.6768  0.1007
  192DOPC   H4X23754   0.707   4.180   3.678 -0.2680 -1.8151 -0.9813
  192DOPC   H4Y23755   0.749   4.055   3.801  0.0483  0.2315  0.4142
  192DOPC   C3523756   0.739   4.248   3.880 -0.2452 -0.4462  0.8874
  192DOPC   H5X23757   0.684   4.235   3.976 -0.2542  1.1661  1.1389
  192DOPC   H5Y23758   0.719   4.353   3.850  0.3120 -0.0611  1.7989
  192DOPC   C3623759   0.888   4.249   3.909  0.5799 -0.1206  0.3984
  192DOPC   H6X23760   0.931   4.147   3.895 -0.6926 -0.4848 -1.1792
  192DOPC   H6Y23761   0.939   4.300   3.825  1.1507 -1.3223 -0.0044
  192DOPC   C3723762   0.935   4.310   4.047  0.0168  1.0026 -0.3342
  192DOPC   H7X23763   0.868   4.392   4.079  1.5835  2.0755  0.2910
  192DOPC   H7Y23764   0.914   4.228   4.118  0.2191 -0.1963 -1.6116
  192DOPC   C3823765   1.085   4.336   4.051 -0.2131 -0.2905  0.0049
  192DOPC   H8X23766   1.140   4.283   3.970 -3.2280 -0.7925 -1.8786
  192DOPC   H8Y23767   1.127   4.300   4.147  0.4111 -0.5287 -0.3513
  192DOPC   C3923768   1.111   4.478   4.034  0.7775 -0.2403  0.4025
  192DOPC   H9X23769   1.096   4.529   3.938 -0.0952 -0.0697  0.6145
  192DOPC  C31023770   1.145   4.564   4.134  0.3990  0.1709  0.4676
  192DOPC  H10X23771   1.151   4.670   4.104 -0.4282  0.2769  0.6629
  192DOPC  C31123772   1.175   4.542   4.279  0.0264  0.3057  0.6800
  192DOPC  H11X23773   1.261   4.608   4.304  1.8273 -1.8007  0.3466
  192DOPC  H11Y23774   1.213   4.444   4.314  2.7931  0.7015 -0.8685
  192DOPC  C31223775   1.053   4.575   4.367  0.3035 -0.3694 -0.9028
  192DOPC  H12X23776   0.965   4.517   4.330  0.5013 -1.7738  0.7138
  192DOPC  H12Y23777   1.034   4.681   4.341  0.6312 -0.5022 -1.7193
  192DOPC  C31323778   1.082   4.561   4.515  0.1059 -0.2636 -0.0816
  192DOPC  H13X23779   0.988   4.560   4.574  0.6794 -3.5316  0.9858
  192DOPC  H13Y23780   1.130   4.462   4.525  0.9965  0.3266  2.0246
  192DOPC  C31423781   1.179   4.668   4.565  0.0001  0.4355 -0.9247
  192DOPC  H14X23782   1.283   4.656   4.529 -0.0434  1.9255 -1.5985
  192DOPC  H14Y23783   1.147   4.765   4.521 -1.2814  0.2036 -0.5518
  192DOPC  C31523784   1.194   4.685   4.719  0.6061 -1.0169 -0.5506
  192DOPC  H15X23785   1.233   4.594   4.769  2.3421 -0.8696 -1.5831
  192DOPC  H15Y23786   1.090   4.703   4.756  1.7022  1.3853  1.7219
  192DOPC  C31623787   1.277   4.814   4.755 -0.5599 -0.5350  0.2004
  192DOPC  H16X23788   1.272   4.881   4.667 -1.4896 -1.1151 -0.2062
  192DOPC  H16Y23789   1.232   4.876   4.836 -1.0878  1.0656 -1.2487
  192DOPC  C31723790   1.422   4.792   4.785 -0.0212  1.2089 -1.2979
  192DOPC  H17X23791   1.432   4.753   4.889 -0.3867  1.3588 -1.2033
  192DOPC  H17Y23792   1.472   4.719   4.718  2.1474 -0.0174  1.4465
  192DOPC  C31823793   1.502   4.917   4.776 -0.5311 -0.2358  0.2432
  192DOPC  H18X23794   1.597   4.903   4.831 -0.8035 -2.5494  0.2118
  192DOPC  H18Y23795   1.519   4.946   4.670 -1.0841 -1.2906 -0.1463
  192DOPC  H18Z23796   1.444   5.004   4.815 -0.0560 -0.2038  0.8752
  193DOPC     N23797   7.571   2.044   2.698 -0.3812  0.0291  0.2285
  193DOPC   C1223798   7.571   2.039   2.846  0.4537  0.1976  0.5649
  193DOPC  H12A23799   7.501   2.112   2.881 -0.4387 -0.8729  1.0775
  193DOPC  H12B23800   7.672   2.059   2.878  0.6566 -0.4613  0.3651
  193DOPC   C1323801   7.659   1.936   2.637 -0.0434  0.3141  0.3633
  193DOPC  H13A23802   7.662   1.928   2.529 -0.5176 -0.3352  0.3910
  193DOPC  H13B23803   7.756   1.945   2.683 -0.5082  1.1298  1.2291
  193DOPC  H13C23804   7.617   1.841   2.664 -2.1076  1.0159 -0.1820
  193DOPC   C1423805   7.612   2.180   2.648  0.7703  0.1413  0.0066
  193DOPC  H14A23806   7.705   2.214   2.690 -0.0446  1.4798  0.8014
  193DOPC  H14B23807   7.604   2.181   2.540 -1.8768  0.0953  0.1395
  193DOPC  H14C23808   7.538   2.256   2.668  1.1143  0.4065  0.2771
  193DOPC   C1523809   7.426   2.020   2.656 -0.6766  0.3138 -0.4331
  193DOPC  H15A23810   7.402   1.917   2.675  0.7436  0.0205 -0.1249
  193DOPC  H15B23811   7.401   2.045   2.554  0.2327  1.1607 -0.4721
  193DOPC  H15C23812   7.361   2.073   2.724 -0.1293  0.5282 -0.0722
  193DOPC   C1123813   7.539   1.913   2.925 -0.7605 -0.6221 -0.0388
  193DOPC  H11A23814   7.601   1.836   2.875  0.7810  0.2931  0.4018
  193DOPC  H11B23815   7.573   1.921   3.031  1.2413  0.2853 -0.7012
  193DOPC     P23816   7.291   1.906   3.011  0.2626  0.2476 -0.4255
  193DOPC   O1323817   7.165   1.849   2.953 -0.1830  0.0817  0.5484
  193DOPC   O1423818   7.289   2.048   3.048 -0.2632 -0.2206 -0.1452
  193DOPC   O1223819   7.403   1.876   2.905  0.0496 -0.3835  0.5770
  193DOPC   O1123820   7.327   1.817   3.134 -0.6199  0.1186  0.4808
  193DOPC    C123821   7.336   1.680   3.116  0.0756  0.4415  0.3149
  193DOPC    HA23822   7.419   1.653   3.048  1.2471  3.0150  0.5973
  193DOPC    HB23823   7.249   1.637   3.062  2.0297 -3.1471 -0.2665
  193DOPC    C223824   7.371   1.601   3.246 -0.4468  0.2992 -1.0706
  193DOPC    HS23825   7.394   1.495   3.221  1.8144  1.0579 -2.4316
  193DOPC   O2123826   7.268   1.615   3.351  0.0014 -0.6903  0.4663
  193DOPC   C2123827   7.161   1.557   3.317 -0.0493 -0.2685  0.8449
  193DOPC   O2223828   7.146   1.468   3.237  0.2757 -0.1118  0.1309
  193DOPC   C2223829   7.057   1.607   3.414  0.0286  0.1508 -0.5675
  193DOPC   H2R23830   6.954   1.619   3.373 -0.0953 -1.3277 -0.7490
  193DOPC   H2S23831   7.092   1.694   3.473  0.4399 -1.0711  1.0882
  193DOPC    C323832   7.500   1.669   3.307 -0.1594  0.3221  0.2787
  193DOPC    HX23833   7.484   1.775   3.335 -0.0947 -0.0410  1.7435
  193DOPC    HY23834   7.579   1.674   3.230  0.9625 -1.2598  1.2671
  193DOPC   O3123835   7.544   1.608   3.437  0.5831 -0.1919  0.0141
  193DOPC   C3123836   7.648   1.525   3.438  0.0876 -0.9001 -0.0792
  193DOPC   O3223837   7.712   1.489   3.342  0.3022  0.1203  0.4963
  193DOPC   C3223838   7.698   1.492   3.581  0.9937 -0.3061 -0.4002
  193DOPC   H2X23839   7.762   1.401   3.571 -0.8446 -1.8014  0.7546
  193DOPC   H2Y23840   7.748   1.580   3.625 -2.1135  1.1650  0.4397
  193DOPC   C2323841   7.034   1.490   3.518  0.0984  0.2164 -0.0415
  193DOPC   H3R23842   7.003   1.395   3.471  1.6870  0.1898 -1.1294
  193DOPC   H3S23843   6.945   1.521   3.577 -1.7460 -0.0013 -2.5647
  193DOPC   C2423844   7.155   1.449   3.596  0.1823  0.1495 -0.3112
  193DOPC   H4R23845   7.241   1.429   3.529 -0.0451  0.8961 -0.8525
  193DOPC   H4S23846   7.131   1.353   3.646 -2.2466  0.2471 -1.1330
  193DOPC   C2523847   7.198   1.567   3.694 -0.2432  0.3522  0.4052
  193DOPC   H5R23848   7.214   1.655   3.629  2.2359 -1.0800 -1.0429
  193DOPC   H5S23849   7.296   1.534   3.732  0.1923 -0.4689 -1.3432
  193DOPC   C2623850   7.100   1.600   3.802  0.1338  0.7126  0.5765
  193DOPC   H6R23851   7.013   1.649   3.755 -1.0567  1.9913  3.8199
  193DOPC   H6S23852   7.140   1.682   3.866 -1.0351  1.6725  0.1144
  193DOPC   C2723853   7.034   1.481   3.886  0.6302 -0.2761  0.1144
  193DOPC   H7R23854   6.972   1.419   3.818 -1.3407  1.2218  0.4514
  193DOPC   H7S23855   6.959   1.528   3.953  0.5377  0.8594 -0.7533
  193DOPC   C2823856   7.136   1.401   3.967 -0.0580 -0.3959 -0.2514
  193DOPC   H8R23857   7.211   1.357   3.897  1.8420 -1.2073  2.1425
  193DOPC   H8S23858   7.087   1.313   4.014  1.1755 -1.6098 -1.1405
  193DOPC   C2923859   7.212   1.482   4.060 -0.5648 -0.1268 -0.0242
  193DOPC   H9R23860   7.276   1.555   4.009 -1.3275  0.4936 -0.0989
  193DOPC  C21023861   7.193   1.495   4.192  0.2054  0.4698  0.2728
  193DOPC  H10R23862   7.259   1.565   4.245  0.6784 -0.4221  0.8715
  193DOPC  C21123863   7.085   1.414   4.264  0.0951 -0.4503 -0.2703
  193DOPC  H11R23864   7.124   1.312   4.282 -1.1670 -1.0123 -0.6330
  193DOPC  H11S23865   6.994   1.402   4.201 -0.2607  1.5975 -0.2391
  193DOPC  C21223866   7.026   1.470   4.393  0.4924 -0.2684 -0.0516
  193DOPC  H12R23867   6.953   1.395   4.430  1.9317 -0.8235  1.8199
  193DOPC  H12S23868   6.983   1.570   4.372 -0.4880 -0.7219 -0.2315
  193DOPC  C21323869   7.131   1.482   4.508  0.1745 -0.6509 -0.0425
  193DOPC  H13R23870   7.204   1.560   4.479 -0.4898  0.3751  0.9550
  193DOPC  H13S23871   7.184   1.387   4.526  1.6948  0.4056  1.2911
  193DOPC  C21423872   7.055   1.523   4.638 -0.6222 -0.6288 -0.2264
  193DOPC  H14R23873   6.958   1.469   4.639 -1.9339  1.4077 -3.2935
  193DOPC  H14S23874   7.018   1.628   4.632 -0.6737 -0.6475 -0.2337
  193DOPC  C21523875   7.138   1.486   4.765 -0.7460  0.3123  0.3172
  193DOPC  H15R23876   7.215   1.565   4.777 -1.3316  0.8948  0.3126
  193DOPC  H15S23877   7.192   1.390   4.750 -0.5603  0.2802  1.1368
  193DOPC  C21623878   7.056   1.490   4.893 -0.0555  0.6980  0.0260
  193DOPC  H16R23879   6.980   1.412   4.872  1.6142 -1.0935  0.3810
  193DOPC  H16S23880   7.015   1.593   4.901 -3.9084 -0.3538 -3.0241
  193DOPC  C21723881   7.120   1.445   5.028  0.2289 -0.0144  0.4013
  193DOPC  H17R23882   7.208   1.512   5.042  0.0936  0.9816 -2.6089
  193DOPC  H17S23883   7.149   1.339   5.014 -0.8840 -0.3568  0.6158
  193DOPC  C21823884   7.025   1.464   5.143 -0.6527  0.3888 -0.2756
  193DOPC  H18R23885   6.941   1.391   5.134 -0.5351 -0.0027  1.4654
  193DOPC  H18S23886   6.992   1.570   5.144  1.3586  1.0617 -0.2926
  193DOPC  H18T23887   7.064   1.433   5.242 -1.8388  0.9587  0.3867
  193DOPC   C3323888   7.578   1.455   3.668 -0.7489  0.3098 -0.1823
  193DOPC   H3X23889   7.515   1.393   3.601 -0.7756  1.8619 -1.6398
  193DOPC   H3Y23890   7.514   1.542   3.691 -1.2373 -0.0863 -0.0175
  193DOPC   C3423891   7.611   1.363   3.785 -0.3073  0.8379  0.1114
  193DOPC   H4X23892   7.656   1.265   3.757  0.9635  1.3614  0.2348
  193DOPC   H4Y23893   7.520   1.349   3.848 -0.8539  0.1761 -0.8097
  193DOPC   C3523894   7.720   1.432   3.880  0.8361 -0.0384  0.5677
  193DOPC   H5X23895   7.719   1.541   3.859 -0.8664  0.1376  1.3899
  193DOPC   H5Y23896   7.821   1.410   3.839  0.2255 -2.2373  0.1271
  193DOPC   C3623897   7.706   1.399   4.024 -0.2417  0.2617  0.1923
  193DOPC   H6X23898   7.706   1.288   4.028  0.6321  0.1742 -1.6042
  193DOPC   H6Y23899   7.794   1.436   4.080 -1.4674  4.0961 -0.1314
  193DOPC   C3723900   7.591   1.456   4.113  0.5032  0.0918  0.3599
  193DOPC   H7X23901   7.628   1.550   4.159  2.4313 -0.1149 -0.6575
  193DOPC   H7Y23902   7.501   1.477   4.051  1.7525 -1.5154 -2.1792
  193DOPC   C3823903   7.553   1.361   4.231 -0.4803  0.2934 -0.2158
  193DOPC   H8X23904   7.520   1.264   4.188  1.3816  0.0637 -1.2585
  193DOPC   H8Y23905   7.464   1.402   4.283 -0.9115 -1.1017  0.1772
  193DOPC   C3923906   7.677   1.339   4.319  0.2941  0.2477 -0.6559
  193DOPC   H9X23907   7.735   1.248   4.304  3.2197  1.6830  1.0053
  193DOPC  C31023908   7.708   1.399   4.433  0.1393 -0.1428 -0.3344
  193DOPC  H10X23909   7.806   1.377   4.478  0.4824 -2.1567 -1.9298
  193DOPC  C31123910   7.624   1.503   4.500  0.4815 -0.5876 -0.1329
  193DOPC  H11X23911   7.533   1.523   4.439  2.5587  1.8899 -2.6893
  193DOPC  H11Y23912   7.672   1.603   4.496  0.5607 -0.6668 -3.7468
  193DOPC  C31223913   7.565   1.452   4.633  0.6327  0.6384 -0.4953
  193DOPC  H12X23914   7.520   1.353   4.613  0.0729  1.0993 -1.5641
  193DOPC  H12Y23915   7.482   1.521   4.660  1.1086  0.9112  0.3008
  193DOPC  C31323916   7.665   1.435   4.746 -0.8410 -0.5163 -0.3286
  193DOPC  H13X23917   7.748   1.372   4.709  0.1572 -0.1027  1.0915
  193DOPC  H13Y23918   7.706   1.536   4.766 -2.5337  0.2152 -0.3638
  193DOPC  C31423919   7.621   1.376   4.879  0.0985  0.1182 -0.4470
  193DOPC  H14X23920   7.597   1.271   4.850  2.2854 -0.1727 -1.4558
  193DOPC  H14Y23921   7.706   1.365   4.951  0.1744 -0.6967 -0.6525
  193DOPC  C31523922   7.513   1.450   4.958 -1.0842 -0.2988  0.6353
  193DOPC  H15X23923   7.412   1.456   4.911 -0.9353  1.8416  0.4895
  193DOPC  H15Y23924   7.557   1.551   4.972  0.4009 -1.1086  2.0127
  193DOPC  C31623925   7.496   1.397   5.105  0.4119 -0.4754 -0.4727
  193DOPC  H16X23926   7.588   1.429   5.159 -0.1685  2.8249 -1.2202
  193DOPC  H16Y23927   7.415   1.449   5.160 -0.1077 -1.3457 -0.3967
  193DOPC  C31723928   7.468   1.251   5.117  0.6838  0.7875  0.5993
  193DOPC  H17X23929   7.383   1.233   5.049  0.6808  0.5850  0.6562
  193DOPC  H17Y23930   7.551   1.190   5.075  1.4740  2.5611 -0.5090
  193DOPC  C31823931   7.429   1.216   5.262 -0.0177 -0.1753 -0.1409
  193DOPC  H18X23932   7.363   1.126   5.256  1.5976 -1.3806 -0.6672
  193DOPC  H18Y23933   7.524   1.198   5.317 -0.9917  0.2915  1.7715
  193DOPC  H18Z23934   7.387   1.301   5.318 -1.1793 -1.1332  0.4911
  194DOPC     N23935   1.328   0.077   3.428 -1.3376  0.1330 -0.2245
  194DOPC   C1223936   1.476   0.072   3.416 -0.3498 -0.2180 -0.0088
  194DOPC  H12A23937   1.520  -0.009   3.472 -0.3288 -0.1856  0.0213
  194DOPC  H12B23938   1.513   0.162   3.462 -1.5969 -0.5608  1.7992
  194DOPC   C1323939   1.267  -0.030   3.352 -0.3764 -0.0571  0.1693
  194DOPC  H13A23940   1.295  -0.126   3.395 -0.6342  0.1400  0.7957
  194DOPC  H13B23941   1.160  -0.026   3.369 -0.3161 -0.0493  0.5703
  194DOPC  H13C23942   1.285  -0.025   3.246 -0.4928 -2.0463  0.0110
  194DOPC   C1423943   1.283   0.209   3.369  0.3067 -0.6290  0.5819
  194DOPC  H14A23944   1.306   0.293   3.433 -2.5460 -0.5347  1.6266
  194DOPC  H14B23945   1.310   0.215   3.265  0.4367  1.4711  0.7008
  194DOPC  H14C23946   1.175   0.203   3.372  0.2054 -0.4810 -1.5438
  194DOPC   C1523947   1.291   0.073   3.569  0.7911 -0.5167  0.2032
  194DOPC  H15A23948   1.325  -0.017   3.618  0.5922 -0.5804  0.2284
  194DOPC  H15B23949   1.186   0.092   3.589  1.0836  1.1229  0.2653
  194DOPC  H15C23950   1.345   0.156   3.611 -0.2400  0.3330 -0.1014
  194DOPC   C1123951   1.537   0.055   3.271  0.5983  0.4368 -0.0566
  194DOPC  H11A23952   1.504   0.131   3.197 -0.9357 -0.6621 -0.5718
  194DOPC  H11B23953   1.646   0.057   3.288  0.2181 -0.6133  3.1534
  194DOPC     P23954   1.575  -0.209   3.255 -0.1343 -0.0342  0.0327
  194DOPC   O1323955   1.691  -0.208   3.166 -0.3365  0.2605 -0.1350
  194DOPC   O1423956   1.483  -0.320   3.270  0.3986  0.5213 -0.0335
  194DOPC   O1223957   1.498  -0.073   3.222  0.2702  0.3270  0.3474
  194DOPC   O1123958   1.616  -0.169   3.400 -0.4373  0.2267 -0.3366
  194DOPC    C123959   1.754  -0.191   3.433 -0.4844  0.2459 -0.5695
  194DOPC    HA23960   1.816  -0.103   3.406  0.6767 -0.2534  0.3820
  194DOPC    HB23961   1.794  -0.284   3.387 -3.0860 -1.7784  0.9491
  194DOPC    C223962   1.785  -0.207   3.589 -0.0932 -0.0889  0.3409
  194DOPC    HS23963   1.698  -0.266   3.626  0.9264 -0.9641  1.4130
  194DOPC   O2123964   1.807  -0.077   3.641 -0.1414 -0.9465 -0.3266
  194DOPC   C2123965   1.703  -0.005   3.675  0.0370 -0.0653  0.2640
  194DOPC   O2223966   1.586  -0.037   3.665 -0.1198  0.1437 -0.2483
  194DOPC   C2223967   1.741   0.129   3.737 -1.0361  0.2090 -0.3673
  194DOPC   H2R23968   1.651   0.192   3.751  0.1775  1.5767  1.8214
  194DOPC   H2S23969   1.799   0.190   3.664 -1.0446  1.3682  0.5611
  194DOPC    C323970   1.912  -0.279   3.605 -0.0003  0.2034 -0.2182
  194DOPC    HX23971   1.997  -0.227   3.557  1.9171  0.1424  2.8770
  194DOPC    HY23972   1.899  -0.375   3.551 -1.9771  0.1105  0.3144
  194DOPC   O3123973   1.946  -0.293   3.743  0.5380  0.3103  0.2102
  194DOPC   C3123974   1.868  -0.378   3.813 -0.6395  0.1533  0.0860
  194DOPC   O3223975   1.774  -0.444   3.771 -0.0168 -0.8691  0.2623
  194DOPC   C3223976   1.912  -0.376   3.962 -0.3911 -0.5218 -0.0443
  194DOPC   H2X23977   1.909  -0.268   3.986 -0.9431 -0.4531 -0.4148
  194DOPC   H2Y23978   1.827  -0.425   4.015  0.5584 -0.6275  1.4537
  194DOPC   C2323979   1.824   0.120   3.865  0.8505 -0.3111  0.7401
  194DOPC   H3R23980   1.858   0.223   3.891  1.0143  0.0825 -0.9331
  194DOPC   H3S23981   1.920   0.069   3.841  1.2485  0.4316  0.7270
  194DOPC   C2423982   1.754   0.043   3.975  0.0876  0.1950  0.2279
  194DOPC   H4R23983   1.713  -0.050   3.932 -0.5002  1.3639 -1.8770
  194DOPC   H4S23984   1.663   0.098   4.008  0.5383  0.5523  0.8866
  194DOPC   C2523985   1.848   0.001   4.090 -0.0937 -0.0834  0.1174
  194DOPC   H5R23986   1.907   0.087   4.127  1.4922 -1.4666  0.9235
  194DOPC   H5S23987   1.918  -0.076   4.051 -0.1434  0.7132 -1.6382
  194DOPC   C2623988   1.755  -0.068   4.196 -0.5480  0.0772  0.0999
  194DOPC   H6R23989   1.699  -0.152   4.149 -2.3074  1.5014 -0.4560
  194DOPC   H6S23990   1.665  -0.006   4.212  0.1117  1.1003 -0.0791
  194DOPC   C2723991   1.818  -0.113   4.322 -0.0471 -0.1956 -0.3788
  194DOPC   H7R23992   1.878  -0.204   4.302  0.5361 -0.1088  0.8569
  194DOPC   H7S23993   1.735  -0.136   4.392 -0.7185  0.2807 -1.0048
  194DOPC   C2823994   1.894   0.002   4.393  0.0330  0.1646  0.2088
  194DOPC   H8R23995   1.815   0.077   4.415  1.2646  1.6411 -0.3225
  194DOPC   H8S23996   1.967   0.061   4.335  0.0586  0.1439  0.2196
  194DOPC   C2923997   1.937  -0.047   4.527  0.2400  0.1103  0.0598
  194DOPC   H9R23998   1.947  -0.156   4.539 -0.6014 -0.3319 -2.7173
  194DOPC  C21023999   1.949   0.042   4.634  0.0341 -0.2471  0.0307
  194DOPC  H10R24000   1.984  -0.000   4.729  1.1268  0.5324 -0.0025
  194DOPC  C21124001   1.930   0.194   4.623 -0.2827 -0.8588  0.0426
  194DOPC  H11R24002   1.940   0.233   4.519  3.4868 -1.1352  0.1519
  194DOPC  H11S24003   2.009   0.244   4.684  0.4308 -1.4102 -0.4052
  194DOPC  C21224004   1.792   0.231   4.670  0.0533  0.2841  0.0342
  194DOPC  H12R24005   1.720   0.164   4.619  0.3133  1.1135 -1.4681
  194DOPC  H12S24006   1.767   0.336   4.643 -0.5078  0.9818  2.8886
  194DOPC  C21324007   1.772   0.227   4.820  0.0596  0.1315  1.0085
  194DOPC  H13R24008   1.828   0.140   4.863  0.1252 -0.3680 -0.0679
  194DOPC  H13S24009   1.665   0.212   4.848 -0.2998  1.8157  0.6404
  194DOPC  C21424010   1.815   0.356   4.895 -0.0489 -0.0792 -0.7260
  194DOPC  H14R24011   1.741   0.431   4.860  0.3940  2.0966  2.5612
  194DOPC  H14S24012   1.921   0.371   4.868  0.0931 -1.1176 -0.7924
  194DOPC  C21524013   1.808   0.346   5.050 -0.2449  0.4357  0.7521
  194DOPC  H15R24014   1.857   0.251   5.081 -0.2755 -0.6827 -2.3739
  194DOPC  H15S24015   1.700   0.334   5.071 -0.7151  0.7374 -1.3206
  194DOPC  C21624016   1.869   0.471   5.115 -0.4971 -0.0944 -0.3155
  194DOPC  H16R24017   1.826   0.488   5.217  0.7818  1.0218  0.0676
  194DOPC  H16S24018   1.861   0.560   5.049 -0.9648 -0.0621 -0.2182
  194DOPC  C21724019   2.021   0.456   5.146  0.0286  0.0067  0.2846
  194DOPC  H17R24020   2.027   0.371   5.218  0.1143 -0.9552 -0.8270
  194DOPC  H17S24021   2.053   0.550   5.194  0.1409  0.1356 -0.0389
  194DOPC  C21824022   2.094   0.432   5.021 -0.8734  0.0473 -0.2351
  194DOPC  H18R24023   2.202   0.437   5.049 -1.2520  3.0013  1.0082
  194DOPC  H18S24024   2.072   0.518   4.955  1.2585  0.0115 -1.0736
  194DOPC  H18T24025   2.073   0.331   4.980 -0.7455 -2.2713  4.7085
  194DOPC   C3324026   2.043  -0.448   3.986 -0.5781 -0.1383 -0.0865
  194DOPC   H3X24027   2.123  -0.396   3.929  0.5233  0.4857  1.9206
  194DOPC   H3Y24028   2.027  -0.549   3.943  0.7104 -1.1409  1.6821
  194DOPC   C3424029   2.086  -0.445   4.133 -0.3299  0.9384  0.2492
  194DOPC   H4X24030   2.076  -0.351   4.192  0.8824  0.0521  1.9687
  194DOPC   H4Y24031   2.192  -0.478   4.143 -0.5655  0.1917  0.3336
  194DOPC   C3524032   2.015  -0.554   4.222  0.3097  0.7272 -0.5626
  194DOPC   H5X24033   1.920  -0.592   4.177 -0.0185  1.7427 -0.7604
  194DOPC   H5Y24034   1.988  -0.502   4.317 -1.2239  0.0606 -0.5956
  194DOPC   C3624035   2.102  -0.682   4.252  0.5439 -0.2559 -0.5909
  194DOPC   H6X24036   2.121  -0.746   4.163  0.5532 -2.9193  1.2103
  194DOPC   H6Y24037   2.203  -0.657   4.289  0.0397  2.1734 -0.7104
  194DOPC   C3724038   2.032  -0.764   4.366  0.0498 -0.4056  0.6156
  194DOPC   H7X24039   1.982  -0.699   4.442 -1.0788  0.2275 -0.6220
  194DOPC   H7Y24040   1.950  -0.823   4.321 -0.4470 -1.2420  2.5194
  194DOPC   C3824041   2.130  -0.866   4.425 -0.2900  0.9159  0.2011
  194DOPC   H8X24042   2.180  -0.925   4.346 -0.6021  0.6501  0.1988
  194DOPC   H8Y24043   2.082  -0.938   4.493  2.3244 -2.8305 -1.5916
  194DOPC   C3924044   2.244  -0.799   4.496 -0.7388 -0.6467 -0.5654
  194DOPC   H9X24045   2.299  -0.726   4.435  2.7896 -0.4877  2.4541
  194DOPC  C31024046   2.283  -0.812   4.627  0.3909 -0.7131  0.2841
  194DOPC  H10X24047   2.364  -0.746   4.662 -0.5947  0.3716  0.5741
  194DOPC  C31124048   2.221  -0.895   4.738 -0.5582 -0.1224  0.3657
  194DOPC  H11X24049   2.288  -0.977   4.771  0.4376  0.7699  0.6355
  194DOPC  H11Y24050   2.124  -0.947   4.719 -0.2647 -1.5038  2.3373
  194DOPC  C31224051   2.195  -0.815   4.864  0.0809 -0.2044 -0.2997
  194DOPC  H12X24052   2.131  -0.732   4.828 -1.1395 -0.1865  1.8101
  194DOPC  H12Y24053   2.296  -0.787   4.902  0.5849 -1.2769 -0.7956
  194DOPC  C31324054   2.126  -0.895   4.974 -0.1774  0.4136  0.9557
  194DOPC  H13X24055   2.084  -0.823   5.048 -2.3068  2.0707 -1.6547
  194DOPC  H13Y24056   2.033  -0.945   4.939 -2.2671  3.6271  1.4835
  194DOPC  C31424057   2.211  -1.000   5.043  0.5050  0.1282 -0.6924
  194DOPC  H14X24058   2.246  -1.069   4.963 -0.1421 -0.2408 -0.6670
  194DOPC  H14Y24059   2.296  -0.960   5.102 -0.5010 -1.4862  2.0206
  194DOPC  C31524060   2.127  -1.088   5.148 -0.4288 -0.3095 -0.2643
  194DOPC  H15X24061   2.034  -1.126   5.100 -1.1141  0.4755  0.4124
  194DOPC  H15Y24062   2.091  -1.025   5.232 -0.6122 -1.4638  0.5415
  194DOPC  C31624063   2.193  -1.208   5.211 -0.0279  0.0473  0.2266
  194DOPC  H16X24064   2.121  -1.269   5.269  2.6523 -2.1986  1.4258
  194DOPC  H16Y24065   2.232  -1.274   5.130 -1.7022 -1.2319  0.4004
  194DOPC  C31724066   2.310  -1.162   5.301 -0.1788 -0.2057 -0.0882
  194DOPC  H17X24067   2.363  -1.072   5.262  0.4598 -1.1778 -1.5799
  194DOPC  H17Y24068   2.267  -1.125   5.396  2.2852  0.8286  0.6988
  194DOPC  C31824069   2.412  -1.274   5.335 -0.0484  0.0387 -0.1139
  194DOPC  H18X24070   2.369  -1.355   5.398 -0.2853  0.6248  0.4857
  194DOPC  H18Y24071   2.457  -1.315   5.242  1.3930  0.0563  0.5610
  194DOPC  H18Z24072   2.506  -1.242   5.385 -0.6925  1.3625  0.3029
  195DOPC     N24073   5.830   0.980   2.775  0.7171 -0.0095 -0.1594
  195DOPC   C1224074   5.883   0.985   2.911 -0.1613 -0.0052  0.0089
  195DOPC  H12A24075   5.918   0.884   2.932  0.0640 -0.0952 -0.7344
  195DOPC  H12B24076   5.810   1.023   2.980  1.2760  1.0096  1.0315
  195DOPC   C1324077   5.692   0.915   2.782 -0.7455 -0.2068 -0.2141
  195DOPC  H13A24078   5.634   0.974   2.852  2.9354  2.8003  0.6473
  195DOPC  H13B24079   5.637   0.914   2.689 -1.6067 -1.4989  0.2891
  195DOPC  H13C24080   5.700   0.812   2.812  1.6246 -0.4679 -1.4595
  195DOPC   C1424081   5.904   0.895   2.686 -0.1171  0.3475  0.3994
  195DOPC  H14A24082   6.011   0.904   2.693  0.2429 -1.5498 -1.7158
  195DOPC  H14B24083   5.879   0.792   2.708  1.2291 -0.1058 -0.0943
  195DOPC  H14C24084   5.875   0.910   2.583  1.8375  1.1416 -0.0824
  195DOPC   C1524085   5.816   1.114   2.714  0.3370  0.3205 -0.8026
  195DOPC  H15A24086   5.753   1.170   2.782 -1.4161 -0.2905 -1.8484
  195DOPC  H15B24087   5.759   1.118   2.622 -0.9949 -0.3179 -0.0331
  195DOPC  H15C24088   5.909   1.168   2.719  2.0587 -2.4802 -0.1969
  195DOPC   C1124089   6.014   1.065   2.933  0.3071 -0.1943 -0.7141
  195DOPC  H11A24090   5.989   1.170   2.907 -2.9328 -0.3868  1.1091
  195DOPC  H11B24091   6.040   1.070   3.041 -0.0316  0.6729 -0.6650
  195DOPC     P24092   6.201   0.892   2.923 -0.0741  0.3850 -0.2766
  195DOPC   O1324093   6.345   0.904   2.899  0.1180  0.0213  0.3862
  195DOPC   O1424094   6.136   0.777   2.859 -0.6766 -0.0690  0.0366
  195DOPC   O1224095   6.134   1.018   2.861  0.0450  0.1984 -0.5843
  195DOPC   O1124096   6.170   0.899   3.083 -0.2448  0.3625  0.8814
  195DOPC    C124097   6.272   0.955   3.165  0.5321  0.0630 -0.0009
  195DOPC    HA24098   6.234   0.963   3.269  0.9212 -0.7336  0.2070
  195DOPC    HB24099   6.302   1.057   3.133  2.8467 -0.6821 -0.3712
  195DOPC    C224100   6.395   0.861   3.198 -0.1916 -0.4747  0.2193
  195DOPC    HS24101   6.452   0.888   3.107 -0.8002  0.7929  0.1937
  195DOPC   O2124102   6.353   0.726   3.212 -0.1145  0.4843 -0.8840
  195DOPC   C2124103   6.445   0.632   3.194  0.3552 -0.7073 -0.0576
  195DOPC   O2224104   6.565   0.653   3.191  0.5112 -0.0259  0.0605
  195DOPC   C2224105   6.376   0.493   3.198  0.2047 -0.3928  0.7637
  195DOPC   H2R24106   6.404   0.432   3.109 -0.4665  0.7884 -0.2870
  195DOPC   H2S24107   6.266   0.510   3.193  0.2671  0.5351  2.0466
  195DOPC    C324108   6.465   0.913   3.332 -0.2989  0.7100  0.3609
  195DOPC    HX24109   6.483   1.022   3.331 -0.3414  0.7836  2.8890
  195DOPC    HY24110   6.564   0.863   3.332 -0.3241  0.6049 -0.9601
  195DOPC   O3124111   6.393   0.866   3.458  0.0789  0.5041 -0.0140
  195DOPC   C3124112   6.347   0.963   3.525  0.0267 -0.2630  0.0270
  195DOPC   O3224113   6.346   1.084   3.503  0.0960  0.1912  0.1755
  195DOPC   C3224114   6.286   0.906   3.652  0.0945  0.0335 -0.0888
  195DOPC   H2X24115   6.326   0.803   3.660 -0.0387  0.0026  0.1963
  195DOPC   H2Y24116   6.320   0.957   3.745  0.0430 -2.2562  1.2507
  195DOPC   C2324117   6.429   0.410   3.320 -0.2050  0.3653  0.5431
  195DOPC   H3R24118   6.538   0.435   3.322  0.0588  0.2113 -3.3739
  195DOPC   H3S24119   6.422   0.302   3.294  3.0730  0.2893 -0.4779
  195DOPC   C2424120   6.360   0.443   3.447 -0.7171  0.6278  0.2122
  195DOPC   H4R24121   6.251   0.420   3.438 -0.4903  0.3135 -3.0884
  195DOPC   H4S24122   6.379   0.549   3.475  0.8890  0.0821  1.2780
  195DOPC   C2524123   6.431   0.369   3.563  0.1087  0.0810 -0.3947
  195DOPC   H5R24124   6.538   0.397   3.575  0.9098 -3.0444  0.6394
  195DOPC   H5S24125   6.432   0.263   3.531 -1.9154 -0.1215  0.0644
  195DOPC   C2624126   6.361   0.383   3.699  0.2713 -0.3562  0.3248
  195DOPC   H6R24127   6.257   0.349   3.678 -0.4953  1.5510  0.8525
  195DOPC   H6S24128   6.364   0.492   3.717  0.1598  0.0482 -1.8019
  195DOPC   C2724129   6.431   0.309   3.807  0.7047  0.0705  0.0912
  195DOPC   H7R24130   6.522   0.368   3.830  1.6464 -0.7115 -1.5013
  195DOPC   H7S24131   6.461   0.210   3.767  2.5717 -0.0383  1.6152
  195DOPC   C2824132   6.350   0.280   3.936 -0.3448  0.6822  0.0940
  195DOPC   H8R24133   6.425   0.231   4.000  0.3750  0.6664 -0.7430
  195DOPC   H8S24134   6.269   0.204   3.924  1.2950 -1.4335  1.6550
  195DOPC   C2924135   6.299   0.404   4.006 -0.4248 -0.8947 -0.2373
  195DOPC   H9R24136   6.312   0.496   3.947  2.1143 -1.6121 -0.9354
  195DOPC  C21024137   6.259   0.417   4.131  0.8033 -0.2165 -0.6886
  195DOPC  H10R24138   6.213   0.513   4.156 -1.0641 -0.0726 -4.1286
  195DOPC  C21124139   6.246   0.310   4.237  0.4143 -0.4110 -0.1642
  195DOPC  H11R24140   6.158   0.328   4.303  2.2205  1.3712  1.9204
  195DOPC  H11S24141   6.333   0.313   4.306  0.4913 -0.9091 -0.2388
  195DOPC  C21224142   6.225   0.160   4.195  0.0534  0.3483  0.7570
  195DOPC  H12R24143   6.315   0.113   4.150  1.9513  1.5938  3.0228
  195DOPC  H12S24144   6.149   0.170   4.115 -1.1591  1.2488  1.9874
  195DOPC  C21324145   6.166   0.066   4.302 -0.3085  0.5181 -0.2797
  195DOPC  H13R24146   6.142  -0.031   4.253 -0.6782  1.5997 -2.3893
  195DOPC  H13S24147   6.067   0.096   4.342 -0.8136 -0.1328 -1.0193
  195DOPC  C21424148   6.254   0.056   4.431 -0.0341  0.2319 -0.2127
  195DOPC  H14R24149   6.260   0.162   4.463  1.7762  1.0633 -2.9518
  195DOPC  H14S24150   6.352   0.019   4.393 -0.5641  0.5825 -2.0343
  195DOPC  C21524151   6.193  -0.044   4.532  0.4594 -0.0169 -0.0502
  195DOPC  H15R24152   6.172  -0.140   4.480  0.5995  0.5760 -1.2323
  195DOPC  H15S24153   6.096  -0.002   4.563  1.0852  1.3202  0.1501
  195DOPC  C21624154   6.285  -0.078   4.656  0.1874  0.6132  0.6185
  195DOPC  H16R24155   6.387  -0.108   4.626  0.6788  1.0431  1.8266
  195DOPC  H16S24156   6.246  -0.163   4.718 -0.7429  1.2259  0.9009
  195DOPC  C21724157   6.281   0.034   4.759 -0.7356  0.2277  0.6782
  195DOPC  H17R24158   6.174   0.038   4.787 -0.8577  0.0542  0.2313
  195DOPC  H17S24159   6.295   0.136   4.717 -2.4904 -0.1169 -0.8481
  195DOPC  C21824160   6.362   0.017   4.894 -0.0051 -0.5766  0.0117
  195DOPC  H18R24161   6.315  -0.060   4.959 -2.0477  1.3756  0.9934
  195DOPC  H18S24162   6.360   0.112   4.951  2.3355 -0.0818 -0.6443
  195DOPC  H18T24163   6.467  -0.015   4.881  0.6713  1.5930 -0.3397
  195DOPC   C3324164   6.134   0.886   3.652 -0.5181  0.1372  0.0614
  195DOPC   H3X24165   6.115   0.833   3.557  0.7839  0.4525 -0.4030
  195DOPC   H3Y24166   6.086   0.986   3.656 -1.1411 -0.1888  2.7385
  195DOPC   C3424167   6.099   0.788   3.759  0.5014  0.0599  0.7798
  195DOPC   H4X24168   6.169   0.702   3.752  1.0538  0.2586  2.9891
  195DOPC   H4Y24169   5.998   0.746   3.741  0.7629 -0.4792  0.5513
  195DOPC   C3524170   6.099   0.846   3.899  0.1950  0.2537 -0.0240
  195DOPC   H5X24171   6.029   0.931   3.913  0.4700  0.4398  0.2095
  195DOPC   H5Y24172   6.201   0.886   3.916 -0.5599  1.3498  2.3153
  195DOPC   C3624173   6.068   0.737   4.004  0.1442  0.1313 -0.6290
  195DOPC   H6X24174   5.969   0.688   3.988 -0.4392  0.7382  0.9898
  195DOPC   H6Y24175   6.129   0.649   3.976  0.4016  0.4650 -1.1286
  195DOPC   C3724176   6.085   0.782   4.155 -0.2231  0.5443 -0.0537
  195DOPC   H7X24177   6.029   0.877   4.170 -1.0868  0.0668 -0.2307
  195DOPC   H7Y24178   6.038   0.701   4.215  0.5027 -0.1708 -0.4364
  195DOPC   C3824179   6.225   0.816   4.199  0.1783 -0.1758 -0.3301
  195DOPC   H8X24180   6.270   0.891   4.130 -1.1194  2.0804  1.1615
  195DOPC   H8Y24181   6.282   0.723   4.179  0.1520 -1.0630  3.1041
  195DOPC   C3924182   6.240   0.853   4.345  0.2497 -0.3731  0.1677
  195DOPC   H9X24183   6.171   0.934   4.373 -0.5877 -0.1191 -2.4142
  195DOPC  C31024184   6.335   0.804   4.428  0.5640  0.5113 -0.0182
  195DOPC  H10X24185   6.334   0.826   4.536 -1.2747 -0.5091  0.2088
  195DOPC  C31124186   6.438   0.700   4.393 -0.1027 -0.4061 -0.0917
  195DOPC  H11X24187   6.467   0.713   4.287 -1.0797  0.8137 -0.2285
  195DOPC  H11Y24188   6.400   0.596   4.406  1.5090 -0.8375  1.6316
  195DOPC  C31224189   6.571   0.717   4.475  0.1594 -0.0200  0.4069
  195DOPC  H12X24190   6.606   0.821   4.462 -2.5378  0.8860 -0.2827
  195DOPC  H12Y24191   6.652   0.652   4.437 -1.2011 -1.2005 -0.5849
  195DOPC  C31324192   6.543   0.694   4.625 -0.4634  0.0344 -0.5219
  195DOPC  H13X24193   6.476   0.767   4.676 -0.7067 -0.5818  0.0522
  195DOPC  H13Y24194   6.487   0.601   4.650  2.5279 -1.9233 -0.6160
  195DOPC  C31424195   6.671   0.710   4.714 -0.3346  0.1452 -0.3944
  195DOPC  H14X24196   6.642   0.706   4.821 -1.3034 -0.9061 -0.6708
  195DOPC  H14Y24197   6.733   0.623   4.684 -2.4879 -1.4350 -0.5339
  195DOPC  C31524198   6.754   0.837   4.691  0.9252 -0.2451 -0.2465
  195DOPC  H15X24199   6.682   0.922   4.696 -0.2334 -1.2152 -0.0651
  195DOPC  H15Y24200   6.805   0.830   4.593  2.4231 -0.2510  0.5174
  195DOPC  C31624201   6.867   0.853   4.795  0.0237  0.4979  0.0569
  195DOPC  H16X24202   6.833   0.854   4.901 -0.4090  1.9029 -0.0799
  195DOPC  H16Y24203   6.933   0.764   4.788  0.5286  0.7005  1.7542
  195DOPC  C31724204   6.950   0.977   4.758 -0.0770  0.1871 -0.2016
  195DOPC  H17X24205   7.015   0.967   4.668 -1.8127 -2.8033 -1.2754
  195DOPC  H17Y24206   6.874   1.055   4.737  0.1292 -0.1032 -2.2756
  195DOPC  C31824207   7.043   1.020   4.871  0.1373 -0.0938  0.0137
  195DOPC  H18X24208   7.107   0.933   4.896 -2.1113 -1.6401  0.7657
  195DOPC  H18Y24209   7.101   1.111   4.846 -0.4289  0.8006  1.7525
  195DOPC  H18Z24210   6.986   1.052   4.961  2.4797 -0.2185  1.6387
  196DOPC     N24211   0.707   0.816   2.932  0.9237  0.3510 -0.4775
  196DOPC   C1224212   0.645   0.684   2.980 -0.4639  0.1901 -0.0869
  196DOPC  H12A24213   0.728   0.615   2.975  0.1836  0.8953  0.5935
  196DOPC  H12B24214   0.574   0.657   2.904 -1.0074  0.7877  0.2051
  196DOPC   C1324215   0.801   0.876   3.026 -0.5318 -0.2480  0.0778
  196DOPC  H13A24216   0.752   0.877   3.122 -1.0802 -1.2197 -0.1811
  196DOPC  H13B24217   0.887   0.817   3.053 -0.1825 -0.0842 -0.6542
  196DOPC  H13C24218   0.825   0.977   2.996 -0.4888 -0.0497  0.7720
  196DOPC   C1424219   0.592   0.912   2.913  0.4710  0.0692  0.0676
  196DOPC  H14A24220   0.627   1.011   2.886  1.4832  0.2304  1.7816
  196DOPC  H14B24221   0.537   0.884   2.825 -0.7559  2.0301  0.1478
  196DOPC  H14C24222   0.535   0.908   3.005  1.2669  2.1722  0.7079
  196DOPC   C1524223   0.780   0.794   2.805  0.8944 -0.6561  0.0394
  196DOPC  H15A24224   0.838   0.881   2.777  1.3640 -1.0713 -0.2972
  196DOPC  H15B24225   0.712   0.786   2.722  1.8552 -1.1504 -0.7151
  196DOPC  H15C24226   0.854   0.716   2.816  1.6771 -0.0172 -0.5355
  196DOPC   C1124227   0.578   0.686   3.121  0.3714  0.9913 -0.0382
  196DOPC  H11A24228   0.495   0.760   3.129 -0.3191  0.2909 -0.5282
  196DOPC  H11B24229   0.539   0.583   3.134  1.4252  0.4328 -1.1496
  196DOPC     P24230   0.782   0.606   3.272  0.3578  0.2516 -0.0288
  196DOPC   O1324231   0.898   0.687   3.306  0.4419 -0.0020 -0.3717
  196DOPC   O1424232   0.790   0.502   3.167 -0.2065 -0.3066  0.0423
  196DOPC   O1224233   0.674   0.712   3.220 -0.7121  0.2365 -0.6722
  196DOPC   O1124234   0.722   0.550   3.409 -0.2178 -0.5086  0.3844
  196DOPC    C124235   0.643   0.638   3.490 -0.2525  0.3861  0.0081
  196DOPC    HA24236   0.623   0.581   3.582  1.8355 -0.7584 -0.1851
  196DOPC    HB24237   0.552   0.674   3.436 -0.8588 -0.9272  0.1298
  196DOPC    C224238   0.713   0.760   3.556 -0.2552 -0.1031 -0.0688
  196DOPC    HS24239   0.760   0.822   3.477 -0.3583 -0.2815 -0.2745
  196DOPC   O2124240   0.816   0.709   3.644  0.0352 -0.2818  1.0125
  196DOPC   C2124241   0.911   0.801   3.667 -0.4499 -0.5544 -0.2642
  196DOPC   O2224242   0.913   0.906   3.610 -0.2158 -0.3258 -0.3203
  196DOPC   C2224243   1.001   0.762   3.787 -0.3426 -0.7888 -0.7060
  196DOPC   H2R24244   1.063   0.673   3.762  1.0159 -0.7103  2.0304
  196DOPC   H2S24245   0.934   0.741   3.873 -1.1305 -2.7777 -1.7267
  196DOPC    C324246   0.608   0.842   3.641 -0.0725 -0.4460 -0.2928
  196DOPC    HX24247   0.521   0.868   3.576 -1.6323 -1.7778  1.1793
  196DOPC    HY24248   0.658   0.932   3.683 -1.7291  0.7892 -0.8166
  196DOPC   O3124249   0.563   0.752   3.748 -0.9540  0.4776 -0.1034
  196DOPC   C3124250   0.626   0.754   3.864 -0.0360  0.3210  0.6825
  196DOPC   O3224251   0.710   0.834   3.895 -0.1319 -0.0125  0.2289
  196DOPC   C3224252   0.560   0.641   3.949  0.6332  0.0077 -0.8614
  196DOPC   H2X24253   0.452   0.666   3.938  1.3652  3.0849 -2.2274
  196DOPC   H2Y24254   0.576   0.539   3.908 -0.2532 -0.6681  0.3959
  196DOPC   C2324255   1.105   0.878   3.834  0.4549  0.0384  0.5809
  196DOPC   H3R24256   1.039   0.965   3.855 -1.5051 -1.5558  1.4019
  196DOPC   H3S24257   1.174   0.895   3.749 -0.6697 -0.2145 -0.3948
  196DOPC   C2424258   1.166   0.847   3.970 -0.0158  0.0941  0.6163
  196DOPC   H4R24259   1.239   0.927   3.996 -0.7748  0.7716  0.7070
  196DOPC   H4S24260   1.214   0.748   3.954 -1.4708 -0.0246 -5.1563
  196DOPC   C2524261   1.067   0.848   4.090 -0.2032 -0.0733  0.9616
  196DOPC   H5R24262   1.005   0.755   4.087  0.2637 -0.3609 -0.2569
  196DOPC   H5S24263   1.015   0.946   4.080 -0.0136 -0.0753 -0.0742
  196DOPC   C2624264   1.139   0.840   4.229  0.8874 -0.4668  1.0737
  196DOPC   H6R24265   1.240   0.884   4.214  0.9816 -1.5493 -2.3886
  196DOPC   H6S24266   1.147   0.732   4.253  0.6388 -0.6218  0.4925
  196DOPC   C2724267   1.061   0.914   4.339  0.0663 -0.5501 -0.4061
  196DOPC   H7R24268   0.957   0.877   4.332 -0.5232  0.8223  0.6918
  196DOPC   H7S24269   1.052   1.021   4.314  0.8359 -0.3048  0.3240
  196DOPC   C2824270   1.127   0.906   4.480  0.0535  0.5120  0.5003
  196DOPC   H8R24271   1.211   0.977   4.494  1.7183 -1.0714 -0.9999
  196DOPC   H8S24272   1.166   0.802   4.479 -1.7862 -0.2043 -1.0977
  196DOPC   C2924273   1.009   0.913   4.582 -0.0221  0.1057 -0.4227
  196DOPC   H9R24274   0.907   0.903   4.540 -0.9205 -0.7439  1.8131
  196DOPC  C21024275   1.018   0.945   4.710  0.2834 -0.2631  0.0330
  196DOPC  H10R24276   0.929   0.980   4.764  1.0772  1.9238  0.0256
  196DOPC  C21124277   1.145   0.976   4.783 -0.1126  0.1231  0.4385
  196DOPC  H11R24278   1.151   1.082   4.817  2.3001  0.2536 -0.2075
  196DOPC  H11S24279   1.235   0.972   4.719  1.0113  4.4015  1.4061
  196DOPC  C21224280   1.156   0.880   4.903 -0.7043  0.2367  0.9341
  196DOPC  H12R24281   1.259   0.891   4.944 -0.9050 -1.2768  1.9144
  196DOPC  H12S24282   1.156   0.774   4.869 -0.5442 -0.3368  2.6220
  196DOPC  C21324283   1.047   0.906   5.008  0.1355  0.0261  0.3093
  196DOPC  H13R24284   0.950   0.862   4.977 -0.7521  1.6815  0.6137
  196DOPC  H13S24285   1.032   1.015   5.019 -0.9688  0.1291 -1.7251
  196DOPC  C21424286   1.094   0.843   5.143 -0.4564  0.5173 -0.3255
  196DOPC  H14R24287   1.039   0.891   5.226  0.5426 -0.3548  0.8758
  196DOPC  H14S24288   1.202   0.860   5.163 -0.0240  0.3017 -2.2104
  196DOPC  C21524289   1.060   0.690   5.133 -0.2983  0.4195  0.2514
  196DOPC  H15R24290   1.134   0.640   5.066 -1.5200  1.8930 -2.3764
  196DOPC  H15S24291   0.959   0.680   5.088  0.0740 -1.2837 -0.2885
  196DOPC  C21624292   1.054   0.626   5.274  0.6503  0.0527  0.3609
  196DOPC  H16R24293   0.968   0.677   5.324 -0.8035  0.7881 -2.6622
  196DOPC  H16S24294   1.157   0.634   5.315  0.7925  0.0685  0.0055
  196DOPC  C21724295   1.012   0.478   5.276 -0.5267 -0.3503 -0.0940
  196DOPC  H17R24296   1.071   0.418   5.204  2.4724  0.9333  1.0976
  196DOPC  H17S24297   0.909   0.482   5.234 -1.3137 -1.6493  1.6049
  196DOPC  C21824298   1.013   0.424   5.413 -0.4508 -0.3795  0.4300
  196DOPC  H18R24299   1.116   0.439   5.453 -0.2781 -0.3788 -0.0017
  196DOPC  H18S24300   0.992   0.315   5.415 -1.9639 -0.0972  0.7807
  196DOPC  H18T24301   0.941   0.475   5.480 -4.6557  0.7831 -4.3079
  196DOPC   C3324302   0.595   0.643   4.101 -0.3321 -0.4059  0.3349
  196DOPC   H3X24303   0.515   0.597   4.162 -2.1399  0.4021 -1.3216
  196DOPC   H3Y24304   0.600   0.751   4.129 -1.4936 -0.3629  0.4217
  196DOPC   C3424305   0.730   0.574   4.135  0.0926  0.4817 -0.1353
  196DOPC   H4X24306   0.815   0.605   4.072 -0.8742  0.2465 -1.6077
  196DOPC   H4Y24307   0.721   0.466   4.111 -1.0958  0.2994  0.9496
  196DOPC   C3524308   0.773   0.595   4.282 -0.7477  0.7936 -0.7517
  196DOPC   H5X24309   0.699   0.556   4.356 -0.0446  0.7961 -0.0387
  196DOPC   H5Y24310   0.786   0.705   4.286  0.3968  0.6464  1.1028
  196DOPC   C3624311   0.915   0.539   4.303 -0.2142  0.6227 -0.2638
  196DOPC   H6X24312   0.901   0.430   4.286 -1.6230  0.7216  0.1592
  196DOPC   H6Y24313   0.991   0.581   4.234  1.2597 -1.6785 -0.1711
  196DOPC   C3724314   0.960   0.553   4.451 -0.4607 -0.0618 -0.4322
  196DOPC   H7X24315   0.973   0.659   4.479 -1.4300 -0.6301  2.4315
  196DOPC   H7Y24316   0.879   0.515   4.517 -0.6683 -2.3886 -1.9149
  196DOPC   C3824317   1.095   0.489   4.493 -0.5980 -0.3896 -0.7425
  196DOPC   H8X24318   1.169   0.511   4.414 -1.1416 -1.9796 -1.7464
  196DOPC   H8Y24319   1.105   0.378   4.489 -0.5912 -0.4659  0.6574
  196DOPC   C3924320   1.141   0.547   4.625 -0.0797  0.6174  0.2704
  196DOPC   H9X24321   1.142   0.656   4.630  0.7964  0.6406 -0.2886
  196DOPC  C31024322   1.202   0.484   4.732  0.0046  0.0623  0.6924
  196DOPC  H10X24323   1.226   0.544   4.821  5.2666 -0.3087 -0.1603
  196DOPC  C31124324   1.247   0.337   4.737 -0.0772 -0.0481  0.1978
  196DOPC  H11X24325   1.357   0.333   4.729 -0.2204 -2.8646 -1.6228
  196DOPC  H11Y24326   1.198   0.269   4.664  0.0144 -0.9572  0.9485
  196DOPC  C31224327   1.209   0.266   4.864  0.4537  0.1038 -0.8173
  196DOPC  H12X24328   1.230   0.159   4.843  1.0222  0.2103 -0.7991
  196DOPC  H12Y24329   1.106   0.282   4.902  1.0066 -0.9633  1.3322
  196DOPC  C31324330   1.303   0.309   4.974 -0.3207  0.0574 -0.9116
  196DOPC  H13X24331   1.409   0.287   4.951 -0.1213 -0.2609  0.2620
  196DOPC  H13Y24332   1.299   0.419   4.988 -1.1072 -0.1194  0.3847
  196DOPC  C31424333   1.280   0.231   5.107 -0.4660  0.5840  0.4950
  196DOPC  H14X24334   1.308   0.302   5.188 -0.7719  0.4830  0.6890
  196DOPC  H14Y24335   1.179   0.193   5.131 -0.4659  0.4660  0.3080
  196DOPC  C31524336   1.371   0.100   5.117  0.4397  0.4704  0.0669
  196DOPC  H15X24337   1.474   0.129   5.084 -0.5003  1.3400 -2.2915
  196DOPC  H15Y24338   1.337   0.024   5.045 -2.7185  2.0385 -0.2678
  196DOPC  C31624339   1.353   0.026   5.250 -0.6036  0.1011 -0.6084
  196DOPC  H16X24340   1.395   0.092   5.328 -0.6549  0.4307 -0.8604
  196DOPC  H16Y24341   1.247   0.011   5.281 -0.5658 -0.9036 -0.9143
  196DOPC  C31724342   1.424  -0.110   5.242 -0.0276 -0.1305  0.1879
  196DOPC  H17X24343   1.354  -0.184   5.197 -0.5837  0.5253 -0.0363
  196DOPC  H17Y24344   1.510  -0.109   5.171 -0.8307 -2.9985 -0.9653
  196DOPC  C31824345   1.474  -0.174   5.377 -0.1275  0.1150  0.2230
  196DOPC  H18X24346   1.392  -0.204   5.446  0.7351 -1.8882  0.4250
  196DOPC  H18Y24347   1.512  -0.272   5.340 -2.1985 -0.9966  0.8819
  196DOPC  H18Z24348   1.545  -0.116   5.439  0.2935 -2.0599  1.8876
  197DOPC     N24349   2.310   7.433   2.612  0.1120  0.1734  0.2879
  197DOPC   C1224350   2.258   7.502   2.734 -0.2050  0.1075 -0.0379
  197DOPC  H12A24351   2.150   7.505   2.726 -0.1750  0.5541 -0.3339
  197DOPC  H12B24352   2.278   7.608   2.728 -0.5007  0.1241 -1.1195
  197DOPC   C1324353   2.270   7.507   2.491  0.4791 -0.3645 -0.1405
  197DOPC  H13A24354   2.285   7.614   2.500 -1.7196 -0.1114  1.1687
  197DOPC  H13B24355   2.316   7.459   2.406  1.2091 -2.1589  1.2053
  197DOPC  H13C24356   2.162   7.501   2.483  0.6574 -2.8398 -1.7145
  197DOPC   C1424357   2.255   7.291   2.607  0.1773 -0.6998 -0.8199
  197DOPC  H14A24358   2.283   7.244   2.514 -0.5132 -1.0204 -0.8757
  197DOPC  H14B24359   2.290   7.224   2.684  0.3069 -1.0410 -1.1719
  197DOPC  H14C24360   2.147   7.293   2.617  0.2031 -0.6479 -0.5441
  197DOPC   C1524361   2.463   7.427   2.617  0.4123  0.0071  0.2776
  197DOPC  H15A24362   2.505   7.523   2.641  1.0025 -0.6545  2.0452
  197DOPC  H15B24363   2.497   7.386   2.523  0.7207  1.3763 -0.2171
  197DOPC  H15C24364   2.490   7.354   2.692 -0.2109 -2.9316 -2.1066
  197DOPC   C1124365   2.317   7.450   2.867  0.2152 -0.3852  0.6727
  197DOPC  H11A24366   2.419   7.492   2.869 -0.4304  1.2333  1.4388
  197DOPC  H11B24367   2.268   7.501   2.953 -1.6440  0.0382 -0.5597
  197DOPC     P24368   2.235   7.225   2.984  0.1536 -0.3649 -0.3139
  197DOPC   O1324369   2.295   7.090   2.984  0.1668  0.4626  0.1810
  197DOPC   O1424370   2.092   7.237   2.945 -0.2895 -0.2262 -0.1903
  197DOPC   O1224371   2.326   7.305   2.881  0.1948 -0.5153  0.3390
  197DOPC   O1124372   2.266   7.294   3.121  0.1160  0.1633  0.4055
  197DOPC    C124373   2.397   7.327   3.164 -0.0237  0.3177 -0.6143
  197DOPC    HA24374   2.391   7.419   3.227 -0.7462 -1.1038  1.4863
  197DOPC    HB24375   2.475   7.347   3.087  2.2640  0.2449  1.5252
  197DOPC    C224376   2.448   7.215   3.257 -0.5903  0.2878 -0.7218
  197DOPC    HS24377   2.459   7.132   3.184  0.3502 -0.5777  0.3646
  197DOPC   O2124378   2.359   7.197   3.365 -0.1212  0.3794 -0.0153
  197DOPC   C2124379   2.359   7.064   3.403 -0.0752  0.0543 -0.5135
  197DOPC   O2224380   2.437   6.981   3.359  0.1250  0.0333 -0.1212
  197DOPC   C2224381   2.259   7.049   3.519 -0.2663 -0.1810 -0.4233
  197DOPC   H2R24382   2.275   6.950   3.566 -0.9927  0.1093  0.4692
  197DOPC   H2S24383   2.160   7.043   3.468  0.0884  0.5210 -1.2072
  197DOPC    C324384   2.594   7.258   3.305  0.7249 -0.0867  0.6623
  197DOPC    HX24385   2.587   7.352   3.363  3.2679 -0.6574  2.0443
  197DOPC    HY24386   2.658   7.278   3.217 -0.6464  2.3330  0.1254
  197DOPC   O3124387   2.655   7.168   3.395 -0.2835 -0.1772 -0.2374
  197DOPC   C3124388   2.712   7.064   3.335  0.1964 -1.3130  0.6006
  197DOPC   O3224389   2.705   7.039   3.217 -0.0115  0.4406  0.3759
  197DOPC   C3224390   2.796   6.980   3.429 -0.0817  0.6844  0.7420
  197DOPC   H2X24391   2.876   7.047   3.466 -0.1833  0.5332  1.2458
  197DOPC   H2Y24392   2.727   6.938   3.506 -0.0143  2.3160  1.7322
  197DOPC   C2324393   2.244   7.167   3.608  0.8580 -0.9071  0.1402
  197DOPC   H3R24394   2.162   7.154   3.683 -0.8981 -0.6525 -1.6589
  197DOPC   H3S24395   2.195   7.253   3.558  0.2875 -0.2607  1.7247
  197DOPC   C2424396   2.374   7.210   3.681 -0.0182 -0.4453 -0.6642
  197DOPC   H4R24397   2.354   7.316   3.712 -0.4262 -0.9305  0.8443
  197DOPC   H4S24398   2.465   7.221   3.620  1.8650  0.9192  2.1510
  197DOPC   C2524399   2.396   7.123   3.808  1.1374 -0.4526  1.0563
  197DOPC   H5R24400   2.421   7.023   3.766  0.2728 -0.9075  1.6158
  197DOPC   H5S24401   2.297   7.116   3.858  0.5891 -0.9491 -0.0531
  197DOPC   C2624402   2.481   7.191   3.908  0.0091  0.2188  0.5575
  197DOPC   H6R24403   2.440   7.290   3.938 -1.7509 -0.9625  2.3305
  197DOPC   H6S24404   2.579   7.199   3.856 -0.7261 -1.2530 -1.1654
  197DOPC   C2724405   2.480   7.107   4.040 -0.4334  0.6476 -0.5275
  197DOPC   H7R24406   2.549   7.019   4.036  0.5396  1.1796  2.1601
  197DOPC   H7S24407   2.378   7.068   4.058 -0.8860 -0.0800 -3.9658
  197DOPC   C2824408   2.530   7.181   4.167 -0.0000 -0.3135 -0.1895
  197DOPC   H8R24409   2.476   7.276   4.188  2.5686  1.0813  0.5536
  197DOPC   H8S24410   2.634   7.214   4.141  1.5066 -3.9044  0.7316
  197DOPC   C2924411   2.537   7.091   4.288  0.4310  0.2212 -0.5898
  197DOPC   H9R24412   2.448   7.074   4.349  2.3266 -1.5374  1.8792
  197DOPC  C21024413   2.653   7.029   4.321 -0.1357  0.7474 -0.7199
  197DOPC  H10R24414   2.638   6.952   4.398  1.3144  0.1787 -0.9756
  197DOPC  C21124415   2.786   7.028   4.266  0.0666  0.2428  0.5950
  197DOPC  H11R24416   2.820   7.133   4.279 -2.3328  1.0732  0.5770
  197DOPC  H11S24417   2.770   7.004   4.158 -0.0515  1.9715  0.1978
  197DOPC  C21224418   2.882   6.931   4.335  0.4693 -0.4718  0.3446
  197DOPC  H12R24419   2.982   6.942   4.288  0.6614 -1.9550  0.3668
  197DOPC  H12S24420   2.848   6.825   4.338  0.1002 -0.3511  0.4911
  197DOPC  C21324421   2.907   6.966   4.479  0.0796 -0.2620  0.6196
  197DOPC  H13R24422   2.825   6.909   4.528 -1.0147 -0.4072 -1.2850
  197DOPC  H13S24423   2.898   7.075   4.498  0.6146  0.1806 -1.3783
  197DOPC  C21424424   3.046   6.917   4.534  0.1956  0.1813  0.3840
  197DOPC  H14R24425   3.128   6.992   4.528  2.3423 -2.1469 -1.6635
  197DOPC  H14S24426   3.081   6.840   4.462  0.6628  1.0053 -0.2996
  197DOPC  C21524427   3.025   6.857   4.668 -0.6117 -0.0098 -0.1603
  197DOPC  H15R24428   2.964   6.765   4.659 -0.0636 -0.2320 -1.9660
  197DOPC  H15S24429   2.969   6.929   4.731 -2.8042  0.7896 -2.8515
  197DOPC  C21624430   3.159   6.806   4.731 -0.5633  0.5890 -0.3072
  197DOPC  H16R24431   3.230   6.890   4.747 -0.7149  0.3105  2.2718
  197DOPC  H16S24432   3.209   6.745   4.652 -2.3693  0.5796 -1.5099
  197DOPC  C21724433   3.133   6.725   4.858 -0.0444 -0.3021  0.2540
  197DOPC  H17R24434   3.069   6.637   4.835  2.8423 -2.6725  0.7695
  197DOPC  H17S24435   3.062   6.791   4.913  0.6438  0.2228  0.5380
  197DOPC  C21824436   3.259   6.694   4.941 -0.3931  0.3241  0.7221
  197DOPC  H18R24437   3.249   6.606   5.008 -0.1096 -2.0186 -2.1319
  197DOPC  H18S24438   3.286   6.780   5.007 -0.5451  0.3892  0.7007
  197DOPC  H18T24439   3.345   6.665   4.877 -1.7499  0.8774 -1.4388
  197DOPC   C3324440   2.877   6.869   3.366 -0.4114  0.2242  0.3442
  197DOPC   H3X24441   2.928   6.896   3.271 -2.9811  1.1635 -0.8572
  197DOPC   H3Y24442   2.808   6.789   3.329 -0.6758  1.1245 -1.2124
  197DOPC   C3424443   2.968   6.794   3.466 -0.0069 -0.6821 -0.3626
  197DOPC   H4X24444   2.922   6.751   3.557  1.7126 -0.1477  0.8147
  197DOPC   H4Y24445   3.047   6.864   3.500 -1.2645  0.2145  0.7941
  197DOPC   C3524446   3.029   6.672   3.400  0.2659  0.2098 -0.4792
  197DOPC   H5X24447   3.073   6.687   3.299 -0.3264 -1.5875 -1.0399
  197DOPC   H5Y24448   2.941   6.610   3.374  0.5413 -0.7314  0.7200
  197DOPC   C3624449   3.110   6.601   3.504 -0.2850  0.6059  0.5554
  197DOPC   H6X24450   3.050   6.567   3.591  0.9562 -3.2309  0.1240
  197DOPC   H6Y24451   3.133   6.496   3.472  0.4765  0.0739  2.6540
  197DOPC   C3724452   3.238   6.673   3.552 -0.2438 -0.5197  0.1729
  197DOPC   H7X24453   3.292   6.695   3.458  0.3811  0.7303  0.8050
  197DOPC   H7Y24454   3.220   6.769   3.605  1.4747  0.5672 -1.1187
  197DOPC   C3824455   3.331   6.579   3.629  0.2376 -0.2297 -0.3969
  197DOPC   H8X24456   3.297   6.477   3.600 -1.1188 -0.3429  1.4451
  197DOPC   H8Y24457   3.300   6.577   3.735 -2.0281 -0.2803 -1.0113
  197DOPC   C3924458   3.486   6.571   3.604 -0.1458  0.6653  0.4900
  197DOPC   H9X24459   3.506   6.561   3.496  1.1245  1.4193  0.6335
  197DOPC  C31024460   3.593   6.569   3.694  0.1460 -0.0170  0.0712
  197DOPC  H10X24461   3.699   6.575   3.665 -0.3441  0.7639 -1.6623
  197DOPC  C31124462   3.577   6.573   3.841  0.3481  0.6329 -0.6304
  197DOPC  H11X24463   3.474   6.537   3.864  0.3986  0.0517 -1.2669
  197DOPC  H11Y24464   3.583   6.679   3.874  1.2915  0.0528  1.2475
  197DOPC  C31224465   3.680   6.488   3.913  0.7858 -0.1347  0.7041
  197DOPC  H12X24466   3.780   6.536   3.902  0.3502  0.4232 -1.1519
  197DOPC  H12Y24467   3.702   6.387   3.871 -0.0026  0.1612 -0.4474
  197DOPC  C31324468   3.645   6.471   4.061  0.2250 -0.7733 -0.0809
  197DOPC  H13X24469   3.630   6.571   4.106 -0.6803  0.0468 -2.0799
  197DOPC  H13Y24470   3.545   6.426   4.080  0.0286 -0.8992 -1.3295
  197DOPC  C31424471   3.753   6.388   4.137 -0.5808  0.5195 -0.3479
  197DOPC  H14X24472   3.769   6.287   4.095  0.0656 -0.4214  1.9643
  197DOPC  H14Y24473   3.852   6.438   4.130 -0.0878 -0.2263  0.8504
  197DOPC  C31524474   3.728   6.389   4.289  0.4144 -0.0902  0.2325
  197DOPC  H15X24475   3.715   6.494   4.324  1.1053 -0.2131  0.8710
  197DOPC  H15Y24476   3.812   6.337   4.338  0.4971 -0.5607 -0.3989
  197DOPC  C31624477   3.606   6.302   4.318 -0.1087  0.0923  1.0270
  197DOPC  H16X24478   3.519   6.338   4.260 -0.1519 -0.8231  0.5046
  197DOPC  H16Y24479   3.633   6.200   4.284 -1.0190 -0.0058  0.5643
  197DOPC  C31724480   3.555   6.279   4.467 -0.7606 -0.2287 -0.1948
  197DOPC  H17X24481   3.453   6.235   4.462 -0.0690 -1.8220 -1.1513
  197DOPC  H17Y24482   3.623   6.209   4.520 -1.1066  0.1872  0.8204
  197DOPC  C31824483   3.545   6.403   4.563 -0.7030 -0.3644  0.5861
  197DOPC  H18X24484   3.468   6.371   4.637 -0.1217 -0.9840  0.9419
  197DOPC  H18Y24485   3.647   6.424   4.602 -1.0090  1.8598  0.2796
  197DOPC  H18Z24486   3.508   6.492   4.509 -0.1775 -0.8905 -0.7116
  198DOPC     N24487   7.608   7.081   2.875  0.7864  0.2544  0.1446
  198DOPC   C1224488   7.684   6.983   2.967  0.7691  0.0808  0.3615
  198DOPC  H12A24489   7.778   7.032   2.988  1.0972 -0.2122 -0.3946
  198DOPC  H12B24490   7.707   6.889   2.919 -0.5966  0.4537 -1.1005
  198DOPC   C1324491   7.695   7.122   2.752  0.4565  0.2341  0.2032
  198DOPC  H13A24492   7.792   7.164   2.772  0.6192  0.7730 -1.5943
  198DOPC  H13B24493   7.716   7.032   2.697 -0.0231  0.1797  0.1050
  198DOPC  H13C24494   7.653   7.203   2.694  1.2068  2.5760  2.6822
  198DOPC   C1424495   7.558   7.209   2.937 -0.3578  0.1581  0.3523
  198DOPC  H14A24496   7.524   7.277   2.861  0.0635  1.6003  1.4219
  198DOPC  H14B24497   7.483   7.192   3.012  0.8379  0.7820  1.7435
  198DOPC  H14C24498   7.640   7.257   2.989  0.1606  0.8795 -1.0739
  198DOPC   C1524499   7.488   7.019   2.816 -0.8273  0.3512  0.5469
  198DOPC  H15A24500   7.421   7.002   2.900 -3.8270  0.1052 -1.7265
  198DOPC  H15B24501   7.509   6.927   2.764 -2.5330  0.2122  0.0528
  198DOPC  H15C24502   7.432   7.090   2.757 -3.9496 -2.0237  0.4257
  198DOPC   C1124503   7.609   6.945   3.103 -0.3524  0.3334  0.0427
  198DOPC  H11A24504   7.684   6.930   3.184  0.0491  0.3878 -0.3187
  198DOPC  H11B24505   7.542   7.029   3.134 -1.0090 -1.2879  3.5020
  198DOPC     P24506   7.603   6.688   3.048 -0.0409 -0.1242 -0.1645
  198DOPC   O1324507   7.691   6.700   2.929 -0.2879 -0.3959 -0.4090
  198DOPC   O1424508   7.498   6.588   3.037  0.5261  0.1177  0.3023
  198DOPC   O1224509   7.529   6.834   3.071  0.5888 -0.5878 -0.3218
  198DOPC   O1124510   7.685   6.659   3.176  0.0713 -0.0605  0.4291
  198DOPC    C124511   7.690   6.536   3.251 -0.6331 -0.2171  0.5959
  198DOPC    HA24512   7.791   6.521   3.294  0.3883 -0.5437 -1.7753
  198DOPC    HB24513   7.671   6.442   3.194 -2.3461  0.4541  0.0093
  198DOPC    C224514   7.588   6.537   3.368 -0.3672  0.1110  0.1532
  198DOPC    HS24515   7.497   6.569   3.312 -0.1162  0.0510 -0.2970
  198DOPC   O2124516   7.639   6.641   3.455  0.6570  0.0671  0.3099
  198DOPC   C2124517   7.546   6.727   3.500  0.3187  0.3763 -0.1918
  198DOPC   O2224518   7.423   6.733   3.470 -0.0620 -0.1229 -0.2826
  198DOPC   C2224519   7.604   6.828   3.597 -0.1224  0.1370 -0.1239
  198DOPC   H2R24520   7.603   6.926   3.546 -3.7834  1.4351  2.0464
  198DOPC   H2S24521   7.707   6.793   3.623 -0.2199 -0.5213 -0.6027
  198DOPC    C324522   7.571   6.402   3.440 -0.0997  0.4533 -0.7190
  198DOPC    HX24523   7.672   6.380   3.481  0.1102  1.7420 -0.5130
  198DOPC    HY24524   7.542   6.328   3.362 -0.6351  1.5114 -1.5562
  198DOPC   O3124525   7.478   6.409   3.557 -0.3643 -0.1782 -0.3648
  198DOPC   C3124526   7.349   6.398   3.531 -0.7689  0.0788 -0.2183
  198DOPC   O3224527   7.302   6.390   3.423  0.3525  0.3037 -0.3863
  198DOPC   C3224528   7.284   6.417   3.666  0.0577  0.0609  0.2922
  198DOPC   H2X24529   7.339   6.357   3.742 -0.3350 -1.2771 -0.4490
  198DOPC   H2Y24530   7.310   6.521   3.696 -0.4928  0.3336 -0.1609
  198DOPC   C2324531   7.514   6.856   3.720 -0.8263  0.1841 -0.4995
  198DOPC   H3R24532   7.412   6.880   3.683 -0.8171 -0.2051 -0.7812
  198DOPC   H3S24533   7.557   6.942   3.776  0.1008  0.4838 -1.6379
  198DOPC   C2424534   7.515   6.730   3.814 -0.8656  0.1692 -0.1417
  198DOPC   H4R24535   7.617   6.695   3.839 -1.2398 -1.2354 -0.4916
  198DOPC   H4S24536   7.465   6.656   3.748 -0.7132  1.1500 -1.4088
  198DOPC   C2524537   7.438   6.769   3.943 -0.0898 -0.3216 -0.5868
  198DOPC   H5R24538   7.347   6.832   3.931 -0.2614 -0.4856 -0.1475
  198DOPC   H5S24539   7.501   6.830   4.010 -2.2057  1.8718 -0.4737
  198DOPC   C2624540   7.399   6.648   4.024 -0.2121  0.1574 -0.4615
  198DOPC   H6R24541   7.486   6.580   4.014  1.1247  1.6927  0.3649
  198DOPC   H6S24542   7.313   6.598   3.973 -1.0360  1.4111 -0.3251
  198DOPC   C2724543   7.369   6.685   4.166  0.4901 -0.4576 -0.0396
  198DOPC   H7R24544   7.267   6.729   4.168  0.7784  0.3086 -1.3013
  198DOPC   H7S24545   7.439   6.763   4.204 -0.8949  0.8222 -0.0444
  198DOPC   C2824546   7.356   6.566   4.267 -0.4197 -0.2040  0.1715
  198DOPC   H8R24547   7.456   6.519   4.280 -0.3151  0.7688  4.2211
  198DOPC   H8S24548   7.286   6.493   4.222  0.0588  0.4998 -1.8340
  198DOPC   C2924549   7.317   6.613   4.408  0.4589  0.6841  0.3517
  198DOPC   H9R24550   7.389   6.664   4.473 -0.2303  1.1655  0.7578
  198DOPC  C21024551   7.202   6.590   4.472  0.2470  0.0812  0.3105
  198DOPC  H10R24552   7.177   6.672   4.541  0.2628  0.2647  0.0996
  198DOPC  C21124553   7.075   6.518   4.424  0.1844 -0.4511 -1.0454
  198DOPC  H11R24554   7.100   6.454   4.337 -2.2634 -1.7785 -0.8435
  198DOPC  H11S24555   6.993   6.584   4.389  1.2477  1.0847 -0.7304
  198DOPC  C21224556   7.031   6.410   4.531 -0.3342 -0.0483  0.3913
  198DOPC  H12R24557   7.117   6.343   4.553 -1.0677 -0.3213  2.6944
  198DOPC  H12S24558   6.953   6.343   4.489  1.3938 -0.9480 -1.5810
  198DOPC  C21324559   6.992   6.473   4.669 -0.1554 -0.1505 -0.1777
  198DOPC  H13R24560   6.922   6.555   4.642 -1.2246 -0.9511  0.1157
  198DOPC  H13S24561   7.087   6.512   4.712  0.6983 -0.7189 -1.4739
  198DOPC  C21424562   6.925   6.372   4.763 -0.5412 -0.5502 -0.7439
  198DOPC  H14R24563   6.967   6.269   4.759 -1.8584 -1.1022 -0.8804
  198DOPC  H14S24564   6.814   6.363   4.755 -0.6526 -0.2262  0.3065
  198DOPC  C21524565   6.937   6.417   4.908  0.5976  0.9406  0.0591
  198DOPC  H15R24566   6.882   6.514   4.916 -1.3385 -0.1313  0.3575
  198DOPC  H15S24567   7.041   6.437   4.941  0.4958  1.4939  0.0572
  198DOPC  C21624568   6.868   6.321   5.007 -0.5809 -0.8567 -0.7781
  198DOPC  H16R24569   6.943   6.239   5.002 -0.0585 -0.4392  0.0277
  198DOPC  H16S24570   6.780   6.275   4.957 -2.2039 -0.1259  1.2414
  198DOPC  C21724571   6.842   6.365   5.152 -0.4650  0.2120  0.3572
  198DOPC  H17R24572   6.768   6.446   5.138  1.4774  2.2829  1.4271
  198DOPC  H17S24573   6.937   6.403   5.195 -0.5714  1.1171 -0.1960
  198DOPC  C21824574   6.786   6.259   5.245  0.1292 -0.3028  0.4473
  198DOPC  H18R24575   6.709   6.202   5.190  0.5586  0.2688 -0.7873
  198DOPC  H18S24576   6.742   6.316   5.330  0.1745 -0.8879  0.8717
  198DOPC  H18T24577   6.866   6.192   5.284 -0.6579  0.1386  3.0772
  198DOPC   C3324578   7.134   6.377   3.667  0.4228  0.1147 -0.5408
  198DOPC   H3X24579   7.126   6.272   3.631  0.6028  0.9333 -3.2555
  198DOPC   H3Y24580   7.078   6.448   3.602 -0.5192 -0.2843 -0.1914
  198DOPC   C3424581   7.081   6.384   3.806 -0.0469  0.2212 -0.8474
  198DOPC   H4X24582   7.099   6.487   3.843  0.6588 -0.7336  1.6797
  198DOPC   H4Y24583   7.136   6.320   3.879 -2.7536 -0.6894  0.5449
  198DOPC   C3524584   6.931   6.350   3.821  0.0985  0.2540 -0.0930
  198DOPC   H5X24585   6.920   6.257   3.761  2.5543 -0.8105  0.9682
  198DOPC   H5Y24586   6.858   6.428   3.792  0.1806  0.4873  0.3225
  198DOPC   C3624587   6.898   6.301   3.965  0.6771 -0.4142 -0.3318
  198DOPC   H6X24588   6.965   6.222   4.004  1.3945 -0.3944 -1.4758
  198DOPC   H6Y24589   6.916   6.379   4.042 -0.1388 -0.8012  0.2739
  198DOPC   C3724590   6.754   6.249   3.974 -0.3581  0.2872  0.5211
  198DOPC   H7X24591   6.687   6.332   3.944  1.7674  2.0690  0.4229
  198DOPC   H7Y24592   6.743   6.166   3.900 -0.4534 -0.5448  1.4443
  198DOPC   C3824593   6.718   6.205   4.117  0.7731  0.0960  0.2383
  198DOPC   H8X24594   6.783   6.273   4.177  3.4091 -1.3794 -0.7829
  198DOPC   H8Y24595   6.762   6.108   4.146 -0.2694 -0.1652  1.0135
  198DOPC   C3924596   6.573   6.206   4.149  0.1000  0.3624 -0.0939
  198DOPC   H9X24597   6.515   6.168   4.063  0.8555 -2.4015  0.4965
  198DOPC  C31024598   6.510   6.241   4.263 -1.1310 -0.7452  0.2406
  198DOPC  H10X24599   6.400   6.246   4.268 -1.0390  1.5688  3.7603
  198DOPC  C31124600   6.584   6.286   4.393  0.2834  0.2624  0.0603
  198DOPC  H11X24601   6.564   6.395   4.397  0.5871  0.3163  0.1456
  198DOPC  H11Y24602   6.694   6.276   4.381  0.2703  0.2854 -0.0688
  198DOPC  C31224603   6.545   6.209   4.515 -0.0466 -0.2468 -0.3673
  198DOPC  H12X24604   6.440   6.174   4.506 -0.6469  1.5375 -0.6269
  198DOPC  H12Y24605   6.554   6.277   4.602  0.7592 -0.5021 -0.2483
  198DOPC  C31324606   6.643   6.096   4.543 -0.5335  0.2851 -0.2733
  198DOPC  H13X24607   6.648   6.040   4.447 -0.5100  0.4923 -0.3928
  198DOPC  H13Y24608   6.749   6.119   4.565 -0.9124 -0.4445  2.7799
  198DOPC  C31424609   6.598   6.003   4.657  0.3041 -0.8903 -0.0891
  198DOPC  H14X24610   6.589   6.064   4.749  1.2407 -1.9170  0.7065
  198DOPC  H14Y24611   6.500   5.957   4.632  0.2615 -1.1184  0.4951
  198DOPC  C31524612   6.700   5.893   4.683 -0.1687 -0.3214 -0.6107
  198DOPC  H15X24613   6.790   5.947   4.719  0.4598 -0.6137 -1.6876
  198DOPC  H15Y24614   6.733   5.840   4.591  0.3391 -0.7322 -0.2000
  198DOPC  C31624615   6.675   5.787   4.787  0.5761 -0.6365  0.6492
  198DOPC  H16X24616   6.595   5.723   4.743  0.1676  0.8089 -0.8019
  198DOPC  H16Y24617   6.769   5.727   4.786  0.4329 -0.8613 -0.5271
  198DOPC  C31724618   6.645   5.836   4.927  0.1985  0.1725  0.2609
  198DOPC  H17X24619   6.545   5.885   4.928  0.2422  0.5554 -2.9979
  198DOPC  H17Y24620   6.638   5.748   4.994 -3.6206 -0.6996 -1.0646
  198DOPC  C31824621   6.745   5.943   4.978 -0.4105  0.0550  0.8486
  198DOPC  H18X24622   6.721   5.974   5.082  0.8741  0.8792  0.9166
  198DOPC  H18Y24623   6.840   5.889   4.998 -0.5066 -0.9342 -1.1120
  198DOPC  H18Z24624   6.764   6.027   4.909 -1.2329  0.4492  1.0854
  199DOPC     N24625   6.981   1.257   3.031 -0.7480 -0.3981  0.3865
  199DOPC   C1224626   6.897   1.344   3.132  0.9938 -0.4613  0.0212
  199DOPC  H12A24627   6.974   1.416   3.155  2.6026 -1.5228 -1.7810
  199DOPC  H12B24628   6.886   1.278   3.217  1.5978 -1.4282 -0.6273
  199DOPC   C1324629   7.021   1.351   2.918  0.5578  0.6705  0.0730
  199DOPC  H13A24630   7.098   1.296   2.866 -0.0719  0.7404 -0.9622
  199DOPC  H13B24631   6.943   1.373   2.847  0.5699 -0.2318 -0.2210
  199DOPC  H13C24632   7.045   1.448   2.959  1.1249  0.3365  0.5552
  199DOPC   C1424633   6.912   1.141   2.974 -0.1712  0.4869 -0.5425
  199DOPC  H14A24634   6.877   1.068   3.046  0.9352 -0.4752 -0.9404
  199DOPC  H14B24635   6.829   1.183   2.920 -0.4123  2.3144  1.1379
  199DOPC  H14C24636   6.963   1.089   2.895  0.2476 -0.0023  0.0361
  199DOPC   C1524637   7.109   1.214   3.096  0.3921  0.0091 -0.3778
  199DOPC  H15A24638   7.090   1.154   3.184 -1.0513 -0.8282 -1.2375
  199DOPC  H15B24639   7.159   1.303   3.134 -0.2700  0.8287 -1.3758
  199DOPC  H15C24640   7.166   1.174   3.014  0.0531 -0.3032 -0.4644
  199DOPC   C1124641   6.763   1.418   3.091 -0.6358 -0.9654  0.0383
  199DOPC  H11A24642   6.714   1.489   3.162 -0.2532 -1.1624  0.4964
  199DOPC  H11B24643   6.785   1.477   2.999  0.3050 -0.9166  0.2880
  199DOPC     P24644   6.608   1.217   3.140  0.4828 -0.1776 -0.2964
  199DOPC   O1324645   6.630   1.086   3.076  0.4346 -0.2163  0.2542
  199DOPC   O1424646   6.471   1.264   3.175  0.4819 -0.2167 -0.0151
  199DOPC   O1224647   6.667   1.329   3.050  0.3960 -0.8538 -0.1911
  199DOPC   O1124648   6.689   1.231   3.276 -0.3870 -0.2487  0.8125
  199DOPC    C124649   6.630   1.246   3.402  0.2985 -0.2766 -0.2148
  199DOPC    HA24650   6.535   1.189   3.399  0.5967 -0.7485 -2.3087
  199DOPC    HB24651   6.602   1.349   3.433 -0.9976 -0.4782 -0.6540
  199DOPC    C224652   6.722   1.194   3.524  0.3510  0.2863  0.7803
  199DOPC    HS24653   6.813   1.259   3.526  1.9133 -1.5805 -2.4157
  199DOPC   O2124654   6.760   1.057   3.495 -0.2752  0.0351 -0.2626
  199DOPC   C2124655   6.880   1.055   3.434  0.1438  0.1098 -0.1426
  199DOPC   O2224656   6.957   1.147   3.426 -0.3351 -0.0061 -0.1261
  199DOPC   C2224657   6.904   0.910   3.384 -0.2048 -0.2143 -0.2364
  199DOPC   H2R24658   6.955   0.927   3.287 -1.5793 -1.6878 -1.2592
  199DOPC   H2S24659   6.810   0.854   3.364 -1.4404  1.8464 -0.5179
  199DOPC    C324660   6.647   1.211   3.664 -0.1656 -0.2905  0.5962
  199DOPC    HX24661   6.568   1.132   3.669  0.7371 -1.2797 -0.2812
  199DOPC    HY24662   6.601   1.312   3.663  2.8483  1.1640  0.1511
  199DOPC   O3124663   6.743   1.215   3.775  0.2251  0.3926  0.3853
  199DOPC   C3124664   6.690   1.190   3.892  0.2979  0.7664 -0.8665
  199DOPC   O3224665   6.573   1.167   3.917  0.0516  0.3643  0.3547
  199DOPC   C3224666   6.793   1.212   4.010 -0.3877 -0.7506  0.0751
  199DOPC   H2X24667   6.887   1.174   3.963  1.5025 -1.7990  4.2145
  199DOPC   H2Y24668   6.791   1.322   4.018 -0.1788 -0.6676 -0.8125
  199DOPC   C2324669   7.003   0.829   3.470 -0.3907 -0.3246 -0.1651
  199DOPC   H3R24670   7.098   0.886   3.483 -1.3212  1.1308  0.5363
  199DOPC   H3S24671   7.016   0.729   3.423 -0.5811 -0.7422  0.6392
  199DOPC   C2424672   6.951   0.809   3.611  0.0224  0.0897 -0.2345
  199DOPC   H4R24673   6.951   0.910   3.658 -0.6160 -0.3478  0.7351
  199DOPC   H4S24674   7.023   0.750   3.672  0.2280 -0.3220 -0.8626
  199DOPC   C2524675   6.820   0.743   3.620  0.5154 -0.1641  0.5160
  199DOPC   H5R24676   6.827   0.653   3.554 -2.2120 -0.1709  0.0969
  199DOPC   H5S24677   6.739   0.801   3.570  1.4391 -1.6697 -3.1251
  199DOPC   C2624678   6.786   0.697   3.764 -0.2293  0.4320 -0.1264
  199DOPC   H6R24679   6.886   0.679   3.809 -0.8005 -0.0205  1.0182
  199DOPC   H6S24680   6.727   0.603   3.761 -1.8679  1.4188  0.0075
  199DOPC   C2724681   6.714   0.788   3.858  0.2872 -0.9255  0.7596
  199DOPC   H7R24682   6.605   0.791   3.836  0.5142  1.8714 -0.3627
  199DOPC   H7S24683   6.748   0.893   3.842 -1.8028 -0.6691 -3.1962
  199DOPC   C2824684   6.726   0.752   4.006 -0.1432  0.0449  0.0604
  199DOPC   H8R24685   6.671   0.832   4.060 -1.8111  0.0620 -1.5614
  199DOPC   H8S24686   6.833   0.751   4.036  0.2485  0.8586 -1.2220
  199DOPC   C2924687   6.669   0.618   4.032 -0.2352 -0.1122  0.3554
  199DOPC   H9R24688   6.570   0.587   3.993 -0.5413 -1.9844  2.3965
  199DOPC  C21024689   6.735   0.518   4.095  0.1582  0.2393  0.5425
  199DOPC  H10R24690   6.664   0.440   4.125 -0.5564  0.4048 -0.6504
  199DOPC  C21124691   6.870   0.510   4.160  0.2107 -0.7075  0.5126
  199DOPC  H11R24692   6.935   0.578   4.101  0.1051 -0.4037  0.7390
  199DOPC  H11S24693   6.909   0.406   4.152  2.3005  0.0921 -0.4486
  199DOPC  C21224694   6.878   0.557   4.303 -0.1627  0.4005 -0.6182
  199DOPC  H12R24695   6.817   0.493   4.370  1.2392 -0.2689  0.0397
  199DOPC  H12S24696   6.845   0.662   4.322  1.1273  0.9001 -1.0195
  199DOPC  C21324697   7.025   0.552   4.361  0.5194 -0.2794 -0.4482
  199DOPC  H13R24698   7.081   0.633   4.308  0.6398  0.3742  0.6433
  199DOPC  H13S24699   7.064   0.453   4.329 -2.1685 -1.7458  0.5270
  199DOPC  C21424700   7.034   0.590   4.507  0.0177  0.0663  0.0724
  199DOPC  H14R24701   6.962   0.536   4.571  0.0604 -0.5797 -0.4173
  199DOPC  H14S24702   7.011   0.698   4.521 -0.4406 -0.0296  0.0592
  199DOPC  C21524703   7.175   0.550   4.569 -0.0485  0.3087 -0.8736
  199DOPC  H15R24704   7.250   0.631   4.556  0.7088  0.0154  1.1907
  199DOPC  H15S24705   7.218   0.463   4.515 -0.7154 -0.5546 -0.0575
  199DOPC  C21624706   7.178   0.521   4.719  0.6121 -0.0841 -0.0646
  199DOPC  H16R24707   7.099   0.446   4.739  0.1760  0.1678 -0.8012
  199DOPC  H16S24708   7.151   0.605   4.786 -0.9935 -0.1005 -0.6591
  199DOPC  C21724709   7.319   0.466   4.765 -0.3648 -0.7781 -0.2889
  199DOPC  H17R24710   7.396   0.543   4.742 -1.4125  1.4255  2.9112
  199DOPC  H17S24711   7.329   0.375   4.701 -0.7971 -0.2780 -1.0955
  199DOPC  C21824712   7.323   0.432   4.915 -0.4188  0.5396  0.2695
  199DOPC  H18R24713   7.240   0.362   4.939 -0.1026 -0.2127 -0.7615
  199DOPC  H18S24714   7.315   0.522   4.980 -1.4201 -0.6621  1.8761
  199DOPC  H18T24715   7.416   0.382   4.948 -2.6029 -1.7641  3.6277
  199DOPC   C3324716   6.772   1.130   4.135 -0.1773 -0.7562 -0.3742
  199DOPC   H3X24717   6.860   1.131   4.203 -0.9844  0.9613  0.7105
  199DOPC   H3Y24718   6.749   1.023   4.113  1.7103 -1.7043  1.8467
  199DOPC   C3424719   6.661   1.185   4.218 -0.1977  0.1391 -0.5593
  199DOPC   H4X24720   6.572   1.162   4.154 -1.0261  2.4268 -0.3253
  199DOPC   H4Y24721   6.681   1.293   4.234 -0.3572 -0.0526  1.0413
  199DOPC   C3524722   6.667   1.133   4.360  0.2409  0.4761  0.4781
  199DOPC   H5X24723   6.764   1.152   4.412 -0.7006 -0.6777  2.8247
  199DOPC   H5Y24724   6.649   1.024   4.367 -2.3290  0.8811  1.7474
  199DOPC   C3624725   6.562   1.206   4.449  0.1260  0.0180  0.1059
  199DOPC   H6X24726   6.595   1.310   4.432  1.1732 -0.5192 -1.3370
  199DOPC   H6Y24727   6.464   1.186   4.400  0.4915 -2.6245  0.2958
  199DOPC   C3724728   6.562   1.166   4.603  0.1496  0.3653 -1.2820
  199DOPC   H7X24729   6.545   1.057   4.615 -3.9022  1.0236  0.7111
  199DOPC   H7Y24730   6.659   1.200   4.645  1.4678 -2.3532 -1.8819
  199DOPC   C3824731   6.442   1.243   4.680 -0.1215  0.1891 -0.5466
  199DOPC   H8X24732   6.350   1.252   4.618 -1.0680 -1.5247  0.5427
  199DOPC   H8Y24733   6.469   1.351   4.692 -0.5077  0.7647 -3.9166
  199DOPC   C3924734   6.413   1.194   4.817  0.4860  0.2644 -0.0263
  199DOPC   H9X24735   6.488   1.223   4.892 -0.5767 -1.3123  1.7484
  199DOPC  C31024736   6.319   1.110   4.862  1.0853  0.3222  0.0125
  199DOPC  H10X24737   6.296   1.093   4.968  1.8741  1.9588  0.4754
  199DOPC  C31124738   6.210   1.043   4.770  0.6084 -0.5922 -0.3920
  199DOPC  H11X24739   6.199   0.936   4.795 -0.2112 -0.2415  0.8277
  199DOPC  H11Y24740   6.227   1.049   4.661  1.3656  0.5990 -0.2388
  199DOPC  C31224741   6.067   1.104   4.787  0.3755 -0.3276  0.2582
  199DOPC  H12X24742   6.045   1.189   4.719 -0.9623  0.2258  1.3290
  199DOPC  H12Y24743   6.048   1.132   4.893 -2.7044 -1.0524 -0.0185
  199DOPC  C31324744   5.957   0.989   4.763 -0.1164  0.0366  0.7694
  199DOPC  H13X24745   5.979   0.899   4.824 -1.5469 -0.6737  0.2733
  199DOPC  H13Y24746   5.864   1.030   4.807  0.4755  1.3158  0.8688
  199DOPC  C31424747   5.946   0.944   4.615  0.0124 -0.0006  0.2268
  199DOPC  H14X24748   5.946   1.033   4.549  1.3469 -0.3691 -0.3030
  199DOPC  H14Y24749   6.047   0.905   4.589 -0.3686 -0.1475 -1.1155
  199DOPC  C31524750   5.832   0.850   4.578 -0.1871 -0.4216 -0.2305
  199DOPC  H15X24751   5.739   0.907   4.600 -0.3807  0.3766 -2.7079
  199DOPC  H15Y24752   5.832   0.765   4.648 -0.1912  0.7525  1.2475
  199DOPC  C31624753   5.829   0.806   4.438 -0.1778 -0.2383  0.1286
  199DOPC  H16X24754   5.819   0.899   4.379  1.4815 -0.7780 -1.0944
  199DOPC  H16Y24755   5.924   0.755   4.410  0.1320 -0.5610  1.6626
  199DOPC  C31724756   5.722   0.701   4.399  0.7557 -0.9787  0.8066
  199DOPC  H17X24757   5.739   0.684   4.290  0.1147  0.8466  0.3743
  199DOPC  H17Y24758   5.754   0.605   4.444  0.7799 -1.1363  0.4532
  199DOPC  C31824759   5.574   0.744   4.437 -0.4698 -0.4740 -0.7296
  199DOPC  H18X24760   5.540   0.842   4.397  0.8376  0.6303  0.7255
  199DOPC  H18Y24761   5.503   0.673   4.390 -0.1239  0.1621 -2.2828
  199DOPC  H18Z24762   5.567   0.740   4.547  1.4915  0.9030 -0.5113
  200DOPC     N24763   1.028   7.503   2.758 -0.7663  0.1436  0.5840
  200DOPC   C1224764   0.943   7.621   2.707  0.0268 -0.3232 -0.1060
  200DOPC  H12A24765   0.875   7.572   2.639  0.0133 -0.7336  0.2034
  200DOPC  H12B24766   1.005   7.692   2.654 -1.0209  1.9313  1.5191
  200DOPC   C1324767   1.161   7.551   2.815 -0.1143  0.4911  0.0678
  200DOPC  H13A24768   1.217   7.464   2.848  3.2264  2.2801 -0.4974
  200DOPC  H13B24769   1.222   7.595   2.739  0.7227 -0.1010  0.3831
  200DOPC  H13C24770   1.146   7.623   2.895  0.2654 -0.1143  0.6982
  200DOPC   C1424771   1.058   7.413   2.643 -0.4551  0.0466  0.2140
  200DOPC  H14A24772   1.113   7.325   2.671 -3.8933 -2.6324 -0.6480
  200DOPC  H14B24773   0.967   7.372   2.600  1.1352 -1.5899 -1.7824
  200DOPC  H14C24774   1.111   7.454   2.558  0.2157 -1.2928 -0.0436
  200DOPC   C1524775   0.956   7.427   2.866 -0.1217 -0.5351  1.2341
  200DOPC  H15A24776   0.948   7.498   2.947 -0.3456  1.5234 -0.5111
  200DOPC  H15B24777   0.999   7.329   2.880  2.0685  0.6114  3.1252
  200DOPC  H15C24778   0.853   7.421   2.834 -0.7210 -0.1903  2.9966
  200DOPC   C1124779   0.871   7.703   2.811 -0.6979 -0.4851 -0.2348
  200DOPC  H11A24780   0.797   7.771   2.765 -1.1275  0.0276  1.1751
  200DOPC  H11B24781   0.814   7.633   2.876 -0.1589  0.1669  0.9806
  200DOPC     P24782   0.968   7.754   3.057 -0.2245 -0.0689  0.0483
  200DOPC   O1324783   1.064   7.861   3.106 -0.2786  0.6096 -0.4198
  200DOPC   O1424784   1.003   7.620   3.096 -0.4997 -0.1594  0.0539
  200DOPC   O1224785   0.964   7.771   2.897 -0.5850  0.4434  0.2842
  200DOPC   O1124786   0.820   7.790   3.095  0.1540 -1.1368  0.0574
  200DOPC    C124787   0.763   7.716   3.209  0.1213 -0.2295 -0.2080
  200DOPC    HA24788   0.768   7.607   3.191  1.1523 -0.1105 -0.7012
  200DOPC    HB24789   0.652   7.728   3.208 -0.2634 -2.8519  1.9462
  200DOPC    C224790   0.818   7.770   3.346  0.4680  0.6241  0.6959
  200DOPC    HS24791   0.925   7.800   3.331  0.3914 -0.6947 -4.0613
  200DOPC   O2124792   0.789   7.666   3.438  0.0488  0.1729  0.8498
  200DOPC   C2124793   0.879   7.644   3.531 -0.0503 -0.4229 -0.1394
  200DOPC   O2224794   0.992   7.693   3.537 -0.4739  0.0207  0.7966
  200DOPC   C2224795   0.830   7.544   3.637 -0.6671 -0.8240 -0.1228
  200DOPC   H2R24796   0.886   7.454   3.604 -0.2526 -0.8443  0.6199
  200DOPC   H2S24797   0.719   7.533   3.641 -0.7926  0.5209  2.1609
  200DOPC    C324798   0.740   7.897   3.390  0.5501  0.0038  0.5155
  200DOPC    HX24799   0.630   7.882   3.383  0.5966  0.1219 -0.6136
  200DOPC    HY24800   0.764   7.983   3.324  0.8769 -0.7325 -0.3437
  200DOPC   O3124801   0.777   7.941   3.518  0.2601 -0.6083 -0.1499
  200DOPC   C3124802   0.888   8.011   3.540  0.8566  0.0266 -0.5191
  200DOPC   O3224803   0.976   8.028   3.456 -0.2761 -0.0258  0.1708
  200DOPC   C3224804   0.891   8.067   3.686 -0.7445 -0.5110  0.1438
  200DOPC   H2X24805   0.894   8.177   3.672  0.1118 -0.4863  0.5332
  200DOPC   H2Y24806   0.793   8.045   3.735 -2.6762  0.9996 -2.7365
  200DOPC   C2324807   0.890   7.579   3.778 -0.2908  0.0252  0.7108
  200DOPC   H3R24808   0.997   7.606   3.763 -0.2387 -1.3022 -1.8379
  200DOPC   H3S24809   0.890   7.486   3.840 -0.8834  0.2252  1.0143
  200DOPC   C2424810   0.821   7.699   3.855  0.3337 -0.5605 -0.1440
  200DOPC   H4R24811   0.719   7.655   3.862  0.1669 -0.1409  0.1182
  200DOPC   H4S24812   0.817   7.798   3.806 -2.5885 -0.6841 -0.3732
  200DOPC   C2524813   0.883   7.701   3.997 -0.8452  0.4231 -0.8631
  200DOPC   H5R24814   0.987   7.735   3.982 -0.3345 -1.1128 -0.9773
  200DOPC   H5S24815   0.896   7.593   4.022  1.3804  0.8247 -0.0761
  200DOPC   C2624816   0.807   7.767   4.115  0.0408 -0.1730 -0.0013
  200DOPC   H6R24817   0.727   7.694   4.141 -0.2952  0.0123 -0.4911
  200DOPC   H6S24818   0.759   7.859   4.076  0.2926 -0.9634 -2.3360
  200DOPC   C2724819   0.893   7.791   4.248  0.2799 -0.3522  0.2156
  200DOPC   H7R24820   0.976   7.863   4.230 -0.2959  0.3078  0.1785
  200DOPC   H7S24821   0.938   7.695   4.281 -0.7740 -0.7510  0.5411
  200DOPC   C2824822   0.807   7.836   4.364 -0.0415 -0.4856  0.3304
  200DOPC   H8R24823   0.729   7.759   4.382 -1.3246  1.1261  2.0989
  200DOPC   H8S24824   0.745   7.924   4.337 -0.0348 -0.2236  1.1497
  200DOPC   C2924825   0.877   7.885   4.485  0.4759 -0.3070 -0.0218
  200DOPC   H9R24826   0.921   7.985   4.470  0.8459 -0.5146 -0.3546
  200DOPC  C21024827   0.904   7.816   4.598 -0.2639 -0.5384  0.3884
  200DOPC  H10R24828   0.956   7.872   4.677 -0.5843 -1.2144  1.0791
  200DOPC  C21124829   0.867   7.667   4.625 -0.4086 -0.0551 -0.0110
  200DOPC  H11R24830   0.795   7.635   4.546  0.7140 -0.2474 -0.9846
  200DOPC  H11S24831   0.817   7.647   4.723 -0.0109 -0.3510  0.1340
  200DOPC  C21224832   0.992   7.576   4.607  0.3294 -0.1602 -0.0314
  200DOPC  H12R24833   1.076   7.617   4.668 -1.9848  3.1804  1.2258
  200DOPC  H12S24834   1.027   7.582   4.501  2.1638  1.1211  0.6034
  200DOPC  C21324835   0.987   7.434   4.667  0.0021 -0.3727  0.7802
  200DOPC  H13R24836   1.067   7.378   4.613 -0.2710  0.3687 -0.4092
  200DOPC  H13S24837   0.884   7.397   4.648 -0.8139  2.3237 -0.5063
  200DOPC  C21424838   1.012   7.409   4.809 -0.2730 -0.0224 -0.4757
  200DOPC  H14R24839   0.950   7.475   4.873 -1.2711 -0.1810 -1.2585
  200DOPC  H14S24840   1.119   7.433   4.827 -0.4952  0.9667 -0.4355
  200DOPC  C21524841   0.984   7.257   4.831 -0.0112  0.0413 -0.2425
  200DOPC  H15R24842   1.047   7.226   4.917 -0.9642  1.0883  0.8644
  200DOPC  H15S24843   1.024   7.190   4.751 -0.1880 -0.8720  0.4203
  200DOPC  C21624844   0.839   7.225   4.850  0.3871  0.1428  0.1233
  200DOPC  H16R24845   0.772   7.264   4.771  0.2040 -0.1309  0.1377
  200DOPC  H16S24846   0.801   7.271   4.944 -2.0293  0.1193 -0.7541
  200DOPC  C21724847   0.805   7.074   4.852  0.1439  0.2206 -0.1531
  200DOPC  H17R24848   0.868   7.011   4.918  0.0226 -0.4693 -0.6875
  200DOPC  H17S24849   0.825   7.053   4.745 -0.7657  0.8150 -0.4518
  200DOPC  C21824850   0.661   7.039   4.880  0.1563 -0.3015  0.2576
  200DOPC  H18R24851   0.650   6.933   4.848 -2.1555 -0.1819  0.4825
  200DOPC  H18S24852   0.594   7.112   4.829  1.8552  4.5710  4.1480
  200DOPC  H18T24853   0.642   7.047   4.989 -0.2467  1.5056  0.0927
  200DOPC   C3324854   1.009   8.022   3.775 -0.1124 -0.1718 -0.2307
  200DOPC   H3X24855   1.096   8.078   3.733  0.5672 -2.1267 -1.5743
  200DOPC   H3Y24856   1.030   7.913   3.764  2.5604  0.1446  0.9696
  200DOPC   C3424857   0.988   8.051   3.917  0.0166  0.1064 -1.2304
  200DOPC   H4X24858   0.900   7.996   3.954  0.3118  0.0535 -0.5914
  200DOPC   H4Y24859   0.967   8.160   3.926  2.4358  0.5971 -0.6034
  200DOPC   C3524860   1.110   8.038   4.015  0.0975  1.0510  0.0097
  200DOPC   H5X24861   1.119   7.932   4.048 -1.4244  0.2863 -1.8425
  200DOPC   H5Y24862   1.098   8.089   4.113 -0.4751 -0.2312  0.6401
  200DOPC   C3624863   1.244   8.078   3.954  0.6295 -0.0507  0.3171
  200DOPC   H6X24864   1.272   8.016   3.866 -0.2135  0.2012 -0.1350
  200DOPC   H6Y24865   1.236   8.182   3.915 -0.4042 -0.2344  0.0163
  200DOPC   C3724866   1.363   8.068   4.056 -0.5849 -0.1134 -0.2072
  200DOPC   H7X24867   1.361   8.150   4.131  2.0244 -1.0485  0.9804
  200DOPC   H7Y24868   1.345   7.988   4.130  0.5783  0.0844  0.3074
  200DOPC   C3824869   1.506   8.036   4.005  1.5977  0.3377 -0.3704
  200DOPC   H8X24870   1.496   7.932   3.967  0.2021  0.9018 -1.6806
  200DOPC   H8Y24871   1.561   8.033   4.101 -0.4250  1.6665  0.9209
  200DOPC   C3924872   1.560   8.120   3.901 -0.0016  0.1839  0.7815
  200DOPC   H9X24873   1.508   8.119   3.805  0.8721  1.6629  0.2668
  200DOPC  C31024874   1.658   8.215   3.912 -0.5304  0.5319  0.1559
  200DOPC  H10X24875   1.685   8.285   3.832  0.7381 -0.2570 -0.1189
  200DOPC  C31124876   1.722   8.242   4.051  0.0456  0.3582 -0.6304
  200DOPC  H11X24877   1.804   8.169   4.065 -0.1980 -0.1734 -1.8585
  200DOPC  H11Y24878   1.650   8.214   4.130  1.1852 -1.2415 -0.1268
  200DOPC  C31224879   1.756   8.388   4.065 -0.4102  0.3368  0.3486
  200DOPC  H12X24880   1.788   8.415   4.167  2.5911 -0.4406 -0.2861
  200DOPC  H12Y24881   1.674   8.458   4.040 -0.1151  0.9434  1.0589
  200DOPC  C31324882   1.876   8.426   3.981 -0.2006  0.0763 -0.4599
  200DOPC  H13X24883   1.873   8.369   3.885 -3.0050 -1.3202  0.3660
  200DOPC  H13Y24884   1.867   8.530   3.943 -1.6440 -0.0816 -0.6120
  200DOPC  C31424885   2.000   8.411   4.062  1.1135  0.4359 -0.8847
  200DOPC  H14X24886   1.992   8.457   4.162 -0.3894 -1.4632 -0.0698
  200DOPC  H14Y24887   2.021   8.303   4.079  0.2827  0.4496  0.2983
  200DOPC  C31524888   2.123   8.475   3.993  0.0845  0.4540 -0.6346
  200DOPC  H15X24889   2.092   8.577   3.961 -1.2848  0.4893  0.6717
  200DOPC  H15Y24890   2.152   8.412   3.906  2.2796  0.1769  0.2224
  200DOPC  C31624891   2.252   8.493   4.076 -0.3150  0.0619 -0.0351
  200DOPC  H16X24892   2.241   8.577   4.147  1.1096  0.9693 -0.8264
  200DOPC  H16Y24893   2.289   8.404   4.132  2.2615  2.0625  1.6985
  200DOPC  C31724894   2.378   8.522   3.988 -0.0606  0.1618  0.3145
  200DOPC  H17X24895   2.389   8.446   3.907  0.5839 -0.0967  0.6372
  200DOPC  H17Y24896   2.349   8.623   3.952 -0.7035 -0.1796 -0.1565
  200DOPC  C31824897   2.505   8.528   4.060 -0.3453  0.0990  0.1207
  200DOPC  H18X24898   2.494   8.591   4.151  0.5425  1.3590 -0.6158
  200DOPC  H18Y24899   2.542   8.424   4.074 -0.7110  0.0319  0.6256
  200DOPC  H18Z24900   2.581   8.580   3.998 -0.0512 -0.9311 -0.3976
  201SOD    SOD24901   0.910   0.855   0.144  0.0031 -0.2675  0.7007
  202SOD    SOD24902   4.492   2.759   8.028 -0.0185 -0.3522 -0.5995
  203SOD    SOD24903   0.987   1.139   8.996  0.1896  0.0851  0.2262
  204SOD    SOD24904   6.976   4.223   8.078 -0.0956 -0.2128  0.0427
  205SOD    SOD24905   0.094   3.303   9.374 -0.6573  0.0474  0.0759
  206SOD    SOD24906   0.950   5.447   7.788  0.2871 -0.2533  0.0561
  207SOD    SOD24907   7.496   5.697   8.234 -0.1004 -0.3259  0.0632
  208SOD    SOD24908   7.331   0.871   2.372  0.1288  0.0375  0.1466
  209SOD    SOD24909   6.042   0.453   0.229 -0.2409 -0.1342 -0.0834
  210SOD    SOD24910   6.856   0.428   7.053 -0.2208  0.2634  0.4502
  211SOD    SOD24911   6.827   3.347   9.428  0.0507 -0.0654  0.1171
  212SOD    SOD24912   2.363   2.910   6.821 -0.0178  0.3670 -0.1274
  213SOD    SOD24913   7.202   3.174   2.382  0.4692  0.4227  0.0156
  214SOD    SOD24914   2.435   2.827   0.850 -0.5756 -0.1540 -0.0924
  215SOD    SOD24915   0.892   6.990   2.946 -0.2083  0.2484 -0.2178
  216SOD    SOD24916   7.534   4.374   0.186  0.1587  0.4308 -0.4438
  217SOD    SOD24917   6.025   6.973   2.536 -0.3971 -0.2384  0.2576
  218SOD    SOD24918   1.894   6.365   7.270  0.4220  0.0647  0.0293
  219SOD    SOD24919   5.296   4.932   8.110 -0.5738  0.0579  0.0628
  220SOD    SOD24920   7.586   5.041   2.052 -0.0591  0.3926 -0.1203
  221SOD    SOD24921   7.680   6.329   8.859  0.8335  0.6818 -0.3610
  222SOD    SOD24922   0.416   5.675   7.994 -0.1713 -0.1095  0.0195
  223SOD    SOD24923   3.608   1.916   0.987 -0.0759 -0.1401 -0.2536
  224SOD    SOD24924   6.765   6.294   0.868 -0.4986  0.0572  0.4724
  225SOD    SOD24925   0.956   5.177  -0.000  0.8213  0.2710  0.2726
  226SOD    SOD24926   2.426   1.559   7.842  0.8374  0.4176 -0.4958
  227CLA    CLA24927   7.562   6.189   2.151  0.2148 -0.1624  0.1078
  228CLA    CLA24928   5.802   1.598   9.404  0.2303  0.1764  0.0580
  229CLA    CLA24929   0.621   3.432   1.466  0.3730 -0.0099 -0.2614
  230CLA    CLA24930   1.559   2.258   8.470 -0.1497 -0.3046 -0.1231
  231CLA    CLA24931   3.361   2.235   1.314  0.0294  0.3348  0.1035
  232CLA    CLA24932   2.673   3.156   9.603  0.1109  0.4823  0.3984
  233CLA    CLA24933   1.342   4.058   7.717 -0.3999  0.3154  0.0130
  234CLA    CLA24934   7.406   3.545   9.690 -0.0469 -0.3345  0.2486
  235CLA    CLA24935   1.803   5.223   7.664 -0.1936  0.0862 -0.0694
  236CLA    CLA24936   7.423   7.293   2.235  0.1835  0.2294  0.0348
  237CLA    CLA24937   1.702   0.830   7.543  0.4483  0.3605 -0.1778
  238CLA    CLA24938   0.996   4.726   8.255 -0.0341 -0.0504  0.0472
  239CLA    CLA24939   7.498   0.032   7.356 -0.1725 -0.4836 -0.2061
  240CLA    CLA24940   7.568   1.253   2.305 -0.1683  0.5304 -0.1165
  241CLA    CLA24941   6.554   7.334   1.115 -0.2259  0.4491 -0.5833
  242CLA    CLA24942   6.646   5.011   8.463  0.2381  0.1796 -0.0198
  243CLA    CLA24943   1.153   2.180   8.179 -0.2853 -0.0170 -0.2711
  244CLA    CLA24944   6.770   4.957   8.983  0.5165 -0.2276 -0.0359
  245CLA    CLA24945   1.312   6.883   8.972  0.3292 -0.2557 -0.1767
  246CLA    CLA24946   1.388   0.131   9.612 -0.0444  0.1912 -0.0594
  247CLA    CLA24947   4.571   7.217   9.831  0.2156 -0.1244 -0.0727
  248CLA    CLA24948   7.428   5.217   0.139 -0.1245  0.0471 -0.0054
  249CLA    CLA24949   7.635   6.790   9.653  0.0485  0.0616  0.0382
  250CLA    CLA24950   1.010   2.718   9.940 -0.0778  0.2023  0.1344
  251CLA    CLA24951   1.818   3.481   9.543  0.2971  0.2602  0.6333
  252CLA    CLA24952   5.085   4.167   8.801 -0.1059  0.2096  0.0669
  253TIP3   OH224953   2.453   5.520   8.564  0.1056  0.2376 -0.3874
  253TIP3    H124954   2.450   5.603   8.611 -0.9318 -0.4514  0.8445
  253TIP3    H224955   2.535   5.479   8.591 -0.8064 -0.4728  1.4995
  254TIP3   OH224956   6.241   0.808   0.601  0.1304  0.3331 -0.5798
  254TIP3    H124957   6.280   0.884   0.558  0.0403  1.0134  0.5060
  254TIP3    H224958   6.162   0.841   0.643  0.3124 -0.2504  0.2708
  255TIP3   OH224959   1.580   0.371   2.969 -0.4441  0.3229  0.2884
  255TIP3    H124960   1.486   0.362   2.954 -0.1088  0.8090 -2.5367
  255TIP3    H224961   1.587   0.448   3.027 -1.7358  1.3037 -0.7908
  256TIP3   OH224962   2.197   0.959   7.378 -0.1672 -0.6385  0.5959
  256TIP3    H124963   2.232   1.001   7.456  0.7933 -0.1056 -0.1071
  256TIP3    H224964   2.237   1.006   7.304 -2.7603  0.3817 -0.2884
  257TIP3   OH224965   3.364   0.073   8.236 -0.0994 -0.2293 -0.1349
  257TIP3    H124966   3.274   0.051   8.213 -0.3221  0.8723 -0.3401
  257TIP3    H224967   3.402  -0.011   8.264 -1.3525 -0.5965  0.5496
  258TIP3   OH224968   5.070   7.122   1.683 -0.2030 -0.0801  0.3859
  258TIP3    H124969   5.139   7.139   1.747  0.7358 -0.8297 -0.3960
  258TIP3    H224970   5.008   7.194   1.695  1.0664  1.0178  0.6338
  259TIP3   OH224971   2.361   1.545   0.518  0.7531 -0.1005 -0.0754
  259TIP3    H124972   2.382   1.629   0.477  1.9059  0.2851  1.2583
  259TIP3    H224973   2.404   1.480   0.463 -0.2169  0.1375 -1.1635
  260TIP3   OH224974   1.299   0.778   0.617 -0.4913 -0.5394 -0.8483
  260TIP3    H124975   1.280   0.798   0.525 -1.2966 -1.0128 -0.7985
  260TIP3    H224976   1.389   0.808   0.631 -0.8222  0.7861 -1.4231
  261TIP3   OH224977   0.366   3.069   1.681  0.0812  0.3264 -0.2925
  261TIP3    H124978   0.288   3.021   1.655  1.1047 -1.0944 -0.8677
  261TIP3    H224979   0.407   3.095   1.598  0.5001  0.5756 -0.0098
  262TIP3   OH224980   5.030   0.851   8.690 -0.0551 -0.1471  0.0754
  262TIP3    H124981   4.952   0.802   8.665  1.2669 -0.8900 -3.0975
  262TIP3    H224982   4.997   0.931   8.730 -2.4458 -0.3163 -1.3956
  263TIP3   OH224983   6.813   2.860   2.887  0.0230 -0.3369 -0.1114
  263TIP3    H124984   6.794   2.925   2.955  2.4127  0.5720 -0.1992
  263TIP3    H224985   6.829   2.779   2.935 -3.5186 -1.1588 -0.0307
  264TIP3   OH224986   6.877   0.010   6.979  0.2847 -0.1544 -0.0238
  264TIP3    H124987   6.891  -0.080   7.007 -0.7692 -0.1650  0.5035
  264TIP3    H224988   6.786   0.012   6.950  0.7614  0.3471 -1.5924
  265TIP3   OH224989   0.681   0.247   0.575  0.7816  0.1864 -0.2138
  265TIP3    H124990   0.716   0.164   0.606 -2.0476 -0.6403  1.1667
  265TIP3    H224991   0.668   0.234   0.481 -0.5143 -1.3586  0.1422
  266TIP3   OH224992   7.078   3.879   8.317 -0.1544  0.3821 -0.1476
  266TIP3    H124993   7.155   3.902   8.264  0.2173  0.2607  0.3385
  266TIP3    H224994   7.035   3.809   8.267  0.6787 -0.3529  0.1420
  267TIP3   OH224995   6.133   6.977   0.259  0.0140 -0.2610  0.3293
  267TIP3    H124996   6.195   6.956   0.189  0.1175  1.3333 -0.0927
  267TIP3    H224997   6.121   6.894   0.306 -1.2686 -1.7729 -2.4659
  268TIP3   OH224998   0.445   6.833   9.580 -0.2947  0.2439  0.1081
  268TIP3    H124999   0.505   6.850   9.653  0.8161 -1.6355 -0.2862
  268TIP3    H225000   0.368   6.794   9.620 -0.3936  0.7666  0.4302
  269TIP3   OH225001   6.370   0.243   2.008  0.2391 -0.1955 -0.1688
  269TIP3    H125002   6.371   0.203   2.095 -0.6399 -1.1927 -0.5939
  269TIP3    H225003   6.390   0.335   2.023 -3.3211  0.4813  1.5423
  270TIP3   OH225004   6.429   0.175   0.360  0.3774  0.3271 -0.1043
  270TIP3    H125005   6.520   0.158   0.333  0.4068 -0.3680  0.4031
  270TIP3    H225006   6.438   0.221   0.444  0.2636 -1.2378  0.7980
  271TIP3   OH225007   7.620   0.992   9.435 -0.2816  0.3138  0.6868
  271TIP3    H125008   7.708   0.961   9.452 -0.0593  1.4388  1.6904
  271TIP3    H225009   7.572   0.914   9.407  1.1582 -0.1983 -0.4833
  272TIP3   OH225010   7.131   0.712   8.164 -0.0957  0.0049  0.0706
  272TIP3    H125011   7.097   0.680   8.248 -0.1797 -2.0932 -0.7246
  272TIP3    H225012   7.060   0.696   8.102  1.1871 -1.6913 -1.0373
  273TIP3   OH225013   6.002   4.801   7.820  0.5738  0.4155  0.3668
  273TIP3    H125014   6.011   4.896   7.830  1.1176  0.3538  0.4867
  273TIP3    H225015   5.971   4.771   7.905  2.3299  0.2552  1.0070
  274TIP3   OH225016   7.277   0.995  10.032  0.2679  0.1638 -0.0193
  274TIP3    H125017   7.215   0.923  10.025  0.3478 -0.0427  1.1536
  274TIP3    H225018   7.283   1.030   9.943 -0.1218 -0.9723 -0.5157
  275TIP3   OH225019   5.390   0.838   2.672 -0.5350  0.2741  0.0958
  275TIP3    H125020   5.398   0.863   2.580 -1.1504 -1.4114 -0.4486
  275TIP3    H225021   5.414   0.746   2.674 -0.0812  0.4000  1.7207
  276TIP3   OH225022   1.545   1.485   8.828  0.7995 -0.6025  0.2606
  276TIP3    H125023   1.510   1.532   8.752  1.1232  0.7355  0.9116
  276TIP3    H225024   1.602   1.548   8.872 -0.0423 -1.0433  2.0996
  277TIP3   OH225025   5.591   5.408   7.931  0.1517  0.0696  0.4534
  277TIP3    H125026   5.573   5.315   7.916  1.2254 -0.2455  1.0081
  277TIP3    H225027   5.685   5.411   7.951  1.1551  1.7639 -3.6278
  278TIP3   OH225028   4.745   1.090   9.530  0.0099 -0.0444  0.2331
  278TIP3    H125029   4.777   1.133   9.609 -1.3673  1.1516  0.1885
  278TIP3    H225030   4.808   1.021   9.513  1.3847  0.9011  1.2790
  279TIP3   OH225031   0.807   4.267   2.994 -0.0296  0.9861  0.8280
  279TIP3    H125032   0.892   4.289   3.033 -0.3889  0.2315  2.1004
  279TIP3    H225033   0.746   4.328   3.034 -0.1489  1.3356  0.1300
  280TIP3   OH225034   7.166   2.192   2.699 -0.0997 -0.2972 -0.2076
  280TIP3    H125035   7.141   2.101   2.686  0.2889 -0.7466  1.7864
  280TIP3    H225036   7.092   2.231   2.746  0.3102  0.0388  0.1758
  281TIP3   OH225037   6.360   4.838   7.088 -0.0893 -0.2719  0.0128
  281TIP3    H125038   6.455   4.837   7.085 -0.0445 -1.1940  1.1609
  281TIP3    H225039   6.337   4.931   7.083  0.9872  0.1807  2.2247
  282TIP3   OH225040   3.933   6.746   1.049  0.1460  0.0634  0.1108
  282TIP3    H125041   3.872   6.748   0.975  1.3141  0.5549 -0.8921
  282TIP3    H225042   4.010   6.702   1.015  0.9492  0.8600  0.8429
  283TIP3   OH225043   0.245   1.652   0.252 -0.3651  0.0623  0.2287
  283TIP3    H125044   0.221   1.581   0.193  1.5381 -0.7718  0.4256
  283TIP3    H225045   0.193   1.727   0.220 -0.3521 -0.6844 -1.6849
  284TIP3   OH225046   4.869   0.675   1.159 -0.2464 -0.2361  0.2901
  284TIP3    H125047   4.939   0.643   1.102 -2.0197  0.3111 -2.3633
  284TIP3    H225048   4.835   0.596   1.202 -0.1100 -0.9759 -0.9215
  285TIP3   OH225049   6.799   3.225   1.255  0.2358 -0.0454 -0.1654
  285TIP3    H125050   6.835   3.168   1.187  1.5551  0.3423  0.1865
  285TIP3    H225051   6.800   3.313   1.216 -0.5848 -0.0650 -0.2421
  286TIP3   OH225052   0.820   2.363   1.718  0.2323  0.0751 -0.0190
  286TIP3    H125053   0.795   2.445   1.762 -1.3566 -1.2634  1.7486
  286TIP3    H225054   0.902   2.337   1.760  0.9082  0.8558 -0.7990
  287TIP3   OH225055   3.020   6.513   0.326  0.2646  0.3387  0.3551
  287TIP3    H125056   3.073   6.434   0.325 -0.9533 -0.5072 -1.2934
  287TIP3    H225057   3.071   6.578   0.278  0.5111  0.0332  0.2044
  288TIP3   OH225058   1.881   1.305   0.870  0.0414 -0.0652 -0.4673
  288TIP3    H125059   1.975   1.294   0.884 -0.1126 -0.5984  0.1941
  288TIP3    H225060   1.871   1.395   0.839  0.5243  0.8431  1.8442
  289TIP3   OH225061   6.678   6.648   8.920  0.3936 -0.2003 -0.0787
  289TIP3    H125062   6.711   6.738   8.926  2.3826 -0.9797  2.8359
  289TIP3    H225063   6.692   6.624   8.829  2.3805  1.5934 -0.3437
  290TIP3   OH225064   4.928   1.761   1.981 -0.1830  0.1724 -0.0487
  290TIP3    H125065   4.995   1.807   2.032  0.6788 -0.8420 -0.2396
  290TIP3    H225066   4.972   1.738   1.900 -0.1469 -2.1622  0.5720
  291TIP3   OH225067   0.699   0.307   9.222 -0.1543  0.4535  0.0392
  291TIP3    H125068   0.751   0.388   9.219  0.7905 -0.1167  0.5793
  291TIP3    H225069   0.671   0.293   9.132 -3.6767  3.4735  0.4057
  292TIP3   OH225070   5.921   3.610   0.450 -0.0468  0.1920  0.3048
  292TIP3    H125071   5.856   3.677   0.474 -0.3538 -0.7046  2.1682
  292TIP3    H225072   5.976   3.601   0.528  0.6455 -0.9794 -0.2897
  293TIP3   OH225073   0.878   5.657   7.717 -0.6040 -0.2549  0.2187
  293TIP3    H125074   0.897   5.671   7.625  0.5498  0.0493  0.4859
  293TIP3    H225075   0.800   5.710   7.734  0.0954  0.9543 -0.2265
  294TIP3   OH225076   6.940   7.273   0.655 -0.2298  0.1629  0.5004
  294TIP3    H125077   6.884   7.250   0.730  0.3561  2.4762  1.7251
  294TIP3    H225078   6.908   7.358   0.626 -1.0801 -1.0545 -2.6095
  295TIP3   OH225079   3.357   7.161   1.793  0.0699  0.0486  0.6618
  295TIP3    H125080   3.354   7.200   1.880  2.8265  2.1733 -0.0527
  295TIP3    H225081   3.371   7.235   1.734 -0.0479 -1.4996 -1.4190
  296TIP3   OH225082   4.451   0.153   2.403 -0.1831  0.1249 -0.0937
  296TIP3    H125083   4.444   0.192   2.316 -1.2536 -0.7941 -0.4519
  296TIP3    H225084   4.544   0.136   2.414  0.1920  1.8787 -0.3046
  297TIP3   OH225085   6.790   0.550   8.938  0.1645  0.3058  0.0211
  297TIP3    H125086   6.793   0.607   9.016  2.6762 -1.5357  1.4300
  297TIP3    H225087   6.699   0.523   8.932 -0.4153  1.7395  1.3555
  298TIP3   OH225088   2.619   0.913   9.389  0.0617  0.2234 -0.4253
  298TIP3    H125089   2.710   0.886   9.379 -0.1900 -0.3843 -1.2420
  298TIP3    H225090   2.569   0.833   9.374 -0.5953  0.4821  0.3421
  299TIP3   OH225091   4.644   3.295   7.206  0.2232 -0.7526 -0.3081
  299TIP3    H125092   4.597   3.376   7.187  0.5789 -0.0383  1.6157
  299TIP3    H225093   4.630   3.240   7.129 -2.6877 -0.1064 -0.3509
  300TIP3   OH225094   1.328   3.296   8.259  0.4457  0.6755  0.0682
  300TIP3    H125095   1.269   3.268   8.189  0.0322  0.7056  0.4030
  300TIP3    H225096   1.287   3.374   8.295 -0.4470 -0.4854  1.7064
  301TIP3   OH225097   2.533   3.664   9.682 -0.1364  0.0762 -0.3910
  301TIP3    H125098   2.547   3.570   9.693  2.2850  0.4713  0.4795
  301TIP3    H225099   2.487   3.672   9.598  1.8127 -1.7644 -1.7392
  302TIP3   OH225100   3.689   5.251   0.313  0.0104  0.3781 -0.2025
  302TIP3    H125101   3.635   5.221   0.386 -0.0842 -0.4346 -0.5988
  302TIP3    H225102   3.755   5.183   0.302  1.7647  1.8376  0.9249
  303TIP3   OH225103   2.682   2.098   0.966 -0.1311  0.4295 -0.4068
  303TIP3    H125104   2.590   2.074   0.972 -0.7044  2.7214  0.7429
  303TIP3    H225105   2.716   2.043   0.895 -2.7297  0.5791 -1.8903
  304TIP3   OH225106   1.137   6.381   7.860  0.3544 -0.2404 -0.0514
  304TIP3    H125107   1.147   6.292   7.894 -1.6074 -0.5897 -0.2539
  304TIP3    H225108   1.215   6.395   7.806 -0.7818 -3.1300 -2.7317
  305TIP3   OH225109   7.378   1.210   9.180  0.5989 -0.2889 -0.1521
  305TIP3    H125110   7.424   1.204   9.263 -2.0630 -1.2892  1.4053
  305TIP3    H225111   7.325   1.289   9.188 -0.8555 -1.2202 -0.1666
  306TIP3   OH225112   1.237   4.368   1.719 -0.0926  0.0495 -0.2104
  306TIP3    H125113   1.329   4.375   1.745 -0.1298 -0.5334  0.1087
  306TIP3    H225114   1.240   4.360   1.623  0.2488 -0.6912 -0.1506
  307TIP3   OH225115   2.312   5.941   2.349 -0.9609 -0.1944  0.7571
  307TIP3    H125116   2.285   5.849   2.347 -0.3592 -0.4012  1.4514
  307TIP3    H225117   2.341   5.955   2.440  0.5406  0.1987  0.2505
  308TIP3   OH225118   3.152   5.368   6.825  0.2402  0.6165 -0.3517
  308TIP3    H125119   3.214   5.435   6.797  0.4369  0.0175 -1.4012
  308TIP3    H225120   3.067   5.411   6.820  0.3359  0.7346 -1.2781
  309TIP3   OH225121   0.753   0.927   2.527 -0.3356 -0.3471  0.3812
  309TIP3    H125122   0.665   0.931   2.565  0.6339  0.1134  2.7549
  309TIP3    H225123   0.775   1.018   2.507 -0.5733 -0.5166 -0.7194
  310TIP3   OH225124   0.598   1.591   2.651 -0.7041 -0.0157 -0.0631
  310TIP3    H125125   0.643   1.549   2.724 -1.0590  1.1367  0.8405
  310TIP3    H225126   0.593   1.523   2.584  2.6809 -0.1063 -0.3794
  311TIP3   OH225127   2.410   7.585   8.103  0.4942 -0.2660 -0.7049
  311TIP3    H125128   2.500   7.554   8.088  0.9386  1.3619 -1.7621
  311TIP3    H225129   2.367   7.575   8.018 -0.3844 -1.1471 -0.1706
  312TIP3   OH225130   2.507   5.191   0.599  0.4154 -0.3055 -0.1941
  312TIP3    H125131   2.446   5.244   0.651 -1.9066 -3.1548  0.2667
  312TIP3    H225132   2.524   5.243   0.521 -2.0155  0.9799  0.0367
  313TIP3   OH225133   0.388   6.331   2.744 -0.6803 -0.2405 -0.1382
  313TIP3    H125134   0.371   6.237   2.738 -0.8914 -0.1524 -1.0721
  313TIP3    H225135   0.484   6.339   2.738 -0.7043 -0.3568 -0.7335
  314TIP3   OH225136   5.331   0.708   9.566 -0.0073  0.6087  0.2282
  314TIP3    H125137   5.261   0.734   9.506  2.6498  1.3345 -2.8565
  314TIP3    H225138   5.386   0.650   9.514  1.3782 -0.4517  2.7203
  315TIP3   OH225139   7.082   5.768   1.213 -0.5336  0.1394  0.0795
  315TIP3    H125140   7.089   5.810   1.127 -1.1067 -0.6910 -0.3880
  315TIP3    H225141   7.138   5.691   1.207 -1.9868 -0.9363 -0.2086
  316TIP3   OH225142   1.590   6.435   8.910  0.0302  0.1370 -0.4342
  316TIP3    H125143   1.641   6.480   8.977  1.1072  0.9801 -1.7687
  316TIP3    H225144   1.523   6.499   8.884 -1.3438 -0.7120  0.8137
  317TIP3   OH225145   2.852   1.986   0.129  0.9973  0.5326 -0.4857
  317TIP3    H125146   2.814   1.980   0.217  2.6345 -0.6773  0.1888
  317TIP3    H225147   2.776   1.994   0.071 -0.2679 -1.0501  0.8313
  318TIP3   OH225148   0.174   1.435   7.020 -1.0223 -0.1691 -0.4581
  318TIP3    H125149   0.148   1.522   7.049  0.8260 -0.6013  2.9660
  318TIP3    H225150   0.111   1.375   7.060 -1.1541 -0.5715 -1.2309
  319TIP3   OH225151   3.859   4.708   7.669 -0.3515 -0.1113  0.1936
  319TIP3    H125152   3.916   4.784   7.658 -0.3137 -0.1645  0.0097
  319TIP3    H225153   3.848   4.674   7.580  0.4317 -0.9073  0.3883
  320TIP3   OH225154   6.159   1.730   7.665 -0.7222 -0.3316  0.0358
  320TIP3    H125155   6.235   1.698   7.616 -0.9768  0.6327 -1.0407
  320TIP3    H225156   6.191   1.744   7.754  0.4714  0.3893 -0.4887
  321TIP3   OH225157   6.243   5.370   8.751 -0.4157 -0.0662 -0.2419
  321TIP3    H125158   6.242   5.316   8.829  0.2309 -1.2080 -0.9942
  321TIP3    H225159   6.152   5.375   8.723 -0.4932 -0.7031 -0.1127
  322TIP3   OH225160   6.773   3.671   7.080 -0.0727 -0.2408 -0.4535
  322TIP3    H125161   6.733   3.697   6.997 -1.1263  1.0325  0.4045
  322TIP3    H225162   6.865   3.657   7.059 -0.3650 -0.1549 -1.8725
  323TIP3   OH225163   0.133   0.592   0.044  0.4453  0.0364 -0.6004
  323TIP3    H125164   0.189   0.660   0.006 -0.1783  0.3501 -0.9763
  323TIP3    H225165   0.127   0.525  -0.024  0.3487  0.0154 -0.5720
  324TIP3   OH225166   1.897   1.038   8.575  0.0746 -0.0037 -0.2696
  324TIP3    H125167   1.927   1.063   8.663 -2.4187  2.0631  0.1186
  324TIP3    H225168   1.904   1.119   8.524 -0.0764 -0.7642 -1.5217
  325TIP3   OH225169   7.161   6.515   1.462  0.4954  0.3627 -1.0192
  325TIP3    H125170   7.103   6.577   1.418  1.3954  1.4169 -0.7537
  325TIP3    H225171   7.195   6.562   1.538 -0.1158 -1.0381  0.1747
  326TIP3   OH225172   1.740   3.744   8.587 -0.5770  0.0444 -0.0172
  326TIP3    H125173   1.755   3.784   8.673 -1.5383 -1.6591  0.9944
  326TIP3    H225174   1.685   3.668   8.605 -1.4090  0.0526 -2.2575
  327TIP3   OH225175   0.049   1.582   2.013 -0.2972  0.0728  0.0967
  327TIP3    H125176   0.043   1.524   1.937 -0.7951 -0.3028  0.4213
  327TIP3    H225177   0.049   1.671   1.976 -1.8296 -0.0623 -0.2728
  328TIP3   OH225178   2.683   2.629   7.922 -0.9392  0.4063  0.1795
  328TIP3    H125179   2.689   2.558   7.858 -1.1051  1.3014 -0.8633
  328TIP3    H225180   2.758   2.685   7.903 -2.7366  2.4309 -1.4670
  329TIP3   OH225181   0.388   4.878   7.679 -0.2571 -0.4686 -0.2106
  329TIP3    H125182   0.466   4.920   7.643  0.9590  0.5656  3.1877
  329TIP3    H225183   0.330   4.951   7.702 -1.3406 -1.1186 -0.7901
  330TIP3   OH225184   4.672   2.495   8.583 -0.0771 -0.3773 -0.4461
  330TIP3    H125185   4.722   2.445   8.648  0.1225 -0.7993 -0.9150
  330TIP3    H225186   4.683   2.586   8.609  0.4096 -0.5127 -0.1691
  331TIP3   OH225187   1.292   2.343   8.900 -0.2432  0.1989 -0.5893
  331TIP3    H125188   1.242   2.384   8.971  2.7276 -2.5288  3.5517
  331TIP3    H225189   1.263   2.252   8.899  1.6139 -0.4304 -0.9749
  332TIP3   OH225190   1.592   6.125   7.605 -0.4707 -0.2325 -0.4896
  332TIP3    H125191   1.558   6.089   7.523 -1.5044 -2.8839  0.9707
  332TIP3    H225192   1.641   6.052   7.644 -0.3608  0.8035  1.4416
  333TIP3   OH225193   7.657   4.007   2.179  0.4220  0.4003  0.1980
  333TIP3    H125194   7.617   4.079   2.130  0.5511 -0.2733 -0.9346
  333TIP3    H225195   7.586   3.973   2.234 -0.3200 -0.1540 -1.0598
  334TIP3   OH225196   2.485   5.838   2.836  0.4072  0.2677 -0.0260
  334TIP3    H125197   2.503   5.887   2.916 -1.3301  1.2786 -0.1920
  334TIP3    H225198   2.411   5.782   2.858  0.3948  0.0070 -0.7051
  335TIP3   OH225199   6.651   7.080   1.897 -0.3316  0.6167 -0.1017
  335TIP3    H125200   6.731   7.054   1.943 -0.3232  1.0330  0.1257
  335TIP3    H225201   6.671   7.167   1.862  0.1344 -0.2025 -2.0302
  336TIP3   OH225202   3.469   2.680   7.620 -0.1482  0.7120 -0.1584
  336TIP3    H125203   3.490   2.687   7.527  0.7239 -0.0364 -0.0335
  336TIP3    H225204   3.385   2.724   7.629 -0.3442  0.6175 -1.3418
  337TIP3   OH225205   2.134   0.337   6.889  0.2011  0.2468 -0.0357
  337TIP3    H125206   2.148   0.420   6.934 -1.5837 -0.3996  1.8177
  337TIP3    H225207   2.067   0.356   6.823 -1.2673  0.0195  1.3451
  338TIP3   OH225208   4.330   1.678   2.635 -0.1264  0.0351  0.0487
  338TIP3    H125209   4.329   1.727   2.717 -0.3819  0.1068  0.0040
  338TIP3    H225210   4.381   1.599   2.655  1.2687  0.8364 -0.1968
  339TIP3   OH225211   0.991   6.178   8.466 -0.5755 -0.6622 -0.6514
  339TIP3    H125212   0.966   6.127   8.543 -1.0045  0.4117 -0.0655
  339TIP3    H225213   1.015   6.112   8.401 -0.5302 -1.5945  0.2842
  340TIP3   OH225214   6.826   3.368   8.732 -0.2813 -0.5780 -0.4671
  340TIP3    H125215   6.876   3.294   8.767 -0.0781 -0.4786 -0.5412
  340TIP3    H225216   6.874   3.393   8.652 -0.9019 -0.9850 -0.9733
  341TIP3   OH225217   7.190   1.903   9.705  0.6897 -0.2614 -0.1256
  341TIP3    H125218   7.113   1.876   9.755 -0.3484  0.4164 -1.2962
  341TIP3    H225219   7.234   1.966   9.762 -0.5312  0.5804 -0.0586
  342TIP3   OH225220   6.978   0.725   7.432  0.3266 -0.0422  0.2058
  342TIP3    H125221   6.931   0.663   7.488 -1.1310  0.5652 -0.2896
  342TIP3    H225222   7.031   0.776   7.493  0.2848 -0.7034  0.8040
  343TIP3   OH225223   2.058   3.913   8.642 -0.4790 -0.6376 -0.4101
  343TIP3    H125224   1.995   3.879   8.705  0.4909 -1.8395 -0.0534
  343TIP3    H225225   2.016   3.992   8.607 -1.4733 -0.5087  0.9779
  344TIP3   OH225226   6.024   0.677   8.590 -0.9223  0.1926  0.7204
  344TIP3    H125227   6.026   0.734   8.513 -1.2839 -0.3291  0.3167
  344TIP3    H225228   5.939   0.633   8.585 -2.0624  1.9494  2.7457
  345TIP3   OH225229   2.321   4.718   0.839 -0.0919 -1.4044 -0.4389
  345TIP3    H125230   2.238   4.738   0.881 -0.0823 -1.2127 -0.5076
  345TIP3    H225231   2.352   4.638   0.881  0.4460 -0.6341  0.6932
  346TIP3   OH225232   0.641   5.679   2.090 -0.0435 -0.2441  0.0491
  346TIP3    H125233   0.554   5.641   2.087 -0.0753 -0.1330 -2.1925
  346TIP3    H225234   0.701   5.605   2.081 -0.0095 -0.1013 -1.0282
  347TIP3   OH225235   7.161   4.346   7.285 -0.1682  0.0966  0.2703
  347TIP3    H125236   7.190   4.275   7.227 -1.5378 -0.3433  0.0996
  347TIP3    H225237   7.193   4.426   7.243  1.8508 -0.3972  0.7240
  348TIP3   OH225238   3.146   7.396   1.778  0.3978  0.1631 -0.0934
  348TIP3    H125239   3.200   7.459   1.826  0.0764  0.3656  0.0025
  348TIP3    H225240   3.092   7.449   1.720  1.1382 -0.1083 -1.0543
  349TIP3   OH225241   6.785   4.369   9.479  0.1471  0.3304  0.3765
  349TIP3    H125242   6.771   4.332   9.566  0.9032 -0.4183  0.1907
  349TIP3    H225243   6.705   4.419   9.460 -0.2626  0.0103  1.2463
  350TIP3   OH225244   0.867   1.363   9.812 -0.2562  0.3080  0.1801
  350TIP3    H125245   0.892   1.433   9.873 -1.7412 -0.2905  1.5564
  350TIP3    H225246   0.780   1.388   9.781 -0.7773 -0.8659  0.6403
  351TIP3   OH225247   6.339   6.695   9.869 -0.3664  0.2454 -0.5417
  351TIP3    H125248   6.345   6.791   9.876 -1.0897  0.3975 -1.6043
  351TIP3    H225249   6.266   6.671   9.926 -2.6639  0.8132 -3.0376
  352TIP3   OH225250   6.373   1.649   8.969 -0.1493 -0.0094  0.1767
  352TIP3    H125251   6.358   1.647   9.063 -1.9911  0.0564 -0.0692
  352TIP3    H225252   6.344   1.564   8.937  1.0696 -0.2769 -0.2748
  353TIP3   OH225253   4.386   7.283   1.585 -0.3097 -0.5665  0.3614
  353TIP3    H125254   4.446   7.349   1.618  0.9632 -0.6715 -1.5872
  353TIP3    H225255   4.335   7.328   1.518 -1.9420 -0.6854  1.4582
  354TIP3   OH225256   2.043   3.040   9.515 -0.2754  0.6687  0.0388
  354TIP3    H125257   1.958   3.084   9.508 -0.3129  0.5944  0.0227
  354TIP3    H225258   2.097   3.083   9.449 -0.0827  1.2045  0.5361
  355TIP3   OH225259   6.258   1.301   1.717 -0.1541 -0.0244  0.3264
  355TIP3    H125260   6.277   1.367   1.651 -1.1332  1.3530  1.3749
  355TIP3    H225261   6.202   1.238   1.673 -0.4493  0.6554 -0.2740
  356TIP3   OH225262   4.896   7.430   7.714 -0.5815  0.0750  0.3506
  356TIP3    H125263   4.861   7.365   7.775 -0.7958 -0.9657 -0.8602
  356TIP3    H225264   4.990   7.432   7.732 -0.8374  0.9851  1.8132
  357TIP3   OH225265   0.432   5.809   7.467  0.2122 -0.0483  0.6042
  357TIP3    H125266   0.461   5.857   7.389  0.0234 -0.3783  0.3264
  357TIP3    H225267   0.423   5.876   7.534  0.1290  0.2824  0.2696
  358TIP3   OH225268   6.043   3.230   0.371  0.3866  0.4858 -0.1422
  358TIP3    H125269   6.072   3.288   0.300 -0.0407  0.9678  0.0688
  358TIP3    H225270   6.058   3.281   0.451  0.3495  0.1615  0.0739
  359TIP3   OH225271   2.987   3.933   8.160  0.4614  0.1353 -0.1234
  359TIP3    H125272   3.033   3.923   8.243  1.9741  1.8538 -0.7050
  359TIP3    H225273   2.924   4.003   8.176  0.2684 -0.0025 -0.2607
  360TIP3   OH225274   2.202   7.426   7.235 -0.2201  0.0037 -0.1418
  360TIP3    H125275   2.146   7.378   7.296  0.8974 -0.7980  0.3032
  360TIP3    H225276   2.265   7.360   7.205  0.3430  0.8217 -0.7840
  361TIP3   OH225277   2.200   3.861   8.176  0.4325  0.3768 -0.0477
  361TIP3    H125278   2.235   3.951   8.176  1.3687  0.1853 -3.6697
  361TIP3    H225279   2.154   3.854   8.092 -0.5885 -2.2027  0.6541
  362TIP3   OH225280   4.174   4.011   8.070  0.0292  0.1193 -0.4682
  362TIP3    H125281   4.224   3.998   8.150  0.2037  0.4367 -0.5274
  362TIP3    H225282   4.239   4.006   7.999  0.0252  0.7969 -0.5275
  363TIP3   OH225283   6.686   1.562   9.308  0.3172  0.4023  0.1239
  363TIP3    H125284   6.720   1.594   9.224  1.1258 -0.5541  0.0756
  363TIP3    H225285   6.762   1.557   9.365  0.3715 -2.0305 -0.0631
  364TIP3   OH225286   3.012   4.149   8.710 -0.5233 -0.0745 -0.9270
  364TIP3    H125287   2.952   4.215   8.745 -1.1804 -1.2168  0.1767
  364TIP3    H225288   2.992   4.070   8.760  3.1778 -0.0917  0.8718
  365TIP3   OH225289   3.012   3.097   1.725  0.6750  0.5517 -0.3241
  365TIP3    H125290   2.998   3.133   1.812 -2.8312  0.0080 -0.5249
  365TIP3    H225291   2.967   3.158   1.666 -1.0715 -1.4428 -1.1787
  366TIP3   OH225292   4.579   0.589   7.721  0.0784  0.2835 -0.5278
  366TIP3    H125293   4.534   0.585   7.805  1.3045  1.0127  0.2048
  366TIP3    H225294   4.632   0.509   7.719 -1.3630 -0.6702 -1.4744
  367TIP3   OH225295   6.176   4.789   8.079 -0.7282  0.0525  0.0107
  367TIP3    H125296   6.250   4.819   8.026 -0.2278 -1.6924 -0.3437
  367TIP3    H225297   6.215   4.739   8.150 -1.5206  0.2542  0.6071
  368TIP3   OH225298   1.246   0.604   2.267  0.3881  0.1959  0.1148
  368TIP3    H125299   1.281   0.669   2.327 -0.3671  0.2164  0.5484
  368TIP3    H225300   1.183   0.555   2.319  0.3015 -0.3002 -0.4490
  369TIP3   OH225301   1.560   6.794   9.146 -0.0916 -0.2610  0.1450
  369TIP3    H125302   1.485   6.837   9.105  0.3865  1.1819  0.7280
  369TIP3    H225303   1.532   6.778   9.236  0.0922 -0.2574  0.2032
  370TIP3   OH225304   1.672   7.032   8.156  0.0792 -0.0290  0.0187
  370TIP3    H125305   1.598   6.972   8.162  0.2543 -0.1723  0.9800
  370TIP3    H225306   1.673   7.077   8.240  1.3819 -0.3882  0.2207
  371TIP3   OH225307   6.673   3.502   9.087 -0.0876 -0.5385 -0.4001
  371TIP3    H125308   6.606   3.493   9.155  0.3027  0.7757  0.1993
  371TIP3    H225309   6.631   3.556   9.020  0.3098  0.1779 -0.0832
  372TIP3   OH225310   5.302   6.550   7.424  0.0475 -0.2339  0.3660
  372TIP3    H125311   5.286   6.558   7.330  0.5012  2.0208  0.4168
  372TIP3    H225312   5.383   6.499   7.431 -0.1537 -0.6724 -0.4416
  373TIP3   OH225313   5.269   4.750   8.550  0.4400 -0.6822 -0.1589
  373TIP3    H125314   5.315   4.796   8.620 -0.2694 -0.2788  0.0469
  373TIP3    H225315   5.239   4.669   8.590 -1.0345  0.0881  0.3827
  374TIP3   OH225316   7.104   6.277   1.898  0.1527  0.4436  0.0724
  374TIP3    H125317   7.193   6.303   1.921 -0.2634  2.0808 -0.0267
  374TIP3    H225318   7.101   6.183   1.915  1.8112  0.4098  0.3310
  375TIP3   OH225319   2.525   4.247   9.875 -0.1928 -0.2291  0.2437
  375TIP3    H125320   2.596   4.295   9.918  0.8461 -1.1593 -0.3714
  375TIP3    H225321   2.564   4.162   9.853 -1.7080 -1.0271  0.5003
  376TIP3   OH225322   5.071   0.484   8.778 -0.6428 -0.0101 -0.3409
  376TIP3    H125323   5.046   0.568   8.740  2.5251  0.1472 -2.4901
  376TIP3    H225324   5.126   0.506   8.853 -0.4529 -0.1436 -0.4368
  377TIP3   OH225325   5.328   0.182   9.472 -0.5215  0.2773 -0.1293
  377TIP3    H125326   5.339   0.122   9.398 -1.1712 -0.4468  0.3489
  377TIP3    H225327   5.234   0.199   9.475 -0.3891  1.0231 -0.0164
  378TIP3   OH225328   4.090   5.224   8.723 -0.0906 -0.1523  0.4847
  378TIP3    H125329   4.157   5.292   8.718 -1.7114  1.5342  0.3166
  378TIP3    H225330   4.138   5.142   8.726  1.9942  1.0313  1.6085
  379TIP3   OH225331   5.596   1.797   9.927 -0.2447 -0.0756 -0.2606
  379TIP3    H125332   5.516   1.834   9.889 -0.8166  0.7939  1.6792
  379TIP3    H225333   5.611   1.848  10.007  3.2501  1.0066 -1.4119
  380TIP3   OH225334   3.125   4.405   0.214  0.1200  0.3126 -0.0690
  380TIP3    H125335   3.110   4.497   0.191 -0.1779  0.2390 -0.1682
  380TIP3    H225336   3.045   4.377   0.257  0.9111  0.6359  1.7142
  381TIP3   OH225337   0.428   1.737   9.240  0.3537 -0.0326  0.1874
  381TIP3    H125338   0.392   1.662   9.288 -1.1765  0.5197 -0.0540
  381TIP3    H225339   0.466   1.793   9.308 -2.3551  1.0644  0.9314
  382TIP3   OH225340   5.184   2.571   7.392 -0.1762 -0.0984  0.5304
  382TIP3    H125341   5.243   2.590   7.464  0.4073 -1.4204  0.4313
  382TIP3    H225342   5.114   2.519   7.431 -0.7937  0.6712  0.4679
  383TIP3   OH225343   4.716   2.167   1.533 -0.0488 -0.2442 -0.5453
  383TIP3    H125344   4.685   2.078   1.550  2.2123 -1.2194 -1.1700
  383TIP3    H225345   4.667   2.221   1.595 -0.4577 -2.0965  0.8591
  384TIP3   OH225346   0.609   4.257   8.430 -0.0764 -0.5403 -0.0675
  384TIP3    H125347   0.553   4.236   8.356  0.3115 -0.4501 -0.3883
  384TIP3    H225348   0.580   4.344   8.458  1.2904  0.4460 -1.5672
  385TIP3   OH225349   5.827   0.082   8.596  0.3540 -0.1336  0.0079
  385TIP3    H125350   5.877   0.106   8.673  1.7811 -1.5574 -0.4143
  385TIP3    H225351   5.830   0.158   8.539 -0.7215  0.9350  1.3218
  386TIP3   OH225352   3.185   2.619   8.824 -0.4641  0.4844  0.7270
  386TIP3    H125353   3.146   2.696   8.866  0.8242  1.8177 -0.4002
  386TIP3    H225354   3.259   2.596   8.881 -0.1178  0.8478  0.4296
  387TIP3   OH225355   2.195   1.863   8.402 -0.5990 -0.1332 -0.5774
  387TIP3    H125356   2.262   1.927   8.380 -1.1277  0.9861  0.8974
  387TIP3    H225357   2.123   1.915   8.439 -1.1250 -1.5392  0.4837
  388TIP3   OH225358   3.183   1.463   2.648  0.2011 -0.1699 -0.1213
  388TIP3    H125359   3.242   1.529   2.613  2.6372 -1.3942  1.4250
  388TIP3    H225360   3.196   1.387   2.592  0.8800 -0.7678  0.8311
  389TIP3   OH225361   6.087   6.264   0.668 -0.0842 -0.0263 -0.0672
  389TIP3    H125362   6.179   6.241   0.653  0.2132  1.4010 -0.6793
  389TIP3    H225363   6.084   6.294   0.758 -0.4969 -2.3669  0.7718
  390TIP3   OH225364   7.268   6.217   1.254  0.1757  0.4430  0.0675
  390TIP3    H125365   7.207   6.260   1.194  0.8902  1.6827  0.1837
  390TIP3    H225366   7.212   6.178   1.321 -0.5410  0.5813 -0.4320
  391TIP3   OH225367   3.588   0.608   0.960  0.0240  0.0101 -0.4522
  391TIP3    H125368   3.610   0.536   1.020  2.6024  0.9556 -0.1503
  391TIP3    H225369   3.603   0.572   0.873  0.5036 -0.0828 -0.3355
  392TIP3   OH225370   5.730   2.832   9.956  0.7360 -0.1018  0.1955
  392TIP3    H125371   5.703   2.874  10.038 -0.4864 -1.2618  0.4098
  392TIP3    H225372   5.725   2.903   9.891  1.3229  0.7299  1.0219
  393TIP3   OH225373   1.986   3.840   0.073 -0.4213 -0.3496 -0.4304
  393TIP3    H125374   1.901   3.807   0.104 -0.3553 -0.4003 -0.2977
  393TIP3    H225375   1.965   3.900   0.002 -0.5618 -0.4542 -0.4775
  394TIP3   OH225376   5.552   3.896   9.050 -0.0338  0.2173 -0.3956
  394TIP3    H125377   5.594   3.820   9.012  2.0586  1.1660 -0.0887
  394TIP3    H225378   5.481   3.917   8.990 -0.8421 -2.0838 -0.3549
  395TIP3   OH225379   6.877   3.383   7.785 -0.5366 -1.1315  0.0433
  395TIP3    H125380   6.930   3.462   7.771 -2.1620  0.0458  0.2594
  395TIP3    H225381   6.829   3.372   7.703  0.8122 -2.8603 -0.5777
  396TIP3   OH225382   4.480   7.647   1.917 -0.3745 -0.0957  0.2293
  396TIP3    H125383   4.491   7.554   1.936 -0.6262 -0.2742 -0.4714
  396TIP3    H225384   4.397   7.652   1.870 -0.9966  0.6413  1.3570
  397TIP3   OH225385   7.282   4.048   7.571  0.5139 -0.6659  0.0877
  397TIP3    H125386   7.317   4.075   7.485 -0.0751 -0.3529 -0.0536
  397TIP3    H225387   7.263   3.955   7.560 -2.2190 -0.0513 -1.0431
  398TIP3   OH225388   0.319   3.988   9.740  0.1423  0.4139 -0.0708
  398TIP3    H125389   0.410   3.962   9.723 -0.3826 -2.1170  0.5234
  398TIP3    H225390   0.272   3.966   9.660 -0.3332 -0.6812  0.4799
  399TIP3   OH225391   0.884   2.331   1.454 -0.2178  0.1505 -0.4210
  399TIP3    H125392   0.859   2.321   1.546  0.9586 -0.2246 -0.1218
  399TIP3    H225393   0.956   2.394   1.455  0.8313 -0.9930 -0.8951
  400TIP3   OH225394   2.136   6.815   0.878  0.0776 -0.1311 -0.6692
  400TIP3    H125395   2.063   6.844   0.931  0.7633 -0.0895  0.2720
  400TIP3    H225396   2.171   6.739   0.925  0.1800 -0.6127 -1.5020
  401TIP3   OH225397   6.572   7.230   3.362  0.3626  0.6403  0.1416
  401TIP3    H125398   6.637   7.257   3.427 -0.9851  2.8830  0.6489
  401TIP3    H225399   6.607   7.262   3.278  1.8014 -1.7231 -0.2645
  402TIP3   OH225400   4.803   7.129   8.737  0.4775  0.4578 -0.1499
  402TIP3    H125401   4.846   7.051   8.774 -0.9062 -0.1293  0.3096
  402TIP3    H225402   4.832   7.201   8.793  0.3681 -0.0261  0.5460
  403TIP3   OH225403   7.258   3.295   2.003  0.1157  0.9650 -0.4282
  403TIP3    H125404   7.164   3.299   1.987  0.1322 -0.8875 -1.3534
  403TIP3    H225405   7.297   3.347   1.933 -0.1780  0.5204 -0.9273
  404TIP3   OH225406   4.894   0.501   8.415  0.0366 -0.4426  0.3215
  404TIP3    H125407   4.972   0.534   8.370  0.8083 -2.5890 -0.0170
  404TIP3    H225408   4.919   0.415   8.448 -1.9055 -0.8000  1.0182
  405TIP3   OH225409   3.529   4.204   7.811 -1.0738  0.1323  0.7057
  405TIP3    H125410   3.500   4.276   7.868 -2.0273  0.8075 -0.5866
  405TIP3    H225411   3.448   4.160   7.785 -0.6247 -0.3660  0.1399
  406TIP3   OH225412   2.396   0.907   0.785  0.6993  0.2391 -0.4388
  406TIP3    H125413   2.437   0.901   0.699  1.2866  0.0698 -0.1505
  406TIP3    H225414   2.387   0.816   0.814 -3.0068 -0.0417 -1.9178
  407TIP3   OH225415   1.503   7.343   9.617 -0.0280  0.0025  0.5494
  407TIP3    H125416   1.530   7.282   9.549 -0.0487 -0.3179  0.8262
  407TIP3    H225417   1.544   7.426   9.593 -0.9634  0.1928 -0.4890
  408TIP3   OH225418   6.918   7.271   2.099  0.0297  0.0492 -0.3908
  408TIP3    H125419   6.957   7.231   2.177  0.8200  0.6402 -0.4649
  408TIP3    H225420   6.978   7.342   2.077 -0.3488  0.0725 -1.3681
  409TIP3   OH225421   6.732   0.317   0.631 -0.0282  0.3225  0.3110
  409TIP3    H125422   6.730   0.385   0.563  0.8400 -0.0895 -0.1371
  409TIP3    H225423   6.798   0.255   0.601 -0.3771 -0.4099  1.0226
  410TIP3   OH225424   4.653   6.596   8.445  0.6945  1.0181  0.6130
  410TIP3    H125425   4.646   6.537   8.520  0.5506 -1.0476 -0.9329
  410TIP3    H225426   4.562   6.614   8.421  0.7379  0.9791  0.4181
  411TIP3   OH225427   1.412   3.234   1.111 -0.1454  0.5592  0.5001
  411TIP3    H125428   1.476   3.293   1.151 -0.2607  1.7211 -0.9474
  411TIP3    H225429   1.463   3.159   1.082  0.8431  1.9428 -1.6132
  412TIP3   OH225430   1.963   4.222   9.225 -0.1517 -0.1393 -0.5463
  412TIP3    H125431   1.961   4.185   9.314  2.7864 -1.7590 -1.0277
  412TIP3    H225432   2.009   4.305   9.234  0.7841 -0.6367 -0.6091
  413TIP3   OH225433   0.890   6.249   2.899  0.3654 -0.4486  0.4205
  413TIP3    H125434   0.985   6.258   2.901  0.2105  1.5119  0.3974
  413TIP3    H225435   0.872   6.179   2.963  1.8125 -1.0130  0.2596
  414TIP3   OH225436   7.258   1.013   1.956 -0.1885 -0.0263 -0.6654
  414TIP3    H125437   7.262   1.083   2.021 -1.7898  0.6164 -1.2144
  414TIP3    H225438   7.304   1.048   1.880  0.0760 -0.0585 -0.5222
  415TIP3   OH225439   2.776   4.786   7.050  0.0952  0.0165  0.4406
  415TIP3    H125440   2.782   4.842   7.127  1.4934 -0.9831  1.1014
  415TIP3    H225441   2.683   4.789   7.026 -0.3596  0.4368  2.0923
  416TIP3   OH225442   0.394   6.109   0.262  0.2941 -0.2956 -0.6525
  416TIP3    H125443   0.328   6.077   0.201  0.7470 -2.0806 -0.2455
  416TIP3    H225444   0.477   6.071   0.231  0.5276 -1.2864  1.0530
  417TIP3   OH225445   2.612   1.099   7.826  0.7686  0.7960  0.6259
  417TIP3    H125446   2.572   1.094   7.913  0.2409 -0.5999  0.3193
  417TIP3    H225447   2.580   1.182   7.790  2.1204  2.0998  2.2795
  418TIP3   OH225448   2.172   1.789   2.896  0.1386  0.0739 -0.7891
  418TIP3    H125449   2.095   1.733   2.901  0.0006  0.3048 -0.2001
  418TIP3    H225450   2.217   1.775   2.980  0.3975  0.4189 -0.8691
  419TIP3   OH225451   1.001   1.873   3.032 -0.1946  0.1037 -0.1193
  419TIP3    H125452   1.023   1.813   2.960 -0.9438 -1.8992  1.2201
  419TIP3    H225453   0.938   1.934   2.994 -0.2341 -0.6266 -1.2861
  420TIP3   OH225454   3.942   0.440   7.609 -0.0173 -0.0444  0.2637
  420TIP3    H125455   3.871   0.483   7.562  1.3924  0.3749 -1.6313
  420TIP3    H225456   3.938   0.349   7.578  1.1162  0.3057 -1.0162
  421TIP3   OH225457   0.146   3.040   8.493  0.1310 -0.0179  0.1539
  421TIP3    H125458   0.226   3.083   8.521  0.7089 -0.0009 -1.3988
  421TIP3    H225459   0.159   2.948   8.516  0.5851 -0.0095 -0.0604
  422TIP3   OH225460   2.843   2.976   0.844 -0.2323 -0.1780 -0.3375
  422TIP3    H125461   2.897   2.951   0.770  0.1516  0.2933 -0.2183
  422TIP3    H225462   2.903   2.980   0.918 -0.6209 -0.7025  0.0230
  423TIP3   OH225463   3.470   2.130   8.449 -1.2245  0.0761  0.4154
  423TIP3    H125464   3.407   2.138   8.521  0.1525  0.9761  1.5844
  423TIP3    H225465   3.510   2.217   8.443 -0.3796 -0.3648 -0.5738
  424TIP3   OH225466   4.730   1.486   2.505  0.4566  0.2754  0.4296
  424TIP3    H125467   4.816   1.448   2.525  0.2838 -0.2671  0.1605
  424TIP3    H225468   4.688   1.495   2.590  0.3362 -0.5432  0.4710
  425TIP3   OH225469   7.028   7.237   8.377 -0.0560  0.0718  0.0861
  425TIP3    H125470   7.068   7.156   8.347  0.1329  0.0339  0.4281
  425TIP3    H225471   6.955   7.252   8.317  0.1905 -0.1041 -0.2595
  426TIP3   OH225472   7.632   3.375   1.839 -0.0364 -0.8324 -1.0008
  426TIP3    H125473   7.682   3.341   1.765  2.0421  0.0802 -0.0856
  426TIP3    H225474   7.676   3.457   1.862 -0.3739 -1.2827  1.4929
  427TIP3   OH225475   6.386   5.456   8.399 -0.2273  0.0550  0.3816
  427TIP3    H125476   6.321   5.399   8.358 -0.6523  0.9779 -0.2543
  427TIP3    H225477   6.451   5.396   8.436 -1.5475 -0.8952  1.2328
  428TIP3   OH225478   0.327   7.042   8.083  0.3771 -0.4163  0.0207
  428TIP3    H125479   0.406   7.049   8.030 -0.2428 -0.9192 -1.0253
  428TIP3    H225480   0.287   7.129   8.078 -0.3723 -0.8016 -1.5441
  429TIP3   OH225481   6.510   7.561   1.917 -0.2484 -0.1464  0.3284
  429TIP3    H125482   6.551   7.508   1.985 -0.8704  0.3653  1.1099
  429TIP3    H225483   6.580   7.577   1.854 -0.5206 -3.7588 -1.1214
  430TIP3   OH225484   2.658   5.556   7.503 -0.1958 -0.2760 -0.2357
  430TIP3    H125485   2.581   5.611   7.515 -0.9961 -1.4999  0.4364
  430TIP3    H225486   2.657   5.532   7.411 -1.4141 -1.3939  0.0448
  431TIP3   OH225487   4.393   1.830   2.335 -0.7364  0.5942 -0.6395
  431TIP3    H125488   4.379   1.776   2.257  0.9947 -0.5335 -0.2333
  431TIP3    H225489   4.308   1.832   2.379 -1.3891  0.0794 -1.8323
  432TIP3   OH225490   0.463   4.671   2.801  0.0886  0.0317  0.6024
  432TIP3    H125491   0.485   4.661   2.893 -0.4110  2.0210  0.9683
  432TIP3    H225492   0.415   4.754   2.795 -1.5293 -0.9240 -1.1674
  433TIP3   OH225493   1.871   1.802   9.426 -0.4838 -0.4511  0.1863
  433TIP3    H125494   1.865   1.831   9.335 -1.8890 -1.4150 -0.0668
  433TIP3    H225495   1.793   1.838   9.468 -0.5687 -1.1425  0.6525
  434TIP3   OH225496   1.845   5.346   0.534 -0.4844  0.0662  0.1692
  434TIP3    H125497   1.895   5.426   0.552  1.1978 -0.5560 -1.3669
  434TIP3    H225498   1.912   5.278   0.528 -1.6679 -1.0530 -0.6882
  435TIP3   OH225499   1.812   7.466   7.810 -0.0410 -0.0692  0.0756
  435TIP3    H125500   1.752   7.452   7.737 -3.0640  0.6390  2.2182
  435TIP3    H225501   1.888   7.411   7.790 -3.1957 -4.6312 -0.8032
  436TIP3   OH225502   2.565   0.357   9.488  0.1268 -0.2201 -0.1233
  436TIP3    H125503   2.555   0.433   9.430 -0.4983  0.3706  0.7249
  436TIP3    H225504   2.651   0.370   9.529 -0.7488  1.0384  1.3915
  437TIP3   OH225505   3.843   0.214   0.563 -0.0103  0.2823 -0.1623
  437TIP3    H125506   3.790   0.148   0.519  1.1738 -0.8729  0.0918
  437TIP3    H225507   3.886   0.262   0.492 -0.2024  0.2110 -0.3282
  438TIP3   OH225508   3.777   1.062   2.088 -0.5171  0.6663  0.0490
  438TIP3    H125509   3.808   1.061   1.998  1.9911  0.0757  0.8364
  438TIP3    H225510   3.715   1.135   2.091  0.4254  1.6211 -1.8115
  439TIP3   OH225511   5.951   2.650   7.406  0.8680 -0.0238 -0.0324
  439TIP3    H125512   5.997   2.718   7.356 -1.5172  1.0920 -0.8493
  439TIP3    H225513   5.946   2.684   7.495 -0.6110  1.0995 -0.5088
  440TIP3   OH225514   2.476   7.439   1.381  0.4466 -0.3435 -0.1044
  440TIP3    H125515   2.492   7.443   1.287  1.5882  0.0027  0.0830
  440TIP3    H225516   2.563   7.438   1.420  0.0472 -2.6993  0.8930
  441TIP3   OH225517   1.753   2.727   9.991  0.0225 -0.7619  0.0178
  441TIP3    H125518   1.695   2.740  10.066 -0.9259  1.1971 -0.9722
  441TIP3    H225519   1.709   2.660   9.938 -0.2943 -0.7693  0.2872
  442TIP3   OH225520   1.348   6.192   1.258  0.1759 -0.2301 -0.0543
  442TIP3    H125521   1.304   6.264   1.304 -0.0479 -1.0113  0.9902
  442TIP3    H225522   1.310   6.193   1.170  1.1898  1.8196 -0.5514
  443TIP3   OH225523   4.009   7.626   7.350 -0.3170  0.4794  0.2729
  443TIP3    H125524   4.029   7.584   7.434  3.7549 -0.5030 -0.9740
  443TIP3    H225525   4.003   7.554   7.288  0.2109  1.3357 -0.8053
  444TIP3   OH225526   5.446   3.479   7.986 -0.0822 -0.0231  0.7620
  444TIP3    H125527   5.393   3.413   8.031 -0.3106 -0.1926  0.2503
  444TIP3    H225528   5.390   3.510   7.915  0.3509  0.1043  0.4759
  445TIP3   OH225529   4.158   7.498   8.932 -0.1767  0.4641  0.8875
  445TIP3    H125530   4.220   7.469   8.865 -0.5862 -0.5108  0.9102
  445TIP3    H225531   4.112   7.571   8.891 -0.8819 -0.5354 -0.1743
  446TIP3   OH225532   2.417   5.020   1.240 -0.0762 -0.1749  0.1667
  446TIP3    H125533   2.354   5.092   1.246  0.9835  0.8410 -0.4039
  446TIP3    H225534   2.459   5.032   1.155  3.5192  1.5044  1.9864
  447TIP3   OH225535   0.662   5.401   8.557  0.1078 -0.1639  0.1225
  447TIP3    H125536   0.683   5.310   8.579  1.4057  0.3413  1.1330
  447TIP3    H225537   0.747   5.445   8.554 -0.5584  1.2233  0.6469
  448TIP3   OH225538   5.627   2.912   1.169  0.4263 -0.4984 -0.2201
  448TIP3    H125539   5.568   2.977   1.130  2.3358  0.6966 -1.3478
  448TIP3    H225540   5.714   2.949   1.154  1.4373 -1.7129  2.2057
  449TIP3   OH225541   3.379   1.772   7.990  0.5720 -0.0150 -0.5623
  449TIP3    H125542   3.402   1.823   8.068 -0.7150  0.5218 -0.5192
  449TIP3    H225543   3.438   1.697   7.992 -0.0400 -0.4826  1.4153
  450TIP3   OH225544   1.340   0.568   7.644  0.0928  0.2421 -0.2395
  450TIP3    H125545   1.418   0.596   7.692  0.1703 -1.0016  0.4107
  450TIP3    H225546   1.267   0.614   7.686  0.3746  0.6473 -0.1962
  451TIP3   OH225547   5.005   3.785   7.008  0.0978 -0.0147 -0.0662
  451TIP3    H125548   4.939   3.738   7.059  0.8457 -1.0438 -0.0175
  451TIP3    H225549   5.086   3.735   7.020  1.1374  1.7316  0.6257
  452TIP3   OH225550   1.477   5.465   0.688 -0.4925  0.1331 -0.2239
  452TIP3    H125551   1.501   5.420   0.607  0.4943 -0.2689  0.2735
  452TIP3    H225552   1.486   5.558   0.667 -1.2911  0.0797 -0.8769
  453TIP3   OH225553   6.322   1.411   8.580 -0.2415 -0.1422 -0.1629
  453TIP3    H125554   6.389   1.391   8.646  0.0572  2.7838  0.5615
  453TIP3    H225555   6.248   1.356   8.604  0.8476 -1.1969  0.8961
  454TIP3   OH225556   2.232   2.945   7.506 -0.0132 -0.9209  0.2443
  454TIP3    H125557   2.141   2.921   7.485  0.1980 -1.6243  0.1183
  454TIP3    H225558   2.253   2.893   7.583 -0.3671  0.7292  1.5049
  455TIP3   OH225559   0.912   2.394   8.093 -0.3448 -0.0247 -0.0350
  455TIP3    H125560   0.983   2.332   8.110  0.6018  0.9930 -0.2160
  455TIP3    H225561   0.833   2.340   8.095  0.4699 -1.2662 -0.3525
  456TIP3   OH225562   7.041   1.878   1.584  0.1584  0.1587  0.3260
  456TIP3    H125563   7.131   1.854   1.605 -0.2043  0.7048  2.8727
  456TIP3    H225564   6.990   1.798   1.599  0.1544 -0.0569 -0.7751
  457TIP3   OH225565   3.227   6.684   0.282  0.5365 -0.1232 -0.8843
  457TIP3    H125566   3.319   6.665   0.267  0.3801 -1.0470 -0.7242
  457TIP3    H225567   3.220   6.698   0.376  0.6266  0.6395 -0.9836
  458TIP3   OH225568   2.337   0.156   1.147  0.7077  0.2279  0.0617
  458TIP3    H125569   2.423   0.192   1.169  0.3767  0.5070  0.9240
  458TIP3    H225570   2.310   0.204   1.069  0.1204  2.1406  1.3888
  459TIP3   OH225571   0.411   6.426   9.747  0.5804 -0.3697 -0.1163
  459TIP3    H125572   0.411   6.445   9.653 -1.1874 -3.8472 -0.9757
  459TIP3    H225573   0.319   6.432   9.773  0.8053 -1.2069  0.9506
  460TIP3   OH225574   3.045   6.270   9.290  0.0582 -0.7605 -0.4044
  460TIP3    H125575   2.980   6.307   9.230  0.0334 -0.2782 -0.0823
  460TIP3    H225576   3.043   6.176   9.272  1.0039 -0.5087 -2.1408
  461TIP3   OH225577   0.612   2.859   7.738  0.1913 -0.0958 -0.3586
  461TIP3    H125578   0.652   2.905   7.664  0.4434 -0.7460 -0.6346
  461TIP3    H225579   0.600   2.927   7.805  0.6118  0.3548 -0.7292
  462TIP3   OH225580   6.737   3.924   1.428 -0.1463  0.4333 -0.0734
  462TIP3    H125581   6.667   3.926   1.362 -0.8918 -1.3803  0.5707
  462TIP3    H225582   6.791   3.849   1.402  0.7203  0.9445  0.2455
  463TIP3   OH225583   4.893   5.709   0.128  0.0327  0.4812  0.1190
  463TIP3    H125584   4.804   5.741   0.140  0.0290  1.2247 -1.5308
  463TIP3    H225585   4.945   5.757   0.191 -0.5904  0.7810  0.4131
  464TIP3   OH225586   5.877   5.060   6.973 -0.1825  0.0926 -0.0550
  464TIP3    H125587   5.826   4.990   7.014  1.4064 -2.1083 -1.5680
  464TIP3    H225588   5.965   5.024   6.965  0.7701  2.3861 -0.7491
  465TIP3   OH225589   0.639   4.061   1.395 -0.4254  0.4445  0.6856
  465TIP3    H125590   0.589   4.096   1.470 -0.8769 -0.0028  0.6024
  465TIP3    H225591   0.677   3.979   1.428  1.2526  1.3581  1.1155
  466TIP3   OH225592   7.256   4.742   0.177  0.0433  0.1699 -0.0518
  466TIP3    H125593   7.216   4.690   0.107  0.4641 -0.5261  0.2070
  466TIP3    H225594   7.300   4.813   0.131  0.6402 -0.4938 -0.5464
  467TIP3   OH225595   0.432   4.386   9.750  0.1442 -0.3875 -0.1427
  467TIP3    H125596   0.516   4.415   9.786 -0.5438  0.4298  0.8946
  467TIP3    H225597   0.376   4.377   9.827 -1.2499  0.8998 -0.9611
  468TIP3   OH225598   4.013   6.760   1.900 -0.1596 -0.9533  0.4008
  468TIP3    H125599   3.977   6.841   1.936 -2.1578 -1.4156 -0.4305
  468TIP3    H225600   4.011   6.772   1.805 -0.0797 -1.8201  0.2779
  469TIP3   OH225601   1.420   0.159   8.282 -0.0080 -0.3773 -0.7514
  469TIP3    H125602   1.327   0.169   8.264  0.0274  0.9913 -0.2763
  469TIP3    H225603   1.453   0.248   8.289  1.0337 -0.8350  0.6426
  470TIP3   OH225604   1.308   2.817   2.174  0.2476  0.2922 -0.2018
  470TIP3    H125605   1.243   2.757   2.212  0.7684  0.9562  1.8806
  470TIP3    H225606   1.392   2.777   2.193  0.5179  0.2320 -1.4605
  471TIP3   OH225607   1.737   2.328   8.207 -0.0400 -0.1915 -0.5276
  471TIP3    H125608   1.785   2.247   8.186 -1.1886 -0.9958 -0.1791
  471TIP3    H225609   1.691   2.307   8.288 -0.9325  0.5730 -0.8293
  472TIP3   OH225610   3.106   1.439   9.385  0.1521 -0.3633  0.0076
  472TIP3    H125611   3.099   1.530   9.358 -1.0713 -0.2968  0.4659
  472TIP3    H225612   3.184   1.406   9.342  0.3440  0.7755 -0.5321
  473TIP3   OH225613   4.887   3.916   8.149 -0.2212  0.2452 -0.6566
  473TIP3    H125614   4.871   3.878   8.235 -0.1349 -0.4313 -0.9263
  473TIP3    H225615   4.806   3.962   8.127  0.2106  1.5001  0.3171
  474TIP3   OH225616   0.233   2.179   0.231 -0.1328  0.2880 -0.2065
  474TIP3    H125617   0.291   2.239   0.277  0.9420  0.4399 -1.7050
  474TIP3    H225618   0.186   2.234   0.168 -1.0153 -0.0440  0.1391
  475TIP3   OH225619   2.564   7.575   9.238  0.3452  0.5264 -0.3816
  475TIP3    H125620   2.630   7.507   9.252 -0.0911  0.2326  0.2539
  475TIP3    H225621   2.489   7.529   9.201 -0.0327  0.6146  0.2589
  476TIP3   OH225622   6.687   5.222   1.692 -0.5641  0.5492 -0.0694
  476TIP3    H125623   6.646   5.302   1.725  0.5840  1.0650  0.1470
  476TIP3    H225624   6.652   5.212   1.603 -1.0940  1.0007  0.0831
  477TIP3   OH225625   6.163   1.732   1.563 -0.4695 -0.0566  0.2717
  477TIP3    H125626   6.212   1.782   1.498 -0.6948  0.4870  0.5200
  477TIP3    H225627   6.129   1.797   1.624 -1.5898 -0.4204  0.0508
  478TIP3   OH225628   6.236   0.687   1.096  0.1243 -0.0756  0.2426
  478TIP3    H125629   6.320   0.734   1.095 -0.8155  1.7438  1.2670
  478TIP3    H225630   6.260   0.595   1.107  2.0389  0.1662 -1.3814
  479TIP3   OH225631   0.300   1.445   0.770 -0.4884  0.8166 -0.4477
  479TIP3    H125632   0.314   1.380   0.702 -0.2883 -0.4222  0.7222
  479TIP3    H225633   0.283   1.393   0.849  0.7148  2.1614  0.7512
  480TIP3   OH225634   5.484   1.306   7.759 -0.4688 -0.3330  0.1346
  480TIP3    H125635   5.520   1.263   7.836  0.3659 -1.4039 -0.8061
  480TIP3    H225636   5.445   1.387   7.792  2.7410  0.9156  1.3000
  481TIP3   OH225637   2.991   4.870   7.907  0.6816  0.1646  0.4336
  481TIP3    H125638   2.935   4.922   7.849 -0.9351  0.0078  1.7785
  481TIP3    H225639   3.026   4.933   7.970 -0.9307 -0.2306  1.7976
  482TIP3   OH225640   6.230   2.524   6.723  0.0730  0.4315 -0.5667
  482TIP3    H125641   6.141   2.504   6.751  0.4551  0.0112  0.4102
  482TIP3    H225642   6.273   2.439   6.716  0.9671  0.6976  1.0397
  483TIP3   OH225643   7.393   5.168   9.449  0.0036 -0.2966 -0.0143
  483TIP3    H125644   7.314   5.206   9.412  0.3453  0.5680  0.1318
  483TIP3    H225645   7.453   5.158   9.375  1.2239  2.7644  0.4409
  484TIP3   OH225646   3.415   0.085   2.766  0.5579 -0.6572  0.4579
  484TIP3    H125647   3.412  -0.005   2.734 -0.6677 -0.0400 -1.3192
  484TIP3    H225648   3.472   0.131   2.705 -1.5349  0.4732 -0.7576
  485TIP3   OH225649   7.439   7.548   8.473 -0.0603  0.1261 -0.0049
  485TIP3    H125650   7.461   7.468   8.426  0.1655  0.0634  0.2059
  485TIP3    H225651   7.346   7.540   8.493 -1.0132  1.5754 -3.2260
  486TIP3   OH225652   1.129   4.828   3.554 -0.1547  0.1790 -0.0522
  486TIP3    H125653   1.132   4.810   3.460  1.6520 -1.7201  0.2923
  486TIP3    H225654   1.193   4.898   3.567 -0.1237  0.1765 -0.1888
  487TIP3   OH225655   5.833   5.718   9.013  0.1797  0.1097  0.1788
  487TIP3    H125656   5.858   5.804   9.048  0.7076  0.0128  0.0457
  487TIP3    H225657   5.897   5.657   9.051  1.2043  0.0964 -1.4614
  488TIP3   OH225658   0.662   7.360   9.778 -0.4919  0.1604 -0.4121
  488TIP3    H125659   0.702   7.406   9.852 -1.4549  2.3280 -1.1692
  488TIP3    H225660   0.736   7.327   9.728  0.2813  1.4723 -0.1803
  489TIP3   OH225661   6.517   1.968   7.519  0.5791  0.7060  0.3926
  489TIP3    H125662   6.424   1.981   7.503  0.3614 -0.5543  0.5058
  489TIP3    H225663   6.540   2.032   7.586 -0.8814 -0.8854  2.5277
  490TIP3   OH225664   3.058   1.834   0.693 -0.3404  0.4941 -0.4766
  490TIP3    H125665   3.148   1.865   0.701  0.5825 -1.8695 -0.7891
  490TIP3    H225666   3.049   1.770   0.764 -1.0421 -0.8132 -1.6914
  491TIP3   OH225667   7.685   4.783   0.430 -0.2963  0.0749  0.4757
  491TIP3    H125668   7.604   4.815   0.391  0.1875  0.9731  0.1964
  491TIP3    H225669   7.754   4.817   0.374  0.3579  0.5531  1.5426
  492TIP3   OH225670   6.547   0.630   7.456 -0.6287 -0.4115  0.0063
  492TIP3    H125671   6.557   0.704   7.396  0.2531 -0.9524 -0.5435
  492TIP3    H225672   6.566   0.553   7.402  0.2168 -0.9044  0.9717
  493TIP3   OH225673   3.229   7.622   9.813 -0.5857  0.0354  0.0610
  493TIP3    H125674   3.166   7.564   9.855  0.2412 -0.0621  1.2292
  493TIP3    H225675   3.196   7.634   9.724 -0.9721 -1.9659 -0.1230
  494TIP3   OH225676   6.017   1.339   0.222  0.4136  0.3595 -0.0542
  494TIP3    H125677   5.983   1.267   0.170  0.5367  0.0168  0.3312
  494TIP3    H225678   5.945   1.401   0.229  0.1199  0.0028  0.0948
  495TIP3   OH225679   2.723   5.487   7.816  0.2837 -0.8268  0.2100
  495TIP3    H125680   2.720   5.460   7.724  1.3576 -1.4442  0.3424
  495TIP3    H225681   2.799   5.545   7.821  0.0720 -0.5822  0.6584
  496TIP3   OH225682   1.234   5.270   2.461 -0.5097 -0.3031  0.1709
  496TIP3    H125683   1.187   5.188   2.474 -1.9940  0.4260 -0.3461
  496TIP3    H225684   1.287   5.256   2.383  0.8295 -1.4102  1.2283
  497TIP3   OH225685   0.722   7.067   8.405 -0.3488 -0.0843  0.7200
  497TIP3    H125686   0.712   7.007   8.331  0.7960 -0.1435  0.5971
  497TIP3    H225687   0.726   7.010   8.482  0.4562 -0.1609  0.6295
  498TIP3   OH225688   4.108   4.899   8.462 -0.7216  0.4028  0.8027
  498TIP3    H125689   4.049   4.887   8.536 -1.2620  0.6715  0.4149
  498TIP3    H225690   4.172   4.828   8.471 -2.3934 -1.2769 -0.0346
  499TIP3   OH225691   3.478   3.618   9.180 -0.6752 -0.3725  0.0252
  499TIP3    H125692   3.387   3.603   9.203 -1.4737 -1.7663 -3.3743
  499TIP3    H225693   3.484   3.711   9.160 -0.2849  0.5642  3.8020
  500TIP3   OH225694   1.897   0.308   0.146  0.3234 -0.3017  0.1348
  500TIP3    H125695   1.908   0.401   0.164  0.4882 -0.5096  1.1872
  500TIP3    H225696   1.986   0.276   0.130  0.2662 -0.2804 -0.2349
  501TIP3   OH225697   4.895   6.404   9.034 -0.2384 -0.2251  0.4765
  501TIP3    H125698   4.866   6.420   9.123  1.0265  0.1208  0.8584
  501TIP3    H225699   4.921   6.312   9.033 -1.4087 -0.5651  0.1043
  502TIP3   OH225700   0.556   5.489   1.159 -0.4038 -0.2071 -0.0558
  502TIP3    H125701   0.582   5.401   1.187  0.8802 -0.4007 -1.7365
  502TIP3    H225702   0.585   5.546   1.230  0.5619 -0.9346  0.1567
  503TIP3   OH225703   3.753   2.303   2.855 -0.0406  0.2373 -0.3085
  503TIP3    H125704   3.760   2.266   2.943  2.9368  1.3110  0.0119
  503TIP3    H225705   3.672   2.354   2.857 -0.9727 -1.2118  1.1866
  504TIP3   OH225706   1.080   1.430   8.079  0.4184  0.1414  0.0990
  504TIP3    H125707   1.121   1.344   8.065  1.7917  0.8290 -0.2959
  504TIP3    H225708   1.130   1.489   8.023 -1.5086  0.9442 -0.8309
  505TIP3   OH225709   0.166   1.798   8.292  0.0500  0.0386 -0.2054
  505TIP3    H125710   0.243   1.753   8.258 -0.1519 -0.1817 -0.3750
  505TIP3    H225711   0.197   1.841   8.372  0.3051 -0.1890 -0.1810
  506TIP3   OH225712   4.682   6.783   9.228  0.4356  0.5037  0.0909
  506TIP3    H125713   4.753   6.792   9.164  0.4046  0.5329  0.0607
  506TIP3    H225714   4.602   6.792   9.176  0.3965 -0.3317  0.0032
  507TIP3   OH225715   2.285   0.664   0.893  0.4702 -0.6258 -0.0120
  507TIP3    H125716   2.222   0.675   0.822  1.0803 -0.6152 -0.5706
  507TIP3    H225717   2.253   0.719   0.964 -0.2750 -0.8138 -0.1986
  508TIP3   OH225718   0.025   7.183   1.315 -0.1576  0.0016  0.4157
  508TIP3    H125719  -0.034   7.150   1.382  0.1164  0.7715  1.0507
  508TIP3    H225720  -0.032   7.216   1.246 -0.4415 -0.5769  0.3672
  509TIP3   OH225721   3.708   4.885   8.832 -0.4529  0.2609  0.1327
  509TIP3    H125722   3.617   4.887   8.860 -1.2797  0.3578 -2.3485
  509TIP3    H225723   3.758   4.911   8.910 -2.6679  2.2396  0.9888
  510TIP3   OH225724   5.111   6.573   0.886 -0.4040 -0.3654  0.3433
  510TIP3    H125725   5.021   6.586   0.918 -0.7345 -0.3200 -0.5543
  510TIP3    H225726   5.133   6.656   0.845  0.1381 -0.3051  0.7519
  511TIP3   OH225727   7.008   1.201   8.245 -0.1378  0.3195 -0.1842
  511TIP3    H125728   7.088   1.225   8.197  0.4550 -0.9761  0.1198
  511TIP3    H225729   7.015   1.248   8.328  1.0979 -0.9793  0.4814
  512TIP3   OH225730   5.633   1.717   3.033 -0.1210  0.2908 -0.5117
  512TIP3    H125731   5.599   1.645   2.979  0.2186 -0.6793  0.5089
  512TIP3    H225732   5.728   1.711   3.022 -0.0004 -0.3460  0.6588
  513TIP3   OH225733   1.998   2.557   9.862  0.3331  0.2519  0.0628
  513TIP3    H125734   2.044   2.619   9.919 -0.5233 -0.0497  1.1258
  513TIP3    H225735   1.935   2.611   9.814 -0.8725  0.1735  1.4673
  514TIP3   OH225736   6.908   6.731   9.259 -0.4696  0.2601 -0.1935
  514TIP3    H125737   6.958   6.679   9.322 -0.3977 -0.2163 -0.6317
  514TIP3    H225738   6.817   6.722   9.286 -0.7781 -2.2431 -1.7126
  515TIP3   OH225739   1.087   7.641   0.625  0.0651  0.7616  0.1197
  515TIP3    H125740   1.155   7.671   0.685  0.4633 -1.0518  0.6488
  515TIP3    H225741   1.130   7.632   0.540 -0.3554  2.7536 -0.3593
  516TIP3   OH225742   4.512   1.712   7.432  0.0182  0.4596  0.1102
  516TIP3    H125743   4.429   1.702   7.480  0.2338 -0.0162  0.3971
  516TIP3    H225744   4.504   1.651   7.358  0.8765 -1.0822  1.2211
  517TIP3   OH225745   0.139   5.923   7.167 -0.0670  0.2950  0.3909
  517TIP3    H125746   0.104   5.840   7.199  0.5987 -0.2402 -0.2416
  517TIP3    H225747   0.204   5.899   7.101  1.1368  1.2593  1.1665
  518TIP3   OH225748   6.095   2.097   6.806 -0.3317 -0.2121  0.7602
  518TIP3    H125749   6.104   2.052   6.722 -0.1220 -0.4524  0.9100
  518TIP3    H225750   6.182   2.133   6.823 -0.6318  0.7182  0.3810
  519TIP3   OH225751   4.338   7.610   8.310  0.2197  0.2159  0.3974
  519TIP3    H125752   4.394   7.541   8.345 -0.3880 -0.6766 -0.3397
  519TIP3    H225753   4.391   7.652   8.242 -0.0280 -0.7052 -0.3831
  520TIP3   OH225754   3.440   2.528   0.749 -0.4839  0.1457  0.3230
  520TIP3    H125755   3.531   2.557   0.741  0.1863 -1.7157  0.6376
  520TIP3    H225756   3.423   2.529   0.844 -0.7988  0.5247  0.2618
  521TIP3   OH225757   6.750   5.665   0.110  0.5935  0.7527  0.8447
  521TIP3    H125758   6.807   5.600   0.151  1.0157  1.3265  1.1752
  521TIP3    H225759   6.677   5.676   0.171  1.2374  1.6312  1.4876
  522TIP3   OH225760   3.726   0.433  10.054 -0.2753  0.1572  0.3834
  522TIP3    H125761   3.694   0.349  10.087 -0.0926 -0.0284  0.0913
  522TIP3    H225762   3.649   0.490  10.056  0.0690  0.6390  2.6716
  523TIP3   OH225763   2.005   6.319   6.905  0.0084  0.4688 -0.1736
  523TIP3    H125764   2.029   6.393   6.849  1.4174  0.4394  0.3463
  523TIP3    H225765   2.086   6.269   6.914 -0.3725  0.0519  1.2410
  524TIP3   OH225766   3.877   6.084   8.562  0.5101  0.2104  0.0086
  524TIP3    H125767   3.943   6.113   8.625  0.3990 -0.7324  0.5714
  524TIP3    H225768   3.922   6.023   8.505  0.7177  1.3758 -1.1254
  525TIP3   OH225769   0.758   6.286   0.051  0.0100  0.4966 -0.1052
  525TIP3    H125770   0.774   6.257  -0.038  1.6407  1.7227 -0.2540
  525TIP3    H225771   0.706   6.216   0.091  2.0091 -1.6239 -1.0322
  526TIP3   OH225772   2.950   7.317   8.400 -0.6972 -0.2403 -0.1694
  526TIP3    H125773   2.933   7.401   8.442  1.7508  0.4373 -0.3912
  526TIP3    H225774   3.006   7.338   8.326 -0.7707 -1.9874 -0.7618
  527TIP3   OH225775   5.090   2.984   0.610 -0.2379  0.3571 -0.3540
  527TIP3    H125776   5.133   2.949   0.688 -1.8399 -0.3025  0.2720
  527TIP3    H225777   5.094   2.913   0.546 -2.8990 -0.8690  0.6947
  528TIP3   OH225778   2.444   2.836   9.809  0.2744 -0.0161 -0.6262
  528TIP3    H125779   2.537   2.826   9.786  0.0384  0.8236 -2.0077
  528TIP3    H225780   2.398   2.778   9.749 -0.0223 -2.0849  1.4174
  529TIP3   OH225781   2.718   2.048   3.158  0.1552 -0.2476  0.2148
  529TIP3    H125782   2.759   2.133   3.139 -0.0472 -0.6294 -2.1995
  529TIP3    H225783   2.756   1.988   3.094 -1.7846 -1.3473  0.0248
  530TIP3   OH225784   2.528   2.086   3.367  0.2232  0.4874  1.0262
  530TIP3    H125785   2.587   2.079   3.292 -1.1628 -0.4290 -0.0182
  530TIP3    H225786   2.507   1.995   3.390  0.5912  0.7439  2.5273
  531TIP3   OH225787   2.777   6.054   0.540  0.0352  0.6366  0.4190
  531TIP3    H125788   2.786   5.975   0.594  3.4868  0.6601  0.1416
  531TIP3    H225789   2.693   6.090   0.565 -1.1873 -2.5010  1.3955
  532TIP3   OH225790   7.412   3.409   6.840  0.0811 -0.2644 -0.6862
  532TIP3    H125791   7.374   3.325   6.866  0.2453  0.2533  1.3646
  532TIP3    H225792   7.497   3.411   6.884  0.2057  0.8626 -0.9551
  533TIP3   OH225793   1.793   7.386   0.533  0.0787  0.1373  0.2838
  533TIP3    H125794   1.727   7.347   0.475  0.3047  0.8123 -0.4487
  533TIP3    H225795   1.744   7.447   0.587 -0.1375 -0.5111  0.8411
  534TIP3   OH225796   4.197   0.107   2.592 -0.5531 -0.3324  0.0496
  534TIP3    H125797   4.194   0.153   2.676 -1.9544 -1.3389  0.5837
  534TIP3    H225798   4.282   0.132   2.555 -0.2288  0.7370  1.4061
  535TIP3   OH225799   0.661   4.450   9.909  0.4645  0.3886 -0.1984
  535TIP3    H125800   0.694   4.467   9.821 -2.4395  0.5687 -1.3779
  535TIP3    H225801   0.665   4.535   9.953  1.7758  0.3349 -0.1905
  536TIP3   OH225802   1.632   7.595   9.569 -0.3168  0.2545 -0.0268
  536TIP3    H125803   1.564   7.661   9.582 -0.0538  0.6860 -0.7646
  536TIP3    H225804   1.711   7.646   9.550 -0.3363 -0.2641 -1.6556
  537TIP3   OH225805   0.769   1.688   0.205  0.3062  0.2472  0.0849
  537TIP3    H125806   0.686   1.687   0.157  0.1062  1.0325  0.4016
  537TIP3    H225807   0.745   1.670   0.296  0.5935 -0.4351  0.0320
  538TIP3   OH225808   0.817   4.276   0.168  0.1215 -0.0365  0.2839
  538TIP3    H125809   0.774   4.352   0.207 -1.2723 -0.1988 -0.8980
  538TIP3    H225810   0.854   4.308   0.086 -1.7661 -0.9084 -0.9773
  539TIP3   OH225811   4.488   1.052   0.610  0.4076 -0.1494 -0.5739
  539TIP3    H125812   4.545   1.090   0.677 -1.0808  0.5647  0.3357
  539TIP3    H225813   4.433   1.125   0.581 -0.7913 -1.0505 -0.6325
  540TIP3   OH225814   1.483   0.366   2.150  0.2019 -0.0466  0.0351
  540TIP3    H125815   1.533   0.322   2.082 -0.7018  0.3956 -0.9492
  540TIP3    H225816   1.404   0.397   2.106 -0.9689 -0.7427  1.5365
  541TIP3   OH225817   4.076   6.468   8.500  0.2001 -0.0550  0.0343
  541TIP3    H125818   4.105   6.472   8.591 -0.3666 -0.3898  0.2338
  541TIP3    H225819   3.982   6.488   8.503  0.5239  1.8354 -0.6855
  542TIP3   OH225820   3.188   5.266   8.392 -0.7426  0.3895 -0.1995
  542TIP3    H125821   3.214   5.303   8.307 -1.9081  1.1928 -0.2357
  542TIP3    H225822   3.230   5.324   8.457 -0.2886  0.0921 -0.2217
  543TIP3   OH225823   6.277   6.305   8.036 -0.0074 -0.2039 -0.1830
  543TIP3    H125824   6.191   6.303   8.078  0.0735  0.2011  0.0029
  543TIP3    H225825   6.300   6.397   8.031 -0.4076 -0.1620 -1.9304
  544TIP3   OH225826   0.034   6.007   0.188  0.0400  0.1486 -0.2927
  544TIP3    H125827   0.032   6.088   0.238  1.4169 -0.1501  0.3015
  544TIP3    H225828   0.119   6.008   0.144  0.3924 -1.2767  0.2898
  545TIP3   OH225829   2.886   0.891   0.718  0.7762 -0.2524 -0.5979
  545TIP3    H125830   2.917   0.977   0.748 -0.8378  0.3357 -0.4854
  545TIP3    H225831   2.881   0.898   0.623 -0.7262  0.3318 -0.5149
  546TIP3   OH225832   2.331   0.677   2.464 -0.1228  0.7210 -0.1950
  546TIP3    H125833   2.382   0.757   2.449 -0.6916  1.1179 -0.0494
  546TIP3    H225834   2.397   0.610   2.481  0.3415  1.4160  0.8861
  547TIP3   OH225835   5.358   2.985   0.357 -0.0825 -0.6467  0.1771
  547TIP3    H125836   5.410   2.987   0.437  1.0890  0.3858 -0.5665
  547TIP3    H225837   5.413   3.029   0.292 -1.7014  0.0691 -0.7709
  548TIP3   OH225838   6.580   7.222   0.675  0.3597 -0.0828  0.5707
  548TIP3    H125839   6.571   7.250   0.584  0.1285 -1.0185  0.2886
  548TIP3    H225840   6.490   7.216   0.707  0.3572 -1.1367  0.4066
  549TIP3   OH225841   4.112   7.106   7.629  0.1288  0.2007  0.3340
  549TIP3    H125842   4.144   7.044   7.694 -1.8353 -0.2719  0.9172
  549TIP3    H225843   4.023   7.125   7.656 -0.5217  0.5344 -1.8505
  550TIP3   OH225844   1.732   2.423   2.463  0.1139 -0.4695  0.2432
  550TIP3    H125845   1.819   2.424   2.503 -0.3365  1.7322  1.3022
  550TIP3    H225846   1.672   2.412   2.537 -0.5785 -1.0918 -0.3901
  551TIP3   OH225847   7.323   3.173   9.360  0.4492 -0.3738 -0.7569
  551TIP3    H125848   7.392   3.219   9.311  0.1439  0.7507 -0.1521
  551TIP3    H225849   7.304   3.230   9.434 -0.3858 -1.1938 -0.3262
  552TIP3   OH225850   1.489   4.153   9.766 -0.2253  0.5057 -0.0374
  552TIP3    H125851   1.466   4.091   9.835  1.9652 -0.0995  0.2106
  552TIP3    H225852   1.428   4.133   9.695 -0.8601 -0.5533  0.7733
  553TIP3   OH225853   3.896   3.251   7.015 -0.1541  0.9307 -0.3608
  553TIP3    H125854   3.854   3.273   6.932 -2.2821  0.3596  0.4743
  553TIP3    H225855   3.884   3.156   7.024  1.1458  0.7889  0.0350
  554TIP3   OH225856   0.579   0.527   6.749  0.3252 -0.2091 -0.5119
  554TIP3    H125857   0.580   0.447   6.801 -0.1646 -1.5108 -2.3699
  554TIP3    H225858   0.650   0.580   6.785 -0.3580 -0.7740  1.7902
  555TIP3   OH225859   6.252   0.135  10.049  0.5018 -0.4020 -0.0303
  555TIP3    H125860   6.253   0.098  10.138  1.9325  1.4829  0.7998
  555TIP3    H225861   6.201   0.216  10.058 -2.0014 -1.6702 -1.6679
  556TIP3   OH225862   0.532   4.039   8.934 -0.4313  0.1035  0.3027
  556TIP3    H125863   0.608   4.005   8.887 -1.1209  0.5693 -1.2246
  556TIP3    H225864   0.496   3.963   8.980  1.1116 -0.0495  1.3208
  557TIP3   OH225865   6.723   6.488   2.584  0.4827  0.4771 -0.5013
  557TIP3    H125866   6.686   6.574   2.564 -0.7153 -0.3692 -2.2366
  557TIP3    H225867   6.817   6.502   2.583  0.2987  1.9331  0.0951
  558TIP3   OH225868   6.720   4.985   0.912 -0.6548 -0.4804  0.1133
  558TIP3    H125869   6.657   5.050   0.940  0.4991  1.3694 -1.3428
  558TIP3    H225870   6.667   4.914   0.874 -1.8648  0.8222 -0.6991
  559TIP3   OH225871   0.394   5.740   3.334  0.2221  0.4550 -0.0217
  559TIP3    H125872   0.313   5.765   3.290  0.8381 -0.2857 -1.6753
  559TIP3    H225873   0.391   5.644   3.334 -0.7717  0.3594  3.6093
  560TIP3   OH225874   3.864   3.835   8.279 -0.0608 -0.4527  0.2400
  560TIP3    H125875   3.871   3.785   8.360 -1.2263 -0.9459  0.0711
  560TIP3    H225876   3.804   3.906   8.300  0.4229  0.0033  0.0769
  561TIP3   OH225877   7.347   0.391   0.751  0.5575  0.0997  0.3825
  561TIP3    H125878   7.303   0.352   0.827 -2.5956  1.7405 -0.3873
  561TIP3    H225879   7.325   0.484   0.757  1.4614  0.4977 -1.7443
  562TIP3   OH225880   1.865   7.147   2.787 -0.5314 -0.5340  0.3552
  562TIP3    H125881   1.821   7.219   2.832  0.7202  0.7198 -0.3300
  562TIP3    H225882   1.949   7.138   2.833 -0.2939 -0.9306 -0.1483
  563TIP3   OH225883   7.363   7.638   0.591 -0.2926  0.4538  0.2882
  563TIP3    H125884   7.415   7.669   0.665  1.4007  2.0577 -1.4362
  563TIP3    H225885   7.398   7.552   0.571  0.6844  0.8752  0.1127
  564TIP3   OH225886   6.778   2.012   0.876 -0.1645 -0.0843 -0.1692
  564TIP3    H125887   6.865   2.037   0.907  0.6324 -1.7293 -0.9677
  564TIP3    H225888   6.757   2.077   0.809  0.9376 -0.2805 -0.7282
  565TIP3   OH225889   6.899   3.214   7.073 -0.8034 -0.0047 -0.1113
  565TIP3    H125890   6.993   3.197   7.077 -0.9291 -0.4931  1.9919
  565TIP3    H225891   6.868   3.163   6.998  0.4260 -0.7692 -0.1181
  566TIP3   OH225892   3.527   5.505   9.670  0.3209  0.2965 -0.1601
  566TIP3    H125893   3.606   5.452   9.659  0.6893  0.8372 -0.1609
  566TIP3    H225894   3.521   5.557   9.589  0.4609  0.9027  0.2120
  567TIP3   OH225895   6.596   3.084   7.807 -0.6496 -0.2877 -0.2066
  567TIP3    H125896   6.645   3.063   7.886  1.0623  0.7751 -0.9272
  567TIP3    H225897   6.540   3.157   7.832  0.5300  0.6337 -0.1618
  568TIP3   OH225898   7.056   4.111   2.371 -0.0096  0.0281 -0.2396
  568TIP3    H125899   6.968   4.148   2.366  0.4050  1.0548 -0.1304
  568TIP3    H225900   7.041   4.018   2.387 -1.0783  0.1155 -0.6080
  569TIP3   OH225901   0.264   5.991   0.016 -0.0067  0.2005 -0.4005
  569TIP3    H125902   0.248   6.065  -0.043 -0.8429 -0.5775 -1.1778
  569TIP3    H225903   0.305   5.925  -0.040 -0.8765 -0.5748 -0.1384
  570TIP3   OH225904   0.481   7.015   1.310  0.2412  0.2622 -0.5437
  570TIP3    H125905   0.404   7.011   1.366  0.1072 -1.7425 -0.7923
  570TIP3    H225906   0.488   7.107   1.285 -2.2769  0.4561 -0.8141
  571TIP3   OH225907   0.852   2.919   9.150 -1.2190 -0.0351 -0.2720
  571TIP3    H125908   0.758   2.933   9.165 -1.2995 -0.9569  0.1381
  571TIP3    H225909   0.862   2.823   9.147  0.0413 -0.0109  1.8430
  572TIP3   OH225910   2.578   2.426   0.389 -0.0472 -0.4049  0.0570
  572TIP3    H125911   2.507   2.362   0.395  1.6053 -2.2568  0.6420
  572TIP3    H225912   2.603   2.442   0.480  0.5612 -0.0898 -0.1626
  573TIP3   OH225913   6.520   5.366   8.714 -0.1944  0.4756 -0.3329
  573TIP3    H125914   6.525   5.338   8.623 -1.5284 -1.2928  0.0872
  573TIP3    H225915   6.427   5.374   8.732  0.0027 -0.0783  1.0940
  574TIP3   OH225916   7.384   4.880   9.235 -0.0259 -0.1637  0.0432
  574TIP3    H125917   7.406   4.823   9.309  0.9939 -1.1438 -0.9776
  574TIP3    H225918   7.337   4.823   9.174  1.3951 -0.0755 -1.1926
  575TIP3   OH225919   2.782   2.969   0.382  0.9258  0.7366  0.1679
  575TIP3    H125920   2.772   2.906   0.454  1.9504  0.7677  0.3501
  575TIP3    H225921   2.869   2.952   0.347  0.4539  0.7590 -1.0531
  576TIP3   OH225922   2.061   6.587   9.087 -0.2592  0.8630 -0.1225
  576TIP3    H125923   2.133   6.526   9.078  0.6503  2.0421 -1.3537
  576TIP3    H225924   2.042   6.590   9.181  1.2612  0.4875  0.2093
  577TIP3   OH225925   6.552   5.494   1.726 -0.1620  0.1765 -0.1357
  577TIP3    H125926   6.583   5.515   1.814 -0.6510  1.1208 -0.1723
  577TIP3    H225927   6.517   5.577   1.693  1.8142  0.3757 -1.9920
  578TIP3   OH225928   6.098   1.277   8.630 -0.3670  0.3759  0.1656
  578TIP3    H125929   6.106   1.216   8.558  0.9568  1.4579 -0.6486
  578TIP3    H225930   6.013   1.320   8.616 -0.0958  0.6205 -0.7967
  579TIP3   OH225931   0.786   7.162   9.115 -0.3675 -0.6855  0.0425
  579TIP3    H125932   0.824   7.139   9.200  0.2023  1.6532  0.4959
  579TIP3    H225933   0.704   7.205   9.136 -1.2746 -1.9826 -0.7402
  580TIP3   OH225934   1.834   6.393   0.236 -0.3088  0.3916 -0.3537
  580TIP3    H125935   1.906   6.453   0.258  0.4045 -0.9278  1.0512
  580TIP3    H225936   1.758   6.450   0.223  0.5065  1.6432  0.2469
  581TIP3   OH225937   2.940   1.878   1.015  0.3833  0.4680  0.4197
  581TIP3    H125938   2.864   1.834   1.051 -1.0979  1.2723 -1.5378
  581TIP3    H225939   2.995   1.808   0.980  1.0280 -0.1821  2.5648
  582TIP3   OH225940   2.473   3.402   0.860 -0.6351 -0.2399 -0.0639
  582TIP3    H125941   2.472   3.336   0.791  1.1828 -2.4896  1.9123
  582TIP3    H225942   2.495   3.354   0.940 -1.8332  2.3614  1.9981
  583TIP3   OH225943   3.041   6.630   2.034  0.0516 -0.4396  0.2309
  583TIP3    H125944   3.030   6.653   1.942 -0.7338  3.3883  1.1105
  583TIP3    H225945   2.952   6.634   2.070  0.6070  0.5634  1.5753
  584TIP3   OH225946   1.200   7.128   0.735 -0.3466  0.3140 -0.2517
  584TIP3    H125947   1.251   7.083   0.667  0.1011 -0.7847  0.7701
  584TIP3    H225948   1.111   7.129   0.701  0.0993  0.9959 -1.4439
  585TIP3   OH225949   2.503   6.958   1.874 -0.2044  0.0432  0.1174
  585TIP3    H125950   2.418   6.946   1.916 -1.1255 -1.3027 -2.0051
  585TIP3    H225951   2.483   6.989   1.786  1.4344 -1.1533 -0.7422
  586TIP3   OH225952   0.799   2.009   0.945  0.0594  0.1958  0.0344
  586TIP3    H125953   0.735   2.079   0.931  0.3772  0.2583 -1.2526
  586TIP3    H225954   0.769   1.938   0.887  1.8100  0.6861 -1.5446
  587TIP3   OH225955   6.215   1.420   0.665 -0.2515 -0.5632  0.2611
  587TIP3    H125956   6.229   1.402   0.758 -1.4907 -1.9756  0.2093
  587TIP3    H225957   6.207   1.334   0.624 -3.8534 -0.0292 -0.4702
  588TIP3   OH225958   4.043   3.465   9.062  0.0114  0.2982  0.1690
  588TIP3    H125959   4.076   3.511   9.138  0.7507  1.2810 -0.7160
  588TIP3    H225960   4.038   3.373   9.089  0.9140  0.5311  1.1667
  589TIP3   OH225961   2.864   7.542   9.201  0.0808 -0.1657 -0.4714
  589TIP3    H125962   2.932   7.608   9.209 -0.5062  0.5325 -1.1076
  589TIP3    H225963   2.889   7.474   9.263  1.1539  0.2521 -0.4257
  590TIP3   OH225964   1.920   5.859   7.645  0.2215 -0.2935 -0.0191
  590TIP3    H125965   1.944   5.926   7.709 -2.4224  0.7000  0.0713
  590TIP3    H225966   1.991   5.795   7.649  1.4829  1.1145  1.9070
  591TIP3   OH225967   5.964   5.283   9.296  0.2984 -0.0012  0.9627
  591TIP3    H125968   5.897   5.271   9.363  0.0714  0.5435  0.8391
  591TIP3    H225969   6.038   5.230   9.326 -0.6292 -1.6499  0.4585
  592TIP3   OH225970   6.397   1.579   7.516  0.4976  0.2445  0.0808
  592TIP3    H125971   6.445   1.517   7.571 -0.5772  0.0301  0.8124
  592TIP3    H225972   6.460   1.649   7.499  0.9781  0.1312  1.2778
  593TIP3   OH225973   1.928   2.118   8.203  0.0710  0.1725  0.1482
  593TIP3    H125974   1.983   2.157   8.270  0.3772 -1.6417  1.0085
  593TIP3    H225975   1.989   2.090   8.135  0.1431 -1.0215  0.6856
  594TIP3   OH225976   5.465   3.017   6.781 -0.0431 -0.3450  0.4081
  594TIP3    H125977   5.392   3.078   6.788 -0.5235 -0.6559 -1.4261
  594TIP3    H225978   5.425   2.933   6.757  0.9943 -0.1530 -2.2490
  595TIP3   OH225979   1.239   6.740   8.311  0.1603  0.2136 -0.4301
  595TIP3    H125980   1.274   6.652   8.302  1.4097  0.7424 -1.0926
  595TIP3    H225981   1.313   6.797   8.287 -0.1984  1.4689  1.2747
  596TIP3   OH225982   6.987   4.895   0.234 -0.9717  0.0944  0.3533
  596TIP3    H125983   7.079   4.866   0.236 -0.3346  1.9219 -0.3446
  596TIP3    H225984   6.945   4.845   0.303  0.9190  0.3629  1.7920
  597TIP3   OH225985   2.983   3.174   8.114  0.1649  0.3022 -0.0950
  597TIP3    H125986   2.984   3.198   8.207  2.6376  1.6830 -0.3972
  597TIP3    H225987   2.890   3.171   8.091 -0.4666  2.2855  1.8676
  598TIP3   OH225988   0.216   7.034   1.123 -0.0711  0.1157  0.3518
  598TIP3    H125989   0.282   7.056   1.189  0.6073 -0.7334 -0.0236
  598TIP3    H225990   0.181   7.119   1.095 -0.4984  0.4934  1.9042
  599TIP3   OH225991   2.210   5.696   2.307 -0.4241  0.2119  0.6228
  599TIP3    H125992   2.237   5.606   2.323 -2.1527  0.0003  2.6759
  599TIP3    H225993   2.124   5.689   2.267  0.1892  0.9739 -0.9323
  600TIP3   OH225994   7.203   1.016   2.271 -0.0952  0.0961 -0.0658
  600TIP3    H125995   7.110   1.034   2.265  0.2040  2.0976  0.5188
  600TIP3    H225996   7.245   1.090   2.227  1.2305 -0.4744  0.1776
  601TIP3   OH225997   4.083   6.329   9.263 -0.4725  0.4153 -0.5808
  601TIP3    H125998   4.088   6.243   9.221 -0.2958  0.4719 -0.6785
  601TIP3    H225999   3.992   6.356   9.251 -0.7016 -0.0559  0.0552
  602TIP3   OH226000   3.122   2.525   8.572 -0.1995  0.8759 -0.3259
  602TIP3    H126001   3.035   2.564   8.559 -0.1549  1.1688  0.2347
  602TIP3    H226002   3.150   2.557   8.657  0.3327  0.5327 -0.3688
  603TIP3   OH226003   5.191   6.772   8.754  0.2314 -0.7949 -0.0579
  603TIP3    H126004   5.174   6.678   8.764 -0.2450 -0.7897 -0.8169
  603TIP3    H226005   5.164   6.792   8.665 -1.9721  0.5525  0.8409
  604TIP3   OH226006   7.056   2.546   9.072  0.1342 -0.8725  0.0529
  604TIP3    H126007   7.052   2.641   9.066  1.9556 -0.7033  0.7547
  604TIP3    H226008   6.983   2.523   9.131 -0.7139  0.0015 -0.6244
  605TIP3   OH226009   1.126   0.979   0.095 -0.1309 -0.1026 -0.3073
  605TIP3    H126010   1.125   1.048   0.029  0.8476  2.8360  2.5192
  605TIP3    H226011   1.211   0.937   0.085  0.0255  0.3366 -0.8634
  606TIP3   OH226012   7.554   2.016   0.290  0.2913 -0.0168 -0.0415
  606TIP3    H126013   7.606   2.097   0.293  1.7047 -0.9021  1.8278
  606TIP3    H226014   7.563   1.985   0.201  2.9560 -0.0444  0.1531
  607TIP3   OH226015   2.136   5.414   6.799 -0.2225  0.2342 -0.0908
  607TIP3    H126016   2.093   5.362   6.732 -0.6874  0.6818 -0.1544
  607TIP3    H226017   2.177   5.486   6.752 -1.0535  0.8839  0.1362
  608TIP3   OH226018   3.885   2.747   1.181  0.0667  0.4950  0.4689
  608TIP3    H126019   3.805   2.798   1.193  0.0862  0.5411  0.4046
  608TIP3    H226020   3.855   2.657   1.175 -0.2733  0.7207 -2.3241
  609TIP3   OH226021   1.775   2.446   2.020  0.3012 -0.8102 -0.1951
  609TIP3    H126022   1.707   2.408   2.076 -0.6175 -0.1066 -0.7963
  609TIP3    H226023   1.844   2.380   2.017  0.1428 -1.0832  1.3388
  610TIP3   OH226024   0.544   1.921   8.224 -0.9073 -0.8739  0.4448
  610TIP3    H126025   0.563   1.946   8.133  1.7672 -1.2055  0.8344
  610TIP3    H226026   0.514   1.830   8.218  0.5822 -1.3556 -0.0257
  611TIP3   OH226027   1.431   5.560   1.426 -0.0973 -0.0742 -0.0585
  611TIP3    H126028   1.498   5.554   1.495 -1.2774  1.2133  1.2621
  611TIP3    H226029   1.362   5.501   1.455  0.1337 -0.8500 -1.0557
  612TIP3   OH226030   2.555   5.886   7.310 -0.2860 -0.6763  0.3492
  612TIP3    H126031   2.530   5.908   7.400 -2.4537 -0.3553 -0.2922
  612TIP3    H226032   2.616   5.956   7.285  0.6062 -0.9493  1.6434
  613TIP3   OH226033   2.481   0.723   7.715  0.3816  0.4159 -0.4742
  613TIP3    H126034   2.458   0.660   7.783 -0.8031 -1.0115 -2.0989
  613TIP3    H226035   2.572   0.747   7.734  0.4701 -0.8576  0.9086
  614TIP3   OH226036   0.227   6.882   0.689  0.3304  0.3151  0.5790
  614TIP3    H126037   0.220   6.803   0.636  0.0808  1.2847 -0.8873
  614TIP3    H226038   0.144   6.928   0.676 -0.2681  0.0059  2.8340
  615TIP3   OH226039   6.268   3.832   0.119  0.0746 -0.1410  0.1362
  615TIP3    H126040   6.305   3.891   0.053 -1.4609 -0.6784 -1.2661
  615TIP3    H226041   6.343   3.803   0.170  1.0094  2.2388  0.2359
  616TIP3   OH226042   3.332   5.397   8.892  0.0623  0.0291 -0.5971
  616TIP3    H126043   3.426   5.402   8.907 -0.0528 -0.4349  0.3214
  616TIP3    H226044   3.295   5.466   8.947 -0.3609 -1.6935  1.3955
  617TIP3   OH226045   2.927   0.254   8.023  0.5559 -0.2823  0.3112
  617TIP3    H126046   2.928   0.296   8.109 -3.1226 -0.1518  0.4473
  617TIP3    H226047   2.881   0.171   8.037  1.7753 -1.2607 -1.1675
  618TIP3   OH226048   1.638   2.681   0.295  0.1193 -0.9171 -0.1531
  618TIP3    H126049   1.640   2.751   0.359  0.2754 -0.8150 -0.2689
  618TIP3    H226050   1.623   2.601   0.346 -0.8477 -0.7122 -0.0939
  619TIP3   OH226051   1.834   1.613   0.160 -0.3108 -0.0764 -0.1396
  619TIP3    H126052   1.929   1.620   0.162 -0.2846 -0.4192 -0.1369
  619TIP3    H226053   1.807   1.672   0.090 -0.2374  1.4976  1.1130
  620TIP3   OH226054   7.439   5.395   8.778  0.5290 -0.1399 -0.2147
  620TIP3    H126055   7.525   5.425   8.805  0.3634  0.1424  0.0093
  620TIP3    H226056   7.380   5.423   8.848  0.0853  0.6791 -0.8933
  621TIP3   OH226057   6.542   2.946   8.482 -0.1624  0.5657 -0.2322
  621TIP3    H126058   6.534   3.001   8.560 -1.1796  0.4528 -0.2404
  621TIP3    H226059   6.558   3.007   8.410 -1.2179  0.8723 -0.2303
  622TIP3   OH226060   7.108   1.480   2.560 -0.0369  0.1999  0.2118
  622TIP3    H126061   7.103   1.385   2.549  0.9691  0.2172 -0.5827
  622TIP3    H226062   7.144   1.512   2.477  0.7615  1.1487  0.8951
  623TIP3   OH226063   2.312   0.189   1.708 -0.6076  0.3064 -0.1125
  623TIP3    H126064   2.370   0.135   1.654  2.7827  2.6513  0.8077
  623TIP3    H226065   2.251   0.228   1.646 -0.1839 -1.0223 -1.4283
  624TIP3   OH226066   1.568   7.082   1.605  0.0878 -0.3686  0.1797
  624TIP3    H126067   1.581   7.174   1.626  0.6533  0.1705 -2.2794
  624TIP3    H226068   1.488   7.057   1.652 -1.4265  2.0271 -0.9881
  625TIP3   OH226069   3.683   1.521   7.226 -0.1093  0.2180  0.0221
  625TIP3    H126070   3.720   1.560   7.146 -1.3705  1.9676  0.2401
  625TIP3    H226071   3.755   1.525   7.289  0.4502  0.1839 -0.5915
  626TIP3   OH226072   0.186   7.243   0.919 -0.3227  0.3039  0.2272
  626TIP3    H126073   0.097   7.277   0.910 -0.1587  0.3886 -1.5158
  626TIP3    H226074   0.182   7.156   0.879  0.6569  0.8465 -1.1052
  627TIP3   OH226075   0.940   0.262   2.265 -0.0504  0.1690 -0.1750
  627TIP3    H126076   0.971   0.176   2.238 -2.7442 -0.4455 -1.6898
  627TIP3    H226077   0.898   0.298   2.187 -2.2771  1.2355  1.3825
  628TIP3   OH226078   4.593   0.979   1.723 -0.4810 -0.3180  0.3061
  628TIP3    H126079   4.595   0.884   1.707  0.8657 -0.3868  0.7131
  628TIP3    H226080   4.677   0.997   1.764 -1.1417  0.9091  1.1628
  629TIP3   OH226081   6.818   7.475   0.521 -0.0214  0.0535  0.4261
  629TIP3    H126082   6.792   7.549   0.575 -2.1585 -0.9546  0.8810
  629TIP3    H226083   6.764   7.482   0.442 -0.0910 -0.8734  0.3703
  630TIP3   OH226084   1.301   3.390   9.765  0.1255 -0.5262  0.1508
  630TIP3    H126085   1.358   3.467   9.766 -0.9233  0.3122 -1.3692
  630TIP3    H226086   1.362   3.316   9.757  1.1233  0.1486  1.2076
  631TIP3   OH226087   1.196   3.317   8.943  0.7936 -0.8551 -0.6216
  631TIP3    H126088   1.179   3.238   8.994  1.9560 -0.1569  0.9396
  631TIP3    H226089   1.265   3.363   8.991 -1.9211  2.7265  0.3424
  632TIP3   OH226090   6.022   6.244   8.165 -0.5841 -0.0066 -0.2733
  632TIP3    H126091   6.045   6.229   8.257  0.9678  0.0593 -0.6358
  632TIP3    H226092   5.971   6.166   8.141  0.4343 -0.8426  0.1797
  633TIP3   OH226093   0.633   4.446   0.325  0.5204 -0.3276 -0.5480
  633TIP3    H126094   0.567   4.379   0.344  0.1721  0.4111  0.9870
  633TIP3    H226095   0.605   4.522   0.375  1.3100  0.7479 -1.7010
  634TIP3   OH226096   5.396   0.690   1.488  0.4970 -0.1687 -0.0368
  634TIP3    H126097   5.308   0.729   1.489  1.1268  1.3120 -0.3791
  634TIP3    H226098   5.440   0.730   1.563  1.2051 -0.1169 -0.4800
  635TIP3   OH226099   4.440   0.692   2.469  0.5302 -0.0339 -0.2539
  635TIP3    H126100   4.514   0.634   2.487  0.7254  0.0671 -0.7034
  635TIP3    H226101   4.471   0.778   2.498  0.3866 -0.0873  0.0556
  636TIP3   OH226102   5.044   4.891   9.507  0.0894  0.2364  0.4593
  636TIP3    H126103   5.077   4.972   9.545 -0.2238  0.6872 -0.2053
  636TIP3    H226104   5.091   4.883   9.424 -2.7759  1.9465 -1.5173
  637TIP3   OH226105   6.427   4.094   9.461 -0.1826  0.0226  0.2325
  637TIP3    H126106   6.402   4.003   9.478  1.4727 -0.2430  1.6275
  637TIP3    H226107   6.497   4.088   9.396  1.4165  0.0346  1.8471
  638TIP3   OH226108   5.076   5.258   0.196  0.2896  0.6321 -0.6933
  638TIP3    H126109   5.019   5.216   0.131 -0.3742  0.5104 -0.0482
  638TIP3    H226110   5.130   5.187   0.230 -0.1859  0.4597 -0.2739
  639TIP3   OH226111   6.744   2.992   8.947 -0.2112  0.3663  0.1295
  639TIP3    H126112   6.706   2.973   8.861  0.3988  0.4468 -0.1624
  639TIP3    H226113   6.720   3.083   8.964  1.2875  0.9875 -0.8383
  640TIP3   OH226114   3.734   2.718   1.703 -0.2166 -0.1425 -0.5880
  640TIP3    H126115   3.649   2.684   1.674 -0.7945 -0.1893  1.0446
  640TIP3    H226116   3.720   2.742   1.794  1.1730  1.1284 -0.6649
  641TIP3   OH226117   6.219   6.392   8.581  0.7934 -0.3246 -0.0240
  641TIP3    H126118   6.202   6.484   8.561  1.4608 -0.1279  0.2811
  641TIP3    H226119   6.312   6.381   8.563  0.3871 -1.3514 -1.5950
  642TIP3   OH226120   5.907   3.085   8.974  0.0647 -0.4587  0.0699
  642TIP3    H126121   5.890   3.122   8.887 -0.4974  2.5701  1.3702
  642TIP3    H226122   5.997   3.051   8.968  0.1803  0.0281 -1.5576
  643TIP3   OH226123   3.896   6.490   7.264  0.0442 -0.6869  0.0315
  643TIP3    H126124   3.920   6.436   7.189  0.6176 -0.8712  0.3354
  643TIP3    H226125   3.912   6.433   7.340 -0.8011 -0.6044  0.2871
  644TIP3   OH226126   3.582   5.295   9.150  0.4970 -0.0034 -0.0671
  644TIP3    H126127   3.491   5.270   9.168  0.8630 -1.5328 -0.2555
  644TIP3    H226128   3.578   5.341   9.066 -0.1215  0.0987  0.0106
  645TIP3   OH226129   6.068   3.160   6.958  0.1175  0.0190  0.5812
  645TIP3    H126130   6.147   3.133   6.911  0.7411 -0.5279  1.8880
  645TIP3    H226131   6.001   3.099   6.928  0.4522 -0.2078  0.2798
  646TIP3   OH226132   4.168   0.970   8.544  0.0989  0.0636 -0.4204
  646TIP3    H126133   4.137   1.046   8.494 -0.0745 -0.9806 -1.9420
  646TIP3    H226134   4.196   0.907   8.478  0.2779 -1.2007  0.8189
  647TIP3   OH226135   0.342   6.104   1.682 -0.2726  0.3512 -0.2695
  647TIP3    H126136   0.299   6.027   1.719 -2.5312  1.8680  0.4840
  647TIP3    H226137   0.279   6.138   1.618  1.8609  0.0532 -2.7080
  648TIP3   OH226138   6.455   6.762   0.554 -0.3934 -0.6732 -0.4212
  648TIP3    H126139   6.491   6.844   0.521 -1.1197  0.1787  0.8340
  648TIP3    H226140   6.445   6.776   0.648  0.6720 -2.6672  0.0331
  649TIP3   OH226141   3.588   4.990   9.137 -0.2724  0.1242 -0.3774
  649TIP3    H126142   3.506   4.982   9.187  0.7896  0.5057  1.5393
  649TIP3    H226143   3.586   5.079   9.102 -0.7165  0.1023 -0.4146
  650TIP3   OH226144   3.207   6.857   1.770 -0.0111  0.4366  1.1150
  650TIP3    H126145   3.127   6.807   1.760 -0.7964  1.7795  0.4058
  650TIP3    H226146   3.177   6.948   1.780  1.4478  1.0631  0.0434
  651TIP3   OH226147   1.407   4.887   1.133  0.1810  0.0382  0.4192
  651TIP3    H126148   1.400   4.933   1.049 -0.1073  0.9324  0.9257
  651TIP3    H226149   1.489   4.837   1.126  0.0431 -0.0827 -0.4795
  652TIP3   OH226150   3.294   6.856   0.751 -0.0073 -0.1768 -0.1027
  652TIP3    H126151   3.349   6.778   0.759  0.8938  0.3819 -0.6758
  652TIP3    H226152   3.354   6.925   0.723 -0.9994  0.4622 -0.7154
  653TIP3   OH226153   6.960   4.249   9.904 -0.0247  0.5071 -0.6849
  653TIP3    H126154   6.897   4.284   9.967  0.6881  0.6339 -0.0289
  653TIP3    H226155   6.978   4.322   9.845  0.5562  0.9070 -0.0324
  654TIP3   OH226156   4.851   5.686   8.882  0.2578 -0.4792  0.2180
  654TIP3    H126157   4.828   5.652   8.795  0.5443 -0.4805  0.1387
  654TIP3    H226158   4.935   5.730   8.868  0.5629 -0.9275  0.5963
  655TIP3   OH226159   0.278   6.210   0.857  0.0531  0.2698  0.4948
  655TIP3    H126160   0.193   6.251   0.841  0.0656 -0.4936 -2.1067
  655TIP3    H226161   0.268   6.161   0.938 -1.8143  0.5954  0.4899
  656TIP3   OH226162   6.512   6.253   0.125  0.2743 -0.1726 -0.2501
  656TIP3    H126163   6.456   6.227   0.052  0.8805  2.6816 -1.8472
  656TIP3    H226164   6.597   6.213   0.106  0.6756  1.2677 -1.6449
  657TIP3   OH226165   1.930   2.303  10.022 -0.4151 -0.1764 -0.3653
  657TIP3    H126166   1.911   2.383   9.974 -2.8921  0.0270  0.7881
  657TIP3    H226167   1.913   2.325  10.113  1.1802 -1.3984  0.2807
  658TIP3   OH226168   5.323   1.924   0.296  0.1912  0.8954  0.1125
  658TIP3    H126169   5.242   1.965   0.266  0.2298  0.8114 -0.1120
  658TIP3    H226170   5.380   1.997   0.322 -0.0800  0.9369  0.5859
  659TIP3   OH226171   0.151   1.903   0.162  0.1086 -0.1265  0.6044
  659TIP3    H126172   0.174   1.996   0.163 -0.5112  0.0379  0.3314
  659TIP3    H226173   0.065   1.901   0.118  0.6612 -0.9471 -0.4705
  660TIP3   OH226174   6.203   4.562   9.676 -0.5238 -0.1935 -1.1094
  660TIP3    H126175   6.254   4.482   9.661  1.0430  0.9971 -2.5781
  660TIP3    H226176   6.158   4.578   9.593 -0.3477  0.7620 -1.0292
  661TIP3   OH226177   3.675   7.613   6.875 -0.2923 -0.1286 -0.4479
  661TIP3    H126178   3.752   7.582   6.827 -0.6695 -0.1690 -1.0358
  661TIP3    H226179   3.630   7.533   6.903 -2.0192 -0.2517 -3.1544
  662TIP3   OH226180   5.537   0.658   1.253  0.2666  0.1941  0.2846
  662TIP3    H126181   5.489   0.690   1.329  0.3439 -1.3387  1.0006
  662TIP3    H226182   5.511   0.718   1.182  2.2096  3.3149  2.0033
  663TIP3   OH226183   5.216   5.101   8.279 -0.2918 -0.0785  0.0939
  663TIP3    H126184   5.142   5.123   8.223 -0.0052  0.0796 -0.2259
  663TIP3    H226185   5.176   5.076   8.363 -0.8215 -1.7322 -0.6025
  664TIP3   OH226186   2.932   2.457   8.144  0.4811 -0.6896  0.2106
  664TIP3    H126187   2.956   2.543   8.108  0.0160  0.4242  2.3827
  664TIP3    H226188   3.015   2.412   8.155  0.9230  0.1867  0.6256
  665TIP3   OH226189   5.524   1.329   8.948  0.2465 -0.6839  0.2498
  665TIP3    H126190   5.594   1.387   8.977 -1.8978  1.8534  0.7708
  665TIP3    H226191   5.515   1.345   8.855  0.8402 -1.6309  0.0113
  666TIP3   OH226192   5.628   5.391   8.394  0.2769 -0.1450 -0.3017
  666TIP3    H126193   5.715   5.402   8.355  0.0438  1.7491 -0.3762
  666TIP3    H226194   5.567   5.397   8.321 -0.0668  1.7002  0.0955
  667TIP3   OH226195   4.598   1.210   0.099 -0.1814 -0.2543 -0.5070
  667TIP3    H126196   4.595   1.227   0.004 -0.3336  0.1316 -0.4350
  667TIP3    H226197   4.666   1.269   0.131 -0.3561 -0.1461 -0.3304
  668TIP3   OH226198   6.981   3.948   0.233  0.2951  0.4105  0.1039
  668TIP3    H126199   6.973   3.893   0.311  1.1972  1.4457  0.9698
  668TIP3    H226200   6.974   3.887   0.160  0.2720 -0.7157  1.0139
  669TIP3   OH226201   4.814   4.522   8.241  0.0723 -0.2263  0.4914
  669TIP3    H126202   4.794   4.543   8.332  0.2998 -1.2594  0.7988
  669TIP3    H226203   4.886   4.581   8.217 -1.1904  1.3310  0.3738
  670TIP3   OH226204   2.412   6.880   8.144 -0.0903  0.1992 -0.5252
  670TIP3    H126205   2.436   6.869   8.236  0.4654 -0.0678 -0.7016
  670TIP3    H226206   2.316   6.873   8.143  0.0020 -1.7167 -0.2189
  671TIP3   OH226207   4.274   0.424   1.517 -0.2506 -0.2364  0.4620
  671TIP3    H126208   4.213   0.435   1.444  0.6425  2.2013 -0.0245
  671TIP3    H226209   4.353   0.389   1.477  0.1062  0.7290  0.2983
  672TIP3   OH226210   3.020   1.503   0.149 -0.1792  0.1194 -0.9586
  672TIP3    H126211   3.023   1.597   0.132  0.1334  0.4320  0.6804
  672TIP3    H226212   3.102   1.469   0.113  0.5559  0.7843  0.0281
  673TIP3   OH226213   2.699   1.453   1.302 -0.1991  0.3401 -0.2597
  673TIP3    H126214   2.669   1.474   1.390 -0.1021 -1.7302  0.3096
  673TIP3    H226215   2.634   1.392   1.268  0.8104 -0.4556 -0.8263
  674TIP3   OH226216   6.812   0.689   2.313 -0.2318 -0.3612  0.3209
  674TIP3    H126217   6.893   0.726   2.279 -0.3197 -1.0493 -0.6872
  674TIP3    H226218   6.840   0.616   2.368 -0.1618 -0.5296  0.0620
  675TIP3   OH226219   6.466   4.847   8.936 -0.4013  0.4730 -0.1039
  675TIP3    H126220   6.539   4.896   8.975 -0.3351  0.5393 -0.3072
  675TIP3    H226221   6.455   4.886   8.849  0.8883 -1.0878 -1.0332
  676TIP3   OH226222   0.757   6.949   2.461  0.2704 -0.3506 -0.1603
  676TIP3    H126223   0.698   6.948   2.536  1.9026  1.4631  1.2488
  676TIP3    H226224   0.700   6.940   2.385 -1.3484 -3.6732  1.2332
  677TIP3   OH226225   0.876   6.745   0.504 -0.1837 -0.3955 -0.1661
  677TIP3    H126226   0.845   6.706   0.586  0.1714  2.2141  1.3003
  677TIP3    H226227   0.971   6.748   0.513 -0.2551  1.8151  0.3144
  678TIP3   OH226228   6.863   5.870   2.951  0.2938 -0.6049  0.2574
  678TIP3    H126229   6.833   5.787   2.914 -0.0938  0.0402 -0.9427
  678TIP3    H226230   6.849   5.861   3.045 -2.9460 -0.6949 -0.0950
  679TIP3   OH226231   2.118   5.267   0.439  0.5642 -0.3317 -0.2215
  679TIP3    H126232   2.181   5.318   0.388 -0.9722  0.1997 -1.6930
  679TIP3    H226233   2.121   5.305   0.527  1.7511  0.1485 -0.4583
  680TIP3   OH226234   3.889   3.049   8.388 -0.5588  0.8983 -0.3733
  680TIP3    H126235   3.959   3.106   8.358 -0.6368  1.0199 -0.3260
  680TIP3    H226236   3.853   3.093   8.464  1.4115 -0.7074  1.6175
  681TIP3   OH226237   1.484   5.162   7.467  0.1542  0.2354  0.2746
  681TIP3    H126238   1.502   5.162   7.561 -0.6180 -1.5495  0.4568
  681TIP3    H226239   1.556   5.213   7.429  1.0006  0.1841  1.7349
  682TIP3   OH226240   7.327   5.929   1.512 -0.3269  0.3883 -0.2624
  682TIP3    H126241   7.238   5.921   1.546  0.1821 -1.1674  0.8521
  682TIP3    H226242   7.381   5.885   1.578  1.3768  2.0451 -0.4760
  683TIP3   OH226243   4.207   1.259   8.445 -0.1699 -0.6249 -0.0623
  683TIP3    H126244   4.220   1.340   8.495  0.2077 -0.3813 -0.5527
  683TIP3    H226245   4.112   1.247   8.444 -0.2149 -0.3009  0.1925
  684TIP3   OH226246   5.851   6.460   8.591 -0.1253  0.6474 -0.0530
  684TIP3    H126247   5.942   6.468   8.622  0.3152  0.2695 -1.1867
  684TIP3    H226248   5.830   6.367   8.601 -0.7788  0.9145  1.2093
  685TIP3   OH226249   2.721   3.105   8.776  0.0466  0.2907  0.2526
  685TIP3    H126250   2.660   3.152   8.719  0.6545  1.2844  0.4005
  685TIP3    H226251   2.751   3.031   8.723  0.2474  0.9390 -0.5683
  686TIP3   OH226252   3.449   0.110   1.716 -0.4096  0.4484  0.1163
  686TIP3    H126253   3.531   0.067   1.692 -1.3847 -1.2238 -0.3664
  686TIP3    H226254   3.444   0.187   1.660  1.2615  1.1233  0.8294
  687TIP3   OH226255   5.239   5.434   9.926 -0.3149 -0.2735  0.1638
  687TIP3    H126256   5.328   5.460   9.949 -1.2420  1.5194  1.9787
  687TIP3    H226257   5.184   5.468   9.997 -2.3944 -1.9366 -0.5205
  688TIP3   OH226258   0.821   7.780   8.792  0.1559 -0.1676  0.2490
  688TIP3    H126259   0.733   7.783   8.828  0.4655 -0.6258  1.0604
  688TIP3    H226260   0.809   7.755   8.701 -0.5411 -0.3210  0.3804
  689TIP3   OH226261   6.372   7.245   9.931  0.2825 -0.4257 -0.2983
  689TIP3    H126262   6.464   7.239   9.954  0.1029  0.6633  0.7624
  689TIP3    H226263   6.371   7.280   9.842  0.8922 -1.2677 -0.6524
  690TIP3   OH226264   1.216   3.464   8.679 -0.1384 -0.0393  0.1682
  690TIP3    H126265   1.193   3.392   8.738 -0.5981 -2.1497 -2.3897
  690TIP3    H226266   1.279   3.425   8.618  0.1293  1.9479 -0.8958
  691TIP3   OH226267   5.751   1.470   8.846  0.3238 -0.0993  0.1684
  691TIP3    H126268   5.748   1.469   8.941  0.0958  0.0183  0.1645
  691TIP3    H226269   5.729   1.560   8.822 -3.3288 -0.9066 -0.0890
  692TIP3   OH226270   1.547   2.860   9.549 -0.3308 -0.2179  0.1236
  692TIP3    H126271   1.591   2.852   9.465  0.0618  0.8848  0.2070
  692TIP3    H226272   1.503   2.776   9.562 -1.4257  0.0216 -1.7462
  693TIP3   OH226273   5.037   5.333   7.169  0.4556 -0.1573 -0.0054
  693TIP3    H126274   5.025   5.376   7.084  0.8061 -0.2381 -0.0973
  693TIP3    H226275   5.074   5.402   7.225  0.5904 -0.2113 -0.0273
  694TIP3   OH226276   7.534   0.959   1.226 -0.2202 -0.2780  0.1718
  694TIP3    H126277   7.564   0.882   1.178 -2.1847 -1.0574  0.0999
  694TIP3    H226278   7.444   0.939   1.249 -1.0222  2.2893 -0.4274
  695TIP3   OH226279   6.893   4.133   8.296  0.1058 -0.4015  0.0102
  695TIP3    H126280   6.948   4.200   8.337  1.9305 -1.1145 -1.1408
  695TIP3    H226281   6.934   4.050   8.322 -0.9112 -1.0004 -0.2547
  696TIP3   OH226282   6.849   3.755   9.270 -0.0748  0.5399 -0.1937
  696TIP3    H126283   6.928   3.799   9.301  1.9271 -3.9414  1.9942
  696TIP3    H226284   6.872   3.725   9.182  0.8547 -0.8337  0.4692
  697TIP3   OH226285   4.830   5.226   9.201  0.3586  0.3047  0.1698
  697TIP3    H126286   4.873   5.143   9.183 -1.1011 -0.3413 -0.4532
  697TIP3    H226287   4.787   5.250   9.119 -2.0816 -0.0712  1.2457
  698TIP3   OH226288   2.957   0.332   8.285  0.2057 -0.0154 -0.7359
  698TIP3    H126289   2.900   0.276   8.336  1.2555 -1.0584 -0.6679
  698TIP3    H226290   3.030   0.352   8.344 -0.1641  1.4812 -0.7372
  699TIP3   OH226291   4.130   2.057   8.207 -0.3429  0.4191 -0.1862
  699TIP3    H126292   4.084   2.011   8.137 -1.5608  0.1025  0.7760
  699TIP3    H226293   4.066   2.121   8.239  0.6134  1.3793 -0.1378
  700TIP3   OH226294   6.340   6.340   7.030 -0.0224  0.7565 -0.1390
  700TIP3    H126295   6.325   6.430   7.059  0.4836  1.0963 -0.9065
  700TIP3    H226296   6.304   6.336   6.942  1.1300  0.5777 -0.6134
  701TIP3   OH226297   3.153   3.795   9.087  0.8096  0.3083  0.1938
  701TIP3    H126298   3.153   3.718   9.144 -0.0347  1.6790  2.1800
  701TIP3    H226299   3.236   3.790   9.039  0.7263 -1.8524  0.1692
  702TIP3   OH226300   0.034   6.718   8.117 -0.2012  0.2005  0.0379
  702TIP3    H126301   0.069   6.712   8.206  0.7119  0.3515 -0.3034
  702TIP3    H226302   0.110   6.739   8.063 -0.7680  0.1998 -0.7661
  703TIP3   OH226303   6.603   3.961   0.474  0.1049 -0.2730  0.8524
  703TIP3    H126304   6.664   3.990   0.406 -0.1137 -1.3376  0.1685
  703TIP3    H226305   6.547   4.037   0.490  0.7308  0.2745  0.4819
  704TIP3   OH226306   2.849   0.815   1.855  0.5652  0.3603  0.9144
  704TIP3    H126307   2.934   0.858   1.841  1.8813 -2.2614  0.1158
  704TIP3    H226308   2.834   0.765   1.775 -1.4268  0.2009  1.3297
  705TIP3   OH226309   7.167   6.036   9.396  0.3552 -0.6203 -0.6455
  705TIP3    H126310   7.076   6.011   9.409  1.0937 -2.6862  1.3127
  705TIP3    H226311   7.211   5.955   9.369  1.7885  0.0681 -0.4892
  706TIP3   OH226312   0.381   6.394   1.656  0.8370  0.1503 -0.0574
  706TIP3    H126313   0.375   6.476   1.703 -0.5447 -0.2029  0.4400
  706TIP3    H226314   0.319   6.336   1.701 -0.6770 -0.1517 -2.3354
  707TIP3   OH226315   6.458   4.232   0.462  0.5042  0.0380  0.4259
  707TIP3    H126316   6.453   4.196   0.374  0.4399  0.3069  0.3197
  707TIP3    H226317   6.374   4.274   0.477 -0.0661 -1.3127  1.1930
  708TIP3   OH226318   2.802   3.478   8.393  0.3436 -0.0552  0.5836
  708TIP3    H126319   2.742   3.552   8.405 -0.1126 -0.6576  2.2940
  708TIP3    H226320   2.752   3.401   8.420  1.5524 -0.6962  1.1208
  709TIP3   OH226321   6.121   0.216   8.287  0.1734 -0.3383 -0.1243
  709TIP3    H126322   6.180   0.236   8.360 -1.9451  0.5543  1.4611
  709TIP3    H226323   6.144   0.279   8.219  0.6370  0.4045  0.6994
  710TIP3   OH226324   7.058   6.778   8.756  0.0060  0.4092 -0.2757
  710TIP3    H126325   7.052   6.794   8.850 -0.4897  0.2161 -0.2699
  710TIP3    H226326   7.051   6.683   8.748  1.5341  0.2831 -0.4101
  711TIP3   OH226327   4.184   1.362   0.021  0.3649 -0.1560  0.6247
  711TIP3    H126328   4.183   1.405  -0.065  0.9613 -1.9984 -0.3641
  711TIP3    H226329   4.137   1.280   0.006  0.5305 -0.5232  2.0612
  712TIP3   OH226330   0.054   3.248   0.724 -0.6166 -0.1891 -0.6147
  712TIP3    H126331   0.016   3.245   0.812 -0.9876  2.4821 -0.6068
  712TIP3    H226332   0.084   3.339   0.714 -0.8271 -0.3392 -3.3395
  713TIP3   OH226333   5.452   5.789   9.587  0.5266 -0.0650  0.1212
  713TIP3    H126334   5.451   5.742   9.504  0.3765  0.4282 -0.1590
  713TIP3    H226335   5.396   5.736   9.645  2.7727 -1.9247  0.7744
  714TIP3   OH226336   1.208   3.832   1.953 -0.3084 -0.4589 -0.5317
  714TIP3    H126337   1.190   3.740   1.933  1.8902 -0.9267 -0.6044
  714TIP3    H226338   1.287   3.830   2.006  0.0393  1.4226 -0.9133
  715TIP3   OH226339   0.448   7.587   8.342  0.6132 -0.1648 -0.0531
  715TIP3    H126340   0.355   7.574   8.362  0.6422  0.5457  0.6312
  715TIP3    H226341   0.474   7.660   8.399  1.5483 -0.2464 -0.3601
  716TIP3   OH226342   4.433   3.326   8.384 -0.1680  0.0574  0.1546
  716TIP3    H126343   4.407   3.330   8.476 -1.0981  0.2189 -0.1105
  716TIP3    H226344   4.518   3.370   8.381 -1.0283  1.8022  0.6173
  717TIP3   OH226345   1.279   1.727   9.787 -0.1198 -0.4423 -0.4515
  717TIP3    H126346   1.261   1.723   9.881  1.4899 -0.5420 -0.1282
  717TIP3    H226347   1.200   1.692   9.747 -0.3334 -1.6331  0.9198
  718TIP3   OH226348   6.788   0.963   2.760 -0.3712 -0.0768  0.2400
  718TIP3    H126349   6.764   0.905   2.833 -0.7867 -1.1693 -0.7487
  718TIP3    H226350   6.713   1.023   2.753  0.2328  0.8761  1.5206
  719TIP3   OH226351   1.690   5.660   0.877 -0.1913 -0.2174  0.1596
  719TIP3    H126352   1.646   5.686   0.797 -2.7416 -1.1532  1.1385
  719TIP3    H226353   1.773   5.623   0.849 -0.6969  0.1755 -1.9739
  720TIP3   OH226354   0.606   0.680   7.496  0.7958 -0.1200  0.5570
  720TIP3    H126355   0.654   0.660   7.577  0.2755 -1.1929  0.6096
  720TIP3    H226356   0.514   0.663   7.518  0.6352 -0.2582 -0.2142
  721TIP3   OH226357   7.026   3.356   9.297  1.1483 -0.0618 -0.1777
  721TIP3    H126358   7.112   3.375   9.334  1.6271  0.9156 -1.6989
  721TIP3    H226359   7.037   3.368   9.203 -0.5656 -0.2857 -0.4420
  722TIP3   OH226360   5.491   6.910   1.815 -0.4288 -0.1603  0.0441
  722TIP3    H126361   5.406   6.953   1.813  0.0537  0.8495 -2.3493
  722TIP3    H226362   5.470   6.817   1.807 -1.3417 -0.1336  1.6555
  723TIP3   OH226363   1.364   0.473   3.528  0.2285 -0.5578 -0.6971
  723TIP3    H126364   1.426   0.545   3.534 -0.6719  0.2409 -0.7704
  723TIP3    H226365   1.278   0.515   3.525 -0.3916 -1.6666  0.4211
  724TIP3   OH226366   4.654   3.231   0.230  0.2114  0.1044 -0.9591
  724TIP3    H126367   4.589   3.279   0.179 -1.8710  3.7468  4.2295
  724TIP3    H226368   4.733   3.285   0.225  0.0133  0.4506 -0.4131
  725TIP3   OH226369   0.102   2.795   2.876  0.2926 -0.8339  0.2645
  725TIP3    H126370   0.175   2.748   2.917  0.0017 -0.2584  1.4709
  725TIP3    H226371   0.032   2.794   2.942 -0.0633  0.4207 -0.0727
  726TIP3   OH226372   6.348   2.323   9.595  0.8089  0.0505 -0.2433
  726TIP3    H126373   6.417   2.332   9.530 -0.7072 -0.3071 -1.9619
  726TIP3    H226374   6.395   2.318   9.679  2.8176  0.2866 -1.2943
  727TIP3   OH226375   6.377   4.339   9.591  0.0840 -0.1774 -0.3812
  727TIP3    H126376   6.429   4.390   9.528  1.5223 -0.0897  0.8372
  727TIP3    H226377   6.384   4.249   9.561  0.5665 -0.1088 -0.4747
  728TIP3   OH226378   2.806   3.055   2.254 -0.1340  0.2570  0.2074
  728TIP3    H126379   2.801   3.055   2.159 -0.5928 -1.1552  0.2073
  728TIP3    H226380   2.757   2.976   2.281  1.0182 -0.0424  1.5441
  729TIP3   OH226381   3.522   0.923   0.342 -0.1258  0.1246 -0.1952
  729TIP3    H126382   3.589   0.907   0.408  0.3601  0.1781 -0.6634
  729TIP3    H226383   3.506   1.018   0.347 -1.4668 -0.1332  1.1247
  730TIP3   OH226384   2.357   5.337   0.283 -0.0608  0.6164  0.2244
  730TIP3    H126385   2.447   5.311   0.265 -0.8294 -0.4694 -2.5983
  730TIP3    H226386   2.352   5.428   0.254 -0.0694  0.4047 -0.4522
  731TIP3   OH226387   0.380   7.599   8.663  0.4732  0.0065  0.5152
  731TIP3    H126388   0.468   7.623   8.634  0.6583  0.5118  1.4689
  731TIP3    H226389   0.347   7.678   8.707 -1.0259  0.3439 -1.0758
  732TIP3   OH226390   4.955   6.901   2.934  0.7694 -0.5216 -0.3031
  732TIP3    H126391   4.923   6.841   3.001  0.0232  0.1749 -0.0291
  732TIP3    H226392   4.903   6.981   2.945  0.4539 -0.4705 -1.8596
  733TIP3   OH226393   0.995   6.773   8.452 -0.2714 -0.4243  0.1049
  733TIP3    H126394   1.085   6.793   8.427 -0.6408  1.9656  0.4273
  733TIP3    H226395   1.001   6.743   8.543  0.2202 -0.4881  0.0499
  734TIP3   OH226396   5.314   2.698   9.531 -0.1787 -0.0227 -0.7487
  734TIP3    H126397   5.351   2.613   9.556  0.1935  0.1590 -0.6691
  734TIP3    H226398   5.326   2.702   9.436 -1.3773 -0.6110 -0.9379
  735TIP3   OH226399   1.536   5.753   2.035 -0.0652 -0.3969 -0.3272
  735TIP3    H126400   1.600   5.760   2.105  1.7056  0.2444 -1.9270
  735TIP3    H226401   1.519   5.843   2.009  0.3222 -0.6595 -1.5668
  736TIP3   OH226402   2.198   5.937   0.352 -0.3548 -0.4654  0.4469
  736TIP3    H126403   2.218   5.919   0.260  0.2459 -1.4951  0.7578
  736TIP3    H226404   2.144   6.015   0.350 -0.6929 -0.7061 -0.8137
  737TIP3   OH226405   4.907   1.678   8.296 -0.2819  0.0532 -0.2537
  737TIP3    H126406   4.871   1.590   8.298 -0.0731 -0.0388 -0.5215
  737TIP3    H226407   4.909   1.702   8.203 -0.0594  0.2238 -0.2072
  738TIP3   OH226408   6.891   2.716   1.093  0.2797  0.6443  0.1425
  738TIP3    H126409   6.972   2.736   1.140  0.3580  1.2818 -0.2545
  738TIP3    H226410   6.919   2.666   1.016  0.3425  1.2044 -0.2041
  739TIP3   OH226411   3.675   2.851   9.962  0.3900  0.1868  0.0299
  739TIP3    H126412   3.652   2.915  10.028  0.1663 -1.3366  1.4921
  739TIP3    H226413   3.670   2.766  10.007  0.7878 -0.8635 -1.7792
  740TIP3   OH226414   4.739   6.867   9.770 -0.5212  0.2580  0.3150
  740TIP3    H126415   4.733   6.928   9.696 -2.0130  0.8493  0.8751
  740TIP3    H226416   4.668   6.804   9.755 -2.1282  1.4991  2.1493
  741TIP3   OH226417   4.666   0.352   7.973  0.6024  0.1774  0.0637
  741TIP3    H126418   4.585   0.301   7.976  0.9970 -0.5138 -0.5488
  741TIP3    H226419   4.664   0.406   8.052 -0.1254 -0.3434  0.4123
  742TIP3   OH226420   4.594   7.453   1.663 -0.0437  0.3389  0.6727
  742TIP3    H126421   4.632   7.499   1.588 -1.1609  2.6411  1.4112
  742TIP3    H226422   4.666   7.446   1.726  0.2407  0.7636  0.3994
  743TIP3   OH226423   7.601   7.444   9.565 -0.1495  0.0858 -0.1237
  743TIP3    H126424   7.515   7.453   9.524 -0.3407 -0.4415  0.1467
  743TIP3    H226425   7.582   7.428   9.658  0.2685  1.0255  0.1422
  744TIP3   OH226426   5.531   6.338   8.863 -0.3786  0.0451 -0.1669
  744TIP3    H126427   5.541   6.258   8.811 -2.0591 -1.7083  2.0078
  744TIP3    H226428   5.574   6.318   8.946 -0.8208  1.4436  0.4248
  745TIP3   OH226429   6.415   5.720   9.167  0.1430 -0.1587 -0.4337
  745TIP3    H126430   6.355   5.781   9.210  0.0205 -0.0919 -0.6954
  745TIP3    H226431   6.358   5.662   9.116  0.3796  0.9476 -2.0201
  746TIP3   OH226432   1.614   3.397   8.126  0.2821  0.8302 -0.3780
  746TIP3    H126433   1.612   3.439   8.212 -1.2749  0.8837 -0.4059
  746TIP3    H226434   1.588   3.467   8.066  1.2605  0.7646 -0.8906
  747TIP3   OH226435   3.561   6.793   8.729 -0.1352 -0.7051  0.0161
  747TIP3    H126436   3.549   6.799   8.634 -2.0938 -1.0516  0.2028
  747TIP3    H226437   3.598   6.878   8.754  0.1616 -0.5201 -1.0215
  748TIP3   OH226438   1.450   5.704   8.274 -0.1322 -0.1756  0.0230
  748TIP3    H126439   1.520   5.707   8.339 -0.3028 -0.8041  0.2347
  748TIP3    H226440   1.486   5.653   8.202 -0.5325 -0.8947  0.3253
  749TIP3   OH226441   0.269   5.486   8.261 -0.4023  0.6260  0.2108
  749TIP3    H126442   0.234   5.502   8.174  0.0493  1.0159  0.0940
  749TIP3    H226443   0.355   5.529   8.261  0.2051 -0.5287  0.3837
  750TIP3   OH226444   4.851   0.363   7.324  0.3351  0.0438  0.2624
  750TIP3    H126445   4.903   0.413   7.262 -1.5369  0.2556 -1.2173
  750TIP3    H226446   4.889   0.275   7.321 -0.2371 -0.1799 -1.8874
  751TIP3   OH226447   7.285   2.170   9.319  0.3891 -0.2419  0.2448
  751TIP3    H126448   7.297   2.260   9.349  1.9993 -0.8804  1.6484
  751TIP3    H226449   7.335   2.166   9.237 -0.4896  0.3795 -0.3349
  752TIP3   OH226450   0.653   1.216   3.002  0.1131 -0.5494  0.0348
  752TIP3    H126451   0.589   1.200   3.072 -0.9346  0.9472 -0.5168
  752TIP3    H226452   0.737   1.224   3.047 -0.5178  0.2447  1.1285
  753TIP3   OH226453   0.285   6.730   1.462 -0.1922  0.1540  0.7026
  753TIP3    H126454   0.209   6.721   1.404  0.8366 -1.5840 -0.4370
  753TIP3    H226455   0.357   6.688   1.415  1.2666  0.8702  2.1923
  754TIP3   OH226456   0.412   5.238   8.386 -0.1027 -0.1805  0.3544
  754TIP3    H126457   0.326   5.275   8.407 -0.2624  0.2819 -1.0105
  754TIP3    H226458   0.473   5.284   8.443 -0.6000  0.4603  0.3730
  755TIP3   OH226459   6.486   5.857   2.902  0.3436  0.0826 -0.1917
  755TIP3    H126460   6.431   5.813   2.968  1.0585  0.3467  0.6027
  755TIP3    H226461   6.529   5.786   2.855  3.0279 -0.1712  2.3785
  756TIP3   OH226462   2.100   2.277   1.167  0.0828 -0.6936 -0.8899
  756TIP3    H126463   2.136   2.201   1.213 -0.3666 -0.0666  0.5550
  756TIP3    H226464   2.018   2.296   1.211 -0.5540 -0.2659 -2.2017
  757TIP3   OH226465   5.594   0.745   2.342  0.0808  0.4036 -0.4940
  757TIP3    H126466   5.529   0.807   2.374 -0.9082  0.1562 -1.9463
  757TIP3    H226467   5.627   0.702   2.421 -0.4468  1.5588  0.3841
  758TIP3   OH226468   4.387   0.898   8.688 -0.2472  0.1497 -0.6034
  758TIP3    H126469   4.424   0.821   8.646 -1.7555 -1.4902  0.9356
  758TIP3    H226470   4.306   0.915   8.641  1.0791  2.2334 -2.3580
  759TIP3   OH226471   3.514   3.821   0.193 -0.5217 -0.2538  0.7079
  759TIP3    H126472   3.420   3.813   0.173 -1.0304  0.0230  2.6932
  759TIP3    H226473   3.537   3.910   0.166 -0.2934 -0.9469 -1.5825
  760TIP3   OH226474   3.710   6.085   0.143 -0.4601 -0.0562 -0.5933
  760TIP3    H126475   3.707   6.135   0.224 -0.8674 -1.8559  0.5676
  760TIP3    H226476   3.799   6.098   0.111 -0.5459  1.3548 -0.3335
  761TIP3   OH226477   7.273   2.430   7.130 -0.4009  0.3236 -0.7327
  761TIP3    H126478   7.364   2.403   7.120  0.0830  2.0868 -1.5997
  761TIP3    H226479   7.255   2.421   7.224  0.4871 -0.5468 -0.6326
  762TIP3   OH226480   6.555   6.698   1.448  0.0379  0.1144  0.0954
  762TIP3    H126481   6.627   6.643   1.480 -0.1246 -0.3124 -0.2570
  762TIP3    H226482   6.525   6.746   1.525  0.7191  0.3173  0.2429
  763TIP3   OH226483   4.172   7.485   6.604  0.2485  0.1391 -0.1133
  763TIP3    H126484   4.246   7.539   6.575  1.6095  0.4219  3.3934
  763TIP3    H226485   4.100   7.547   6.615  0.2858  0.3350 -0.9233
  764TIP3   OH226486   1.159   4.814   3.282  0.1687 -0.2370 -0.2025
  764TIP3    H126487   1.121   4.894   3.246  0.0098  0.2813  1.0410
  764TIP3    H226488   1.219   4.782   3.215 -2.4644 -1.1259 -2.3024
  765TIP3   OH226489   7.116   3.069   1.496  0.0055  0.6367  0.0963
  765TIP3    H126490   7.094   2.981   1.465  1.3679 -0.1884  1.3414
  765TIP3    H226491   7.136   3.118   1.417  0.2166 -0.4636 -0.5547
  766TIP3   OH226492   7.332   7.524   7.955  0.0639 -0.0556 -0.0404
  766TIP3    H126493   7.427   7.528   7.945  0.0764 -1.2728 -0.5149
  766TIP3    H226494   7.301   7.476   7.879 -0.9117  0.0637  0.2618
  767TIP3   OH226495   2.222   7.341   1.355 -0.1099 -0.1782  0.3146
  767TIP3    H126496   2.217   7.255   1.396 -0.7439 -0.6979 -0.8182
  767TIP3    H226497   2.312   7.370   1.371  1.4646 -2.7906 -2.6767
  768TIP3   OH226498   2.221   0.876   1.877  0.5358 -0.3193 -0.3112
  768TIP3    H126499   2.246   0.883   1.969 -1.4978  1.9064  0.1763
  768TIP3    H226500   2.184   0.788   1.869  2.2007 -1.1395  0.5610
  769TIP3   OH226501   4.953   6.856   2.662  0.2429  0.5059  0.1938
  769TIP3    H126502   4.959   6.831   2.754 -0.1031  0.4030  0.1886
  769TIP3    H226503   4.870   6.904   2.655 -0.1067 -0.1375 -0.2100
  770TIP3   OH226504   2.462   7.412   1.122 -0.2080  0.1947  0.2181
  770TIP3    H126505   2.489   7.439   1.035 -0.2621  0.9848  0.4408
  770TIP3    H226506   2.409   7.334   1.108  1.4996 -0.9455 -0.3049
  771TIP3   OH226507   2.838   7.133   0.025  0.0356  0.4152 -0.2765
  771TIP3    H126508   2.900   7.074  -0.018  1.2591  0.2688  1.5543
  771TIP3    H226509   2.876   7.148   0.112 -1.3913  2.1148  0.1163
  772TIP3   OH226510   6.687   6.396   8.123  0.4141 -0.8345  0.5323
  772TIP3    H126511   6.659   6.444   8.200 -2.0319  0.8733 -1.2398
  772TIP3    H226512   6.639   6.313   8.128  0.4358 -0.8219  0.9554
  773TIP3   OH226513   0.801   7.476  10.007  0.0703  0.4391 -0.4983
  773TIP3    H126514   0.801   7.565  10.041  2.1560  0.6334 -0.8473
  773TIP3    H226515   0.728   7.433  10.051  0.4406  1.6833  1.4527
  774TIP3   OH226516   5.984   2.024   7.048  0.0325 -0.0465 -0.4784
  774TIP3    H126517   6.010   1.935   7.023  0.0345 -0.3505  0.5629
  774TIP3    H226518   6.034   2.081   6.989 -1.0365 -0.7465 -2.1284
  775TIP3   OH226519   5.031   1.151   8.816  0.3493 -0.0752 -0.7623
  775TIP3    H126520   5.022   1.122   8.906  0.0646 -0.9772 -1.0658
  775TIP3    H226521   5.063   1.241   8.822 -1.3801  0.5298  0.2672
  776TIP3   OH226522   7.709   5.815   7.664 -0.3407 -0.1427  0.0109
  776TIP3    H126523   7.669   5.764   7.593 -0.0634 -1.1964  0.5974
  776TIP3    H226524   7.642   5.880   7.687 -0.8940 -0.5536 -0.4174
  777TIP3   OH226525   6.948   3.990   0.780  0.4216 -0.1802  0.3099
  777TIP3    H126526   6.999   4.064   0.812 -0.2498 -0.2637  1.6333
  777TIP3    H226527   7.013   3.927   0.749  1.0148  0.6741 -0.2250
  778TIP3   OH226528   5.134   0.137   8.934  0.1943 -0.4649 -0.1287
  778TIP3    H126529   5.156   0.186   8.855 -1.0623  3.3626  1.6752
  778TIP3    H226530   5.207   0.154   8.994 -1.3309  1.3412  1.3329
  779TIP3   OH226531   0.423   0.069   6.910 -0.0215 -0.4084 -0.2355
  779TIP3    H126532   0.365   0.016   6.855  1.8268 -1.8079 -0.9263
  779TIP3    H226533   0.507   0.066   6.866  1.2272 -0.5316  2.0273
  780TIP3   OH226534   5.952   1.617  -0.006  0.4378  0.5584 -0.0940
  780TIP3    H126535   5.966   1.571  -0.089 -1.1629 -0.2030  0.0120
  780TIP3    H226536   5.875   1.575   0.032  1.0325  0.9861  1.7242
  781TIP3   OH226537   2.926   4.686   0.630 -0.0933  0.2590  0.5863
  781TIP3    H126538   2.939   4.648   0.718  0.5720  0.1821  0.4621
  781TIP3    H226539   2.848   4.642   0.596  0.4822 -0.7844  0.5747
  782TIP3   OH226540   7.299   3.720   1.705 -0.3379  0.1893  1.3082
  782TIP3    H126541   7.362   3.777   1.660  0.0156 -0.8058  0.4772
  782TIP3    H226542   7.218   3.770   1.707  0.5638  1.6631  2.7568
  783TIP3   OH226543   0.547   0.550   6.479 -0.2316  0.4769  0.3633
  783TIP3    H126544   0.547   0.529   6.573  1.2001  0.7959  0.4490
  783TIP3    H226545   0.611   0.490   6.441 -2.0929 -0.9105 -0.7491
  784TIP3   OH226546   2.846   5.914   8.682 -0.7620 -0.1189 -0.2159
  784TIP3    H126547   2.922   5.957   8.722 -1.0720 -0.3352  0.6369
  784TIP3    H226548   2.878   5.881   8.599  0.3773 -1.1405  0.5994
  785TIP3   OH226549   5.587   0.166   8.863 -0.0747  0.5961  0.0124
  785TIP3    H126550   5.559   0.143   8.775 -0.4285  1.7043 -0.1740
  785TIP3    H226551   5.655   0.232   8.850  0.6876 -0.0581  0.5471
  786TIP3   OH226552   4.345   3.619   8.117  0.1442 -0.3747  0.0545
  786TIP3    H126553   4.405   3.688   8.087  0.2037 -0.6973 -0.5779
  786TIP3    H226554   4.271   3.625   8.057 -0.4620  0.0273  0.8398
  787TIP3   OH226555   3.527   4.680   8.806 -0.1455  0.6776 -0.1626
  787TIP3    H126556   3.472   4.726   8.743 -0.3057  0.7103 -0.0009
  787TIP3    H226557   3.604   4.654   8.756 -0.3554  0.5387 -0.4154
  788TIP3   OH226558   1.427   3.268   0.379 -0.2412 -0.1283  0.1277
  788TIP3    H126559   1.366   3.316   0.323 -1.6460 -0.9663  0.8889
  788TIP3    H226560   1.474   3.210   0.319  0.4206  1.0890 -0.5787
  789TIP3   OH226561   1.371   5.630   7.938 -0.2621 -0.3849  0.4993
  789TIP3    H126562   1.401   5.582   7.861 -0.6517 -0.8878  0.6627
  789TIP3    H226563   1.446   5.627   7.998 -0.1017 -0.3377  0.3045
  790TIP3   OH226564   0.297   4.777   0.343  0.2940  0.0117 -0.0087
  790TIP3    H126565   0.319   4.708   0.280 -1.6117 -0.2431 -0.4813
  790TIP3    H226566   0.320   4.741   0.428 -2.4673 -2.1501 -0.0255
  791TIP3   OH226567   6.251   2.646   2.445  0.2176 -0.8848  0.4686
  791TIP3    H126568   6.267   2.675   2.535 -0.3910  0.4437  0.1785
  791TIP3    H226569   6.274   2.553   2.445  1.2889 -0.6540  1.7174
  792TIP3   OH226570   2.991   1.595   0.516 -0.0114 -0.8521  0.1438
  792TIP3    H126571   3.030   1.682   0.517 -1.5692 -0.1186 -0.4203
  792TIP3    H226572   2.956   1.583   0.605 -1.1883 -0.2247 -0.2181
  793TIP3   OH226573   5.578   4.878   9.536 -0.6091 -0.2989 -0.2059
  793TIP3    H126574   5.595   4.809   9.472 -1.0729  0.0879 -0.7531
  793TIP3    H226575   5.527   4.943   9.489 -0.9739 -0.0101  0.5625
  794TIP3   OH226576   4.884   3.027   7.860 -0.3567  0.4087 -0.1452
  794TIP3    H126577   4.893   2.972   7.783  0.1593  0.1128  0.1142
  794TIP3    H226578   4.968   3.074   7.866  0.4213 -1.0527  1.3341
  795TIP3   OH226579   2.206   2.153   7.641  0.2574 -0.6869 -0.5290
  795TIP3    H126580   2.111   2.152   7.645  0.2654  0.8580  1.0148
  795TIP3    H226581   2.234   2.116   7.725  0.9495  1.6258  0.3300
  796TIP3   OH226582   6.411   0.513   9.221 -0.4871  0.0458 -0.0076
  796TIP3    H126583   6.506   0.528   9.214 -0.5278  1.7733  2.0917
  796TIP3    H226584   6.403   0.441   9.284 -0.5795  0.0892  0.0298
  797TIP3   OH226585   6.447   4.578   7.449 -0.3630 -0.3943 -0.4013
  797TIP3    H126586   6.379   4.565   7.383  0.7127 -1.2074 -1.3753
  797TIP3    H226587   6.437   4.670   7.476 -0.4806  0.1094 -2.0852
  798TIP3   OH226588   0.647   3.788   7.743 -0.1843  0.3309 -0.3038
  798TIP3    H126589   0.683   3.851   7.806  1.2381 -0.4853 -0.2559
  798TIP3    H226590   0.690   3.811   7.660  2.0274 -1.8345  0.1358
  799TIP3   OH226591   2.347   5.508   0.522  0.0379  0.0891 -0.2376
  799TIP3    H126592   2.407   5.480   0.453 -2.2944  1.4049 -3.0154
  799TIP3    H226593   2.330   5.600   0.503 -1.3728  0.2758  1.6289
  800TIP3   OH226594   5.934   1.584   1.396  0.3477 -0.0185 -0.2714
  800TIP3    H126595   5.849   1.629   1.393  0.5459  0.3054 -1.1897
  800TIP3    H226596   5.988   1.639   1.452  0.0033 -0.1522  0.2055
  801TIP3   OH226597   5.387   0.356   0.010  0.4408 -0.4090 -0.2525
  801TIP3    H126598   5.427   0.405  -0.062  0.5989 -1.5077 -0.9416
  801TIP3    H226599   5.293   0.369  -0.001  0.4997  0.1138 -0.1497
  802TIP3   OH226600   1.609   6.801   2.495 -0.2759 -0.0328  0.1624
  802TIP3    H126601   1.556   6.738   2.544 -0.1729 -0.3422 -0.1165
  802TIP3    H226602   1.667   6.840   2.561  0.1614 -0.7622  0.2235
  803TIP3   OH226603   3.482   7.137   7.029  0.1461  0.5314 -0.2116
  803TIP3    H126604   3.558   7.088   6.998  0.4060 -0.4894  1.8997
  803TIP3    H226605   3.407   7.083   7.004  0.2346  0.5499 -0.5217
  804TIP3   OH226606   5.343   3.874   8.298 -0.3713 -0.2661 -0.1946
  804TIP3    H126607   5.429   3.910   8.279  0.0954 -1.4369 -0.4034
  804TIP3    H226608   5.284   3.949   8.295  0.2461  0.1892 -2.6200
  805TIP3   OH226609   2.783   4.706   8.524 -0.0368 -0.3443 -0.1199
  805TIP3    H126610   2.726   4.688   8.599 -0.9364  0.0028 -0.6979
  805TIP3    H226611   2.864   4.740   8.563 -0.5201 -0.0899  0.6935
  806TIP3   OH226612   3.972   4.836   8.686 -0.9039  0.0860  0.0497
  806TIP3    H126613   3.902   4.878   8.736 -0.2086  2.4299 -0.8226
  806TIP3    H226614   4.026   4.794   8.753 -2.1078 -0.1551  0.8963
  807TIP3   OH226615   1.531   6.216   9.048  0.1940 -0.3931  0.1249
  807TIP3    H126616   1.566   6.282   8.988 -0.3686 -1.8166 -1.8739
  807TIP3    H226617   1.442   6.201   9.018  0.4814 -2.4306  0.1540
  808TIP3   OH226618   7.459   2.501   9.142 -0.3540  0.3338 -0.3140
  808TIP3    H126619   7.406   2.536   9.214  0.4946 -0.3916  0.7007
  808TIP3    H226620   7.515   2.574   9.116  0.2882  0.2249  0.7058
  809TIP3   OH226621   0.668   6.360   2.765  0.1588 -0.1035 -0.8990
  809TIP3    H126622   0.662   6.404   2.850 -0.0375 -0.7911 -0.5565
  809TIP3    H226623   0.744   6.302   2.773  1.0288  0.8707 -1.6884
  810TIP3   OH226624   4.069   2.662   8.606  0.2309  0.1455 -0.3204
  810TIP3    H126625   4.066   2.698   8.695 -0.1400  1.9506 -1.0113
  810TIP3    H226626   4.102   2.734   8.552  2.7303 -1.6251 -1.3546
  811TIP3   OH226627   1.921   2.300   7.433  0.2906  0.4612 -0.3867
  811TIP3    H126628   1.912   2.213   7.473  0.8390  0.5250 -0.1148
  811TIP3    H226629   1.833   2.337   7.436 -0.3718 -0.7882 -2.1360
  812TIP3   OH226630   6.697   6.246   0.454  0.0325  0.1235  0.0782
  812TIP3    H126631   6.703   6.287   0.367  2.0723 -0.0701  0.0780
  812TIP3    H226632   6.717   6.317   0.515 -0.8851  0.1406  0.3640
  813TIP3   OH226633   1.318   7.094   0.982 -0.2555 -0.3136 -0.5605
  813TIP3    H126634   1.286   7.131   0.900 -3.7667 -1.1048  0.2833
  813TIP3    H226635   1.279   7.149   1.050  2.4035  0.1999  0.6681
  814TIP3   OH226636   7.292   4.853   8.658  0.2227 -0.1145  0.5697
  814TIP3    H126637   7.291   4.946   8.636  2.4574 -0.0311  0.5849
  814TIP3    H226638   7.383   4.827   8.646 -0.1845 -2.1011  1.4485
  815TIP3   OH226639   1.886   0.020   9.553  0.0947 -0.3296 -0.0955
  815TIP3    H126640   1.912  -0.049   9.492 -0.2228  0.2479 -0.9111
  815TIP3    H226641   1.930  -0.002   9.635  0.0804 -1.4335 -0.3726
  816TIP3   OH226642   5.740   6.612   0.297 -0.1239  0.6765  0.2879
  816TIP3    H126643   5.743   6.517   0.287  0.0813  0.7442 -0.3100
  816TIP3    H226644   5.744   6.626   0.392 -1.5793  0.0472  0.4782
  817TIP3   OH226645   0.497   0.664   1.323  0.0378  0.2581 -0.0616
  817TIP3    H126646   0.479   0.604   1.395 -0.1121  0.7321  0.3014
  817TIP3    H226647   0.553   0.615   1.264 -1.6702 -0.9448 -0.7674
  818TIP3   OH226648   4.944   1.528   9.293 -0.4683  0.4996  0.5899
  818TIP3    H126649   4.896   1.456   9.333  0.5832 -0.5914 -0.0526
  818TIP3    H226650   5.033   1.520   9.328  0.1243  0.3461 -0.8861
  819TIP3   OH226651   0.861   1.244   8.538  0.0667  0.1359  0.4112
  819TIP3    H126652   0.790   1.179   8.536 -1.8353  2.0512  1.0803
  819TIP3    H226653   0.862   1.282   8.450  0.1766  0.1672  0.4261
  820TIP3   OH226654   2.892   6.020   1.415 -0.0737 -0.1354  0.3934
  820TIP3    H126655   2.886   6.111   1.444 -0.4322 -0.2436  0.6651
  820TIP3    H226656   2.893   5.969   1.496 -4.4910 -0.6691  0.3745
  821TIP3   OH226657   4.998   2.023   0.716 -0.2793 -0.2800  0.1960
  821TIP3    H126658   4.929   2.053   0.776  0.0928 -1.6214  1.3194
  821TIP3    H226659   4.951   1.972   0.650 -0.6498  0.9374 -0.5162
  822TIP3   OH226660   0.350   1.364   1.711 -0.5643 -0.0666  0.0526
  822TIP3    H126661   0.374   1.422   1.783 -1.1902  0.6749 -0.3178
  822TIP3    H226662   0.306   1.290   1.753 -2.8757  1.3524  0.3476
  823TIP3   OH226663   4.207   7.587   7.074 -0.1410  1.2432 -0.7117
  823TIP3    H126664   4.157   7.519   7.029  0.7710  0.6132 -0.8158
  823TIP3    H226665   4.293   7.547   7.089 -0.5363  1.1895  2.0847
  824TIP3   OH226666   2.092   0.387   8.708  0.0229  0.3760  0.1295
  824TIP3    H126667   2.166   0.447   8.702 -0.2001  0.5095 -1.7362
  824TIP3    H226668   2.057   0.402   8.796  1.4218  1.2296  0.5713
  825TIP3   OH226669   2.252   5.265   9.752  0.1348  0.5584  0.0347
  825TIP3    H126670   2.309   5.226   9.818 -0.8030 -1.3294 -0.2007
  825TIP3    H226671   2.172   5.289   9.799 -0.1935  0.0248 -0.2408
  826TIP3   OH226672   4.807   6.787   8.947 -0.1044  0.6333  0.0234
  826TIP3    H126673   4.742   6.856   8.938 -0.4121  0.6561  2.0224
  826TIP3    H226674   4.891   6.832   8.938 -0.3076  1.2659  1.1211
  827TIP3   OH226675   5.247   6.401   8.724 -0.3122 -0.1483 -0.1440
  827TIP3    H126676   5.336   6.398   8.758  0.0529 -0.6430 -1.0948
  827TIP3    H226677   5.195   6.440   8.794  0.5034 -0.6169  0.7356
  828TIP3   OH226678   2.729   3.146   7.970  0.1546 -0.0206 -0.4344
  828TIP3    H126679   2.690   3.186   8.047  0.5806  1.0017 -0.7220
  828TIP3    H226680   2.673   3.071   7.950 -0.2093 -0.0393  0.5993
  829TIP3   OH226681   0.849   1.874   1.412 -0.0932 -0.9860 -0.6932
  829TIP3    H126682   0.841   1.857   1.319 -1.9765 -1.0513 -0.5458
  829TIP3    H226683   0.919   1.815   1.441 -0.3325 -1.8482 -1.8279
  830TIP3   OH226684   4.719   2.765   1.087 -0.0314 -0.1549 -0.4402
  830TIP3    H126685   4.801   2.778   1.134 -0.5845 -1.3598  0.9374
  830TIP3    H226686   4.744   2.765   0.994  1.5525 -0.7211 -0.0433
  831TIP3   OH226687   1.987   0.588   7.120 -0.3296 -0.1919 -0.2968
  831TIP3    H126688   2.030   0.632   7.194 -0.1444 -1.6052  0.4740
  831TIP3    H226689   2.053   0.588   7.050  0.1214 -0.3526  0.1229
  832TIP3   OH226690   0.512   3.717   6.900  0.9058 -0.2294 -0.1419
  832TIP3    H126691   0.556   3.752   6.977  0.7357 -2.3162  0.9817
  832TIP3    H226692   0.543   3.627   6.894 -0.9407 -0.8584 -1.0489
  833TIP3   OH226693   3.030   3.149   7.098 -0.2294 -0.3033 -0.1966
  833TIP3    H126694   3.123   3.166   7.085 -0.5202  1.1838 -0.5139
  833TIP3    H226695   2.987   3.232   7.077 -1.5995 -0.8565  0.2899
  834TIP3   OH226696   2.934   0.718   0.951 -0.5015 -0.4819 -0.2070
  834TIP3    H126697   2.971   0.763   0.875  2.7473  0.1771  1.5931
  834TIP3    H226698   2.957   0.626   0.937  1.8922 -0.1127  0.7773
  835TIP3   OH226699   3.919   6.457   8.057 -0.2766  0.4007  0.3669
  835TIP3    H126700   3.839   6.488   8.100 -1.0826 -1.2593  0.1410
  835TIP3    H226701   3.989   6.480   8.117 -0.9860  1.3581  0.8544
  836TIP3   OH226702   0.479   2.847   2.156  0.6299 -0.6325  0.0266
  836TIP3    H126703   0.532   2.793   2.096 -0.6215 -1.1307 -0.6616
  836TIP3    H226704   0.450   2.920   2.102  0.2321 -0.6112  0.2669
  837TIP3   OH226705   0.739   1.713   9.794  0.4622  0.0423 -0.2686
  837TIP3    H126706   0.696   1.640   9.749  0.1664 -0.3918  0.6957
  837TIP3    H226707   0.683   1.788   9.777  0.3982 -0.0923 -0.6824
  838TIP3   OH226708   5.609   3.406   9.647  0.6357  0.1482  0.2193
  838TIP3    H126709   5.537   3.469   9.646  2.2381  2.0964 -0.8824
  838TIP3    H226710   5.575   3.330   9.694 -1.9531  1.1653  0.1112
  839TIP3   OH226711   5.178   6.931   1.188  0.1903  0.4224  0.1046
  839TIP3    H126712   5.120   6.946   1.113  0.5490 -0.1775 -0.2959
  839TIP3    H226713   5.143   6.989   1.256  2.3651  4.3678 -1.7756
  840TIP3   OH226714   4.538   5.798   9.719 -0.0557  0.0252 -0.6489
  840TIP3    H126715   4.625   5.835   9.728 -0.4243  1.8723 -3.5507
  840TIP3    H226716   4.551   5.703   9.729  2.0862  0.3316 -0.1112
  841TIP3   OH226717   5.943   0.763   2.396  0.2182 -0.2120 -0.1013
  841TIP3    H126718   5.927   0.720   2.480  2.5072  1.0480  1.0841
  841TIP3    H226719   5.939   0.691   2.332 -1.9759 -1.1317  0.9594
  842TIP3   OH226720   1.971   0.053   1.468 -0.2100  0.3141  0.0991
  842TIP3    H126721   1.961  -0.036   1.434 -1.0250  0.3061  0.3284
  842TIP3    H226722   1.889   0.097   1.444  0.4438  1.1954 -0.5589
  843TIP3   OH226723   3.601   7.240   9.468  0.2175  0.1339  0.0264
  843TIP3    H126724   3.556   7.201   9.393  0.5002 -0.9702  0.4091
  843TIP3    H226725   3.694   7.225   9.451  0.6677  3.7780 -1.5360
  844TIP3   OH226726   5.241   1.670   9.948  0.0335 -0.1081  0.1827
  844TIP3    H126727   5.271   1.657  10.038  1.2202  1.0769 -0.0047
  844TIP3    H226728   5.283   1.752   9.921 -2.4253  1.0083 -0.5556
  845TIP3   OH226729   0.892   7.636   2.358  0.0650 -0.1630  0.3442
  845TIP3    H126730   0.833   7.607   2.428 -1.7440  0.8654 -0.6763
  845TIP3    H226731   0.850   7.607   2.278  2.5737 -2.1496 -0.3721
  846TIP3   OH226732   0.747   1.416   1.804 -0.2121 -0.2854 -0.6303
  846TIP3    H126733   0.748   1.351   1.874 -1.6637  2.4281  2.2089
  846TIP3    H226734   0.832   1.459   1.810 -0.1894 -0.3076 -0.7953
  847TIP3   OH226735   0.317   4.145   1.396  0.3834  0.5654  0.1793
  847TIP3    H126736   0.338   4.221   1.342 -1.2042 -0.0555 -1.4262
  847TIP3    H226737   0.393   4.135   1.453  1.6254  2.0048 -1.1082
  848TIP3   OH226738   7.517   5.733   8.009 -0.1544  0.0849  0.3474
  848TIP3    H126739   7.547   5.818   7.979  0.7320 -0.5313 -0.5700
  848TIP3    H226740   7.546   5.672   7.941  1.6937 -1.3315  2.2550
  849TIP3   OH226741   1.269   2.878   1.862 -0.3121 -0.4792 -0.1589
  849TIP3    H126742   1.292   2.965   1.830 -3.4816  0.7541  0.5696
  849TIP3    H226743   1.321   2.867   1.942  0.6611  0.4040 -0.6493
  850TIP3   OH226744   4.174   0.848   9.278  0.1132 -0.0892 -0.2705
  850TIP3    H126745   4.110   0.821   9.212 -0.7030  1.9693 -0.3938
  850TIP3    H226746   4.219   0.767   9.302 -1.9868 -1.4963 -0.7532
  851TIP3   OH226747   7.388   6.042   7.845 -0.9225 -0.5113  0.0763
  851TIP3    H126748   7.334   6.069   7.770 -0.9168 -1.2676 -0.2102
  851TIP3    H226749   7.344   5.964   7.879 -0.6901 -0.4138  0.6012
  852TIP3   OH226750   2.693   5.405   0.775 -0.0252  0.5126  0.9179
  852TIP3    H126751   2.725   5.338   0.714 -2.2913  0.7950 -0.6786
  852TIP3    H226752   2.630   5.359   0.831  0.5579  0.7105  1.7628
  853TIP3   OH226753   4.485   5.661   0.242 -0.5633  0.2055 -0.0451
  853TIP3    H126754   4.517   5.695   0.325  1.1647  1.5941 -1.1917
  853TIP3    H226755   4.547   5.695   0.177 -0.2236 -3.0402 -1.6477
  854TIP3   OH226756   1.833   7.061   3.513 -0.4381 -0.1990 -0.6220
  854TIP3    H126757   1.838   6.970   3.540  0.5031 -0.1824 -0.7142
  854TIP3    H226758   1.746   7.090   3.541 -1.2913 -1.4967 -1.8155
  855TIP3   OH226759   0.114   3.609   8.437 -0.7570 -0.1579  0.3747
  855TIP3    H126760   0.027   3.640   8.464 -0.8675 -0.1057 -0.0428
  855TIP3    H226761   0.097   3.539   8.375 -0.5267  1.0590 -1.1277
  856TIP3   OH226762   5.398   4.418   9.438 -0.4450 -0.1021  0.2811
  856TIP3    H126763   5.410   4.379   9.351 -1.6384 -0.2700  0.1726
  856TIP3    H226764   5.317   4.379   9.471  0.6683 -1.0376  2.0453
  857TIP3   OH226765   2.964   6.851   9.136  0.0172  0.2621 -0.5557
  857TIP3    H126766   3.000   6.914   9.074 -0.6802  2.0761  0.8171
  857TIP3    H226767   3.015   6.863   9.216 -0.5440 -0.4790 -0.0676
  858TIP3   OH226768   0.172   5.462   0.904 -0.0040 -0.6788 -0.6676
  858TIP3    H126769   0.175   5.464   0.999 -0.3683 -1.8877 -0.6101
  858TIP3    H226770   0.246   5.516   0.875 -0.3209  0.2945  0.2800
  859TIP3   OH226771   3.280   0.176   1.144  0.1194  0.2166  0.4590
  859TIP3    H126772   3.201   0.122   1.140 -0.6449  1.3411 -0.0688
  859TIP3    H226773   3.305   0.175   1.236 -1.2429  0.8561  0.8646
  860TIP3   OH226774   5.998   7.359   0.792 -0.1879  0.3416  0.0333
  860TIP3    H126775   5.908   7.373   0.821 -0.4949  1.3208 -1.2895
  860TIP3    H226776   5.990   7.330   0.701  0.8004 -0.9155  0.3005
  861TIP3   OH226777   7.540   2.354   7.158 -0.4062  0.1656  0.3016
  861TIP3    H126778   7.604   2.282   7.157  0.0378  0.5191 -1.9733
  861TIP3    H226779   7.585   2.425   7.204  0.3337 -0.0308 -0.0986
  862TIP3   OH226780   6.959   5.513   6.812  0.0275  0.5264  0.5294
  862TIP3    H126781   7.049   5.536   6.835  0.9957 -0.7922 -1.6306
  862TIP3    H226782   6.909   5.593   6.829  1.5847  1.3229  1.6756
  863TIP3   OH226783   0.572   2.661   7.150 -0.1610 -0.0284  0.5412
  863TIP3    H126784   0.527   2.592   7.198 -0.2165  1.3582  2.6181
  863TIP3    H226785   0.551   2.741   7.198  0.3628  1.3767 -1.4418
  864TIP3   OH226786   4.324   1.704   2.079 -0.9118  0.7637  0.3227
  864TIP3    H126787   4.268   1.684   2.004  1.3221 -1.2631 -0.9549
  864TIP3    H226788   4.395   1.641   2.073 -0.4778  0.6823  4.0554
  865TIP3   OH226789   5.684   1.650   8.224  0.5235 -0.4196 -0.6189
  865TIP3    H126790   5.779   1.639   8.228  0.4404 -1.2496 -0.7021
  865TIP3    H226791   5.650   1.561   8.221 -0.3481 -0.1858  1.0268
  866TIP3   OH226792   5.464   1.126   1.560  0.1536 -0.6402 -0.3060
  866TIP3    H126793   5.387   1.097   1.609 -0.1304  0.7889  0.1588
  866TIP3    H226794   5.469   1.067   1.485 -1.2885 -0.8718 -0.2455
  867TIP3   OH226795   0.292   7.110   8.881  0.6076 -0.5555  0.4789
  867TIP3    H126796   0.329   7.042   8.826  0.9816 -0.1435  0.2121
  867TIP3    H226797   0.328   7.093   8.968  1.3409 -0.2234  0.2433
  868TIP3   OH226798   7.546   2.099   7.879  0.4857  0.3009  0.6381
  868TIP3    H126799   7.607   2.112   7.806 -1.4974  0.4279 -1.0882
  868TIP3    H226800   7.568   2.168   7.941  0.7744  1.6536 -0.8911
  869TIP3   OH226801   5.777   4.827   9.879 -0.0017  0.3817  0.1019
  869TIP3    H126802   5.735   4.821   9.964  0.9080  0.9034  0.6057
  869TIP3    H226803   5.845   4.760   9.881 -0.6222 -0.2852 -0.6052
  870TIP3   OH226804   5.175   6.483   0.540 -0.1900 -0.1098 -0.2248
  870TIP3    H126805   5.260   6.447   0.518 -0.8233 -1.2091 -0.9558
  870TIP3    H226806   5.147   6.436   0.618 -0.3189 -0.0819 -0.2523
  871TIP3   OH226807   6.793   6.176   0.152 -0.1909  0.5542 -0.3871
  871TIP3    H126808   6.828   6.091   0.127 -1.1136  0.2534 -0.7181
  871TIP3    H226809   6.857   6.239   0.120 -0.1353  0.0475 -1.3063
  872TIP3   OH226810   6.347   0.965   8.456  0.7297 -0.4688  0.4224
  872TIP3    H126811   6.398   1.045   8.462 -0.8510  0.4940  1.9644
  872TIP3    H226812   6.408   0.896   8.483  2.2532  0.0770 -1.3919
  873TIP3   OH226813   1.883   3.864   1.933 -0.6768 -0.1626 -0.8179
  873TIP3    H126814   1.878   3.955   1.962 -1.1401 -0.1416 -0.9662
  873TIP3    H226815   1.955   3.827   1.984  1.5174  1.0652 -2.8164
  874TIP3   OH226816   2.989   6.899   9.704  0.0031  0.1025  0.1788
  874TIP3    H126817   3.008   6.807   9.686  1.3568  0.9035 -3.1836
  874TIP3    H226818   2.909   6.917   9.654 -1.3504  0.3958  2.3131
  875TIP3   OH226819   0.554   7.116   6.881  0.3370 -0.3637 -0.6075
  875TIP3    H126820   0.516   7.141   6.798  1.4792  1.2295 -0.6992
  875TIP3    H226821   0.596   7.195   6.914 -2.6016 -0.0106  2.9717
  876TIP3   OH226822   5.216   5.536   8.339 -0.5156  0.1528 -0.4192
  876TIP3    H126823   5.213   5.594   8.415  0.7827  0.3189 -0.4884
  876TIP3    H226824   5.136   5.557   8.290 -0.6035  1.1022  0.1158
  877TIP3   OH226825   6.334   3.857   9.553  0.2682 -0.4655  0.0564
  877TIP3    H126826   6.319   3.842   9.646  0.6771 -0.2562  0.1568
  877TIP3    H226827   6.348   3.770   9.516  0.5966 -0.5055  0.2766
  878TIP3   OH226828   2.900   0.873   8.288 -0.0891  0.4001 -0.0718
  878TIP3    H126829   2.911   0.784   8.256 -0.4225  0.5729 -0.6714
  878TIP3    H226830   2.810   0.896   8.265 -0.2282  0.6452  0.6911
  879TIP3   OH226831   6.322   1.098   1.918 -0.3228  0.1415 -0.2908
  879TIP3    H126832   6.323   1.159   1.844  0.0542  1.1158  0.4960
  879TIP3    H226833   6.240   1.118   1.964  0.1861  0.6400  0.4239
  880TIP3   OH226834   2.154   3.863   7.214 -0.0462  0.1130 -0.7909
  880TIP3    H126835   2.127   3.774   7.189 -1.1206  0.7296 -1.9322
  880TIP3    H226836   2.229   3.882   7.157 -0.7297  0.4649 -1.5915
  881TIP3   OH226837   0.807   5.590   1.278  0.1250 -0.1427 -0.4213
  881TIP3    H126838   0.900   5.595   1.300 -0.2479  1.0435  1.0608
  881TIP3    H226839   0.803   5.607   1.183  1.3423  0.7210 -0.3326
  882TIP3   OH226840   7.068   5.216   9.458 -0.7907 -0.8649 -0.3778
  882TIP3    H126841   7.035   5.130   9.434 -1.2560 -0.3779 -1.5628
  882TIP3    H226842   6.992   5.262   9.494 -0.8613 -0.5398 -0.9194
  883TIP3   OH226843   5.111   0.768   1.493  0.2195 -0.1594  0.2346
  883TIP3    H126844   5.048   0.697   1.500 -0.6174  0.0416 -3.2568
  883TIP3    H226845   5.082   0.832   1.558 -0.7512 -1.7248  1.4265
  884TIP3   OH226846   4.200   3.273   8.856  0.0756  0.1868 -0.3728
  884TIP3    H126847   4.122   3.328   8.860  0.3062  0.5462 -0.7530
  884TIP3    H226848   4.202   3.228   8.941 -1.1810 -0.7233 -0.7952
  885TIP3   OH226849   7.447   1.795   8.100 -0.1416  0.3460 -0.3214
  885TIP3    H126850   7.505   1.856   8.147 -0.9579 -0.3005  1.6442
  885TIP3    H226851   7.504   1.750   8.039  1.2906  0.2782  1.0068
  886TIP3   OH226852   2.276   2.071   6.952 -0.2033  0.3985 -0.0849
  886TIP3    H126853   2.193   2.027   6.972 -0.9174  2.0610  0.7691
  886TIP3    H226854   2.309   2.100   7.037  1.1477  0.0113 -0.4468
  887TIP3   OH226855   4.642   7.640   7.871 -0.6090 -0.5859 -0.2486
  887TIP3    H126856   4.649   7.581   7.796  1.2544  0.4064 -0.9256
  887TIP3    H226857   4.608   7.722   7.834 -1.6606 -0.7146  0.3934
  888TIP3   OH226858   6.120   6.724   8.633 -0.3940  0.2753  0.7227
  888TIP3    H126859   6.206   6.688   8.654  0.4888  2.7431  1.6378
  888TIP3    H226860   6.086   6.756   8.716 -0.7955  2.1199 -0.1038
  889TIP3   OH226861   7.256   2.926   9.560  0.0825  0.3026  0.0949
  889TIP3    H126862   7.201   2.993   9.602 -0.6711 -1.5568  2.2979
  889TIP3    H226863   7.321   2.976   9.511 -3.0757  2.6234 -2.1312
  890TIP3   OH226864   1.364   4.862   9.559  0.2830  0.5368 -0.1968
  890TIP3    H126865   1.457   4.884   9.558  0.7063 -1.1298 -0.5181
  890TIP3    H226866   1.356   4.793   9.624 -0.3714 -0.6741 -1.5052
  891TIP3   OH226867   4.470   5.619   7.431 -0.0242  0.2285 -0.1828
  891TIP3    H126868   4.562   5.595   7.420  0.1057  0.4992  0.3023
  891TIP3    H226869   4.422   5.544   7.396  0.3748  0.3577 -1.0373
  892TIP3   OH226870   7.223   4.326   7.863 -0.3427  0.0610  0.6778
  892TIP3    H126871   7.140   4.300   7.823 -0.1151  0.6277 -0.1827
  892TIP3    H226872   7.285   4.327   7.791  0.4173 -0.3083  1.3053
  893TIP3   OH226873   7.705   7.581   8.468 -0.0565  0.6839  0.3920
  893TIP3    H126874   7.609   7.585   8.471 -0.2081 -0.5083 -1.4310
  893TIP3    H226875   7.730   7.648   8.404  0.0948 -0.7449 -1.1060
  894TIP3   OH226876   2.029   2.573   0.837 -0.2243 -0.0785 -0.2126
  894TIP3    H126877   2.111   2.580   0.788 -1.2144  0.2303 -1.8874
  894TIP3    H226878   2.047   2.509   0.905  1.9363  1.2427  0.5719
  895TIP3   OH226879   1.091   0.944   8.872 -0.4676 -0.0592 -0.1344
  895TIP3    H126880   1.181   0.913   8.864 -0.3259  0.6665 -2.0981
  895TIP3    H226881   1.062   0.956   8.781 -3.5940 -3.1394  0.2388
  896TIP3   OH226882   3.468   2.504   8.618  0.0641 -0.1827 -0.2230
  896TIP3    H126883   3.560   2.527   8.634 -0.2763  0.6982  0.5494
  896TIP3    H226884   3.435   2.477   8.704 -0.6768  0.5093 -0.2831
  897TIP3   OH226885   2.372   1.873   1.372  0.1290 -0.3523 -0.1438
  897TIP3    H126886   2.325   1.803   1.327 -0.0506 -0.3166 -0.0120
  897TIP3    H226887   2.459   1.837   1.388  0.8456  0.3055 -2.2323
  898TIP3   OH226888   4.748   5.270   8.429  0.4235  0.4210 -0.1622
  898TIP3    H126889   4.787   5.226   8.353  1.0538 -0.6562  0.7595
  898TIP3    H226890   4.821   5.283   8.489 -0.1697  0.7373  0.5038
  899TIP3   OH226891   0.901   2.516   7.294 -0.6844  0.1677  0.3826
  899TIP3    H126892   0.933   2.435   7.253 -0.0059  0.9711 -0.7221
  899TIP3    H226893   0.820   2.535   7.247 -1.3775 -0.3723  1.3125
  900TIP3   OH226894   3.539   6.133   7.069  0.8051 -0.3148  0.4529
  900TIP3    H126895   3.463   6.184   7.040  2.0856  0.7351 -1.2374
  900TIP3    H226896   3.559   6.166   7.156  0.2077  0.4113  0.3253
  901TIP3   OH226897   2.144   7.299   8.208  0.5791 -0.4154 -0.4410
  901TIP3    H126898   2.215   7.289   8.144  0.8065  0.4471 -0.3284
  901TIP3    H226899   2.065   7.311   8.155  0.6061 -0.7522 -0.5606
  902TIP3   OH226900   5.398   7.244   8.049 -0.4508 -0.4929 -0.1302
  902TIP3    H126901   5.428   7.153   8.057 -0.5149 -0.5920 -0.9182
  902TIP3    H226902   5.308   7.236   8.018  0.0499 -0.1611 -1.7768
  903TIP3   OH226903   3.861   7.528   2.621  0.2882 -0.5304 -0.5709
  903TIP3    H126904   3.933   7.499   2.565  1.4475  1.1082  0.0042
  903TIP3    H226905   3.785   7.530   2.562  0.9372 -1.2405 -1.4627
  904TIP3   OH226906   2.081   0.150   0.452 -0.9435 -0.1956 -0.3670
  904TIP3    H126907   2.024   0.122   0.381 -1.3964  1.0509 -0.5206
  904TIP3    H226908   2.137   0.075   0.469 -2.8444 -1.5840  0.0303
  905TIP3   OH226909   5.026   2.416   1.337  0.0467 -0.1469 -0.4504
  905TIP3    H126910   5.029   2.323   1.317 -1.3568 -0.4500  0.6109
  905TIP3    H226911   4.958   2.451   1.279 -0.7728 -0.1711  0.4598
  906TIP3   OH226912   0.848   3.225   8.574 -0.2837  0.1971 -0.2968
  906TIP3    H126913   0.892   3.174   8.505 -1.8368 -0.2977 -0.9594
  906TIP3    H226914   0.904   3.214   8.651  0.5298 -0.7636 -0.9967
  907TIP3   OH226915   4.231   0.623   9.837  0.0691  0.5564  0.2880
  907TIP3    H126916   4.302   0.657   9.782  0.3751 -0.7737 -0.1620
  907TIP3    H226917   4.250   0.530   9.847 -2.5599 -0.2834 -1.3767
  908TIP3   OH226918   1.447   1.539   9.509  0.2269 -0.7356  0.2105
  908TIP3    H126919   1.360   1.511   9.538  0.2939 -0.6745  0.4714
  908TIP3    H226920   1.431   1.600   9.437 -0.0310  0.8765  1.5637
  909TIP3   OH226921   1.890   4.686   2.051 -0.0576 -0.2995 -0.0303
  909TIP3    H126922   1.963   4.718   1.998 -0.5011 -0.0356 -0.4843
  909TIP3    H226923   1.932   4.631   2.118  0.5993  0.2547  0.0267
  910TIP3   OH226924   1.712   5.574   1.220 -0.0439  0.2960 -0.3271
  910TIP3    H126925   1.656   5.602   1.293  0.8347  0.8189  0.1712
  910TIP3    H226926   1.739   5.655   1.178 -0.3157  0.0081 -1.0755
  911TIP3   OH226927   1.414   6.928   8.161  0.2380 -0.3253  0.6168
  911TIP3    H126928   1.384   6.971   8.241  0.7398 -1.1101  1.2420
  911TIP3    H226929   1.354   6.959   8.093 -0.8792 -0.4850  1.4956
  912TIP3   OH226930   5.683   6.375   7.782  0.3824 -0.2569 -0.5090
  912TIP3    H126931   5.719   6.392   7.869 -0.8317 -1.5449  0.3007
  912TIP3    H226932   5.758   6.378   7.724  1.1415  1.1691  0.4886
  913TIP3   OH226933   0.414   6.379   8.606  0.3844 -0.4051  0.0848
  913TIP3    H126934   0.427   6.417   8.693  0.3499 -0.2039  0.0021
  913TIP3    H226935   0.344   6.314   8.619  0.3430 -0.3389  0.1962
  914TIP3   OH226936   6.529   5.585   1.035  0.3778 -0.2138 -0.0535
  914TIP3    H126937   6.532   5.665   1.087 -0.1444  0.3043 -0.7977
  914TIP3    H226938   6.605   5.591   0.977  2.3243 -1.8836  2.1380
  915TIP3   OH226939   2.702   2.657   8.201 -0.2111  0.4205 -0.0451
  915TIP3    H126940   2.726   2.611   8.120 -0.3571  0.6042 -0.1965
  915TIP3    H226941   2.785   2.694   8.232  0.0732 -0.7049  0.5791
  916TIP3   OH226942   7.550   1.656   7.854  0.0308  0.2805  0.0420
  916TIP3    H126943   7.504   1.610   7.784 -0.1034  1.7012 -0.8322
  916TIP3    H226944   7.637   1.675   7.818 -0.2062  1.4579  0.0486
  917TIP3   OH226945   3.957   6.113   8.948  0.3691  0.9304  0.3934
  917TIP3    H126946   4.038   6.094   8.995 -1.3827 -3.1516  2.2523
  917TIP3    H226947   3.907   6.168   9.008  0.0996 -0.1850  1.2275
  918TIP3   OH226948   6.398   0.756   7.894  0.4024 -0.2016  0.3129
  918TIP3    H126949   6.442   0.712   7.821  3.4190  1.2297  1.1123
  918TIP3    H226950   6.380   0.844   7.862  0.6251  0.0475  0.8497
  919TIP3   OH226951   1.609   1.085   8.769 -0.2059  0.3552 -0.5772
  919TIP3    H126952   1.611   1.147   8.696 -1.8844 -0.0856 -1.0406
  919TIP3    H226953   1.632   1.138   8.846  2.9373  0.5598 -1.5159
  920TIP3   OH226954   2.375   0.270   8.131  0.1773 -0.5351 -0.0615
  920TIP3    H126955   2.342   0.342   8.078 -2.1759 -1.3616  0.1877
  920TIP3    H226956   2.419   0.212   8.069  0.5706  0.2578 -0.5293
  921TIP3   OH226957   7.597   7.575   7.932 -0.4105  0.2320 -0.1882
  921TIP3    H126958   7.657   7.560   7.859 -1.7571 -0.4373 -1.2140
  921TIP3    H226959   7.602   7.669   7.949 -0.4253  0.4828 -1.4738
  922TIP3   OH226960   4.969   7.396   8.490 -0.7644  0.0840  0.3565
  922TIP3    H126961   4.929   7.421   8.573 -1.4376 -0.5857  0.2461
  922TIP3    H226962   4.960   7.300   8.487  2.3247 -0.3245  1.0869
  923TIP3   OH226963   4.345   3.486   9.261  0.5482  0.7326 -0.3156
  923TIP3    H126964   4.263   3.475   9.309 -0.1253  0.9920 -1.3822
  923TIP3    H226965   4.412   3.457   9.323 -0.2658  1.2808  0.8783
  924TIP3   OH226966   6.533   6.531   8.309 -0.1673 -0.3149  0.0336
  924TIP3    H126967   6.460   6.546   8.369 -2.3479 -1.3438 -2.1711
  924TIP3    H226968   6.536   6.610   8.256  0.6679 -0.0750  0.4330
  925TIP3   OH226969   1.344   2.765   3.241 -0.5150 -0.2713  0.2353
  925TIP3    H126970   1.385   2.744   3.325 -0.3784 -0.4254  0.1298
  925TIP3    H226971   1.331   2.681   3.198 -1.9816 -0.3286  0.7411
  926TIP3   OH226972   4.151   5.858   7.927 -0.1129 -0.2189 -0.0378
  926TIP3    H126973   4.134   5.938   7.877  2.1271 -0.7566 -1.7889
  926TIP3    H226974   4.158   5.789   7.861  2.9541 -0.9742  0.9260
  927TIP3   OH226975   2.405   6.008   1.629  0.2381  0.2264  0.2813
  927TIP3    H126976   2.425   6.027   1.721 -1.8427  0.0554  0.8443
  927TIP3    H226977   2.313   5.979   1.631  0.6419 -1.3965 -1.6555
  928TIP3   OH226978   0.544   3.302   0.881  0.6253 -0.3115  0.1744
  928TIP3    H126979   0.490   3.329   0.955  0.8961 -0.7717  0.5461
  928TIP3    H226980   0.528   3.369   0.814  0.2154 -0.0079  0.5678
  929TIP3   OH226981   6.101   3.176   7.298 -0.2718 -0.7817 -0.5534
  929TIP3    H126982   6.096   3.082   7.281  0.4705 -1.1548  1.1050
  929TIP3    H226983   6.186   3.188   7.341 -0.5178  0.5990 -0.4109
  930TIP3   OH226984   6.449   6.545   7.899 -0.6869 -0.0694  0.3334
  930TIP3    H126985   6.374   6.591   7.938  0.4511  0.6664  1.7392
  930TIP3    H226986   6.525   6.594   7.929  0.3257  1.0273 -3.3895
  931TIP3   OH226987   4.759   6.202   8.612  0.0208  0.3189  0.2366
  931TIP3    H126988   4.818   6.177   8.542  0.7037  2.0424  0.1512
  931TIP3    H226989   4.774   6.138   8.681  1.0439 -0.0217 -0.2908
  932TIP3   OH226990   5.734   0.294   9.976 -0.1198 -0.1920  0.3429
  932TIP3    H126991   5.785   0.316  10.054  0.8432 -0.9837 -0.0373
  932TIP3    H226992   5.705   0.204   9.992 -0.6950 -0.0380  0.1810
  933TIP3   OH226993   7.285   0.823   9.006 -0.0311 -0.8175 -0.0565
  933TIP3    H126994   7.374   0.835   8.973 -0.3587  0.5319 -0.4974
  933TIP3    H226995   7.241   0.769   8.940 -0.3404  0.8807 -1.2741
  934TIP3   OH226996   1.161   1.423   0.159  0.0454 -0.0313 -0.2362
  934TIP3    H126997   1.181   1.334   0.188  1.2238 -0.2488 -1.5748
  934TIP3    H226998   1.211   1.479   0.218  0.7068 -0.3541 -0.4810
  935TIP3   OH226999   3.937   2.648   0.534 -0.0282  0.2549 -0.1343
  935TIP3    H127000   3.875   2.642   0.607  0.0553 -2.0489 -0.1595
  935TIP3    H227001   4.016   2.604   0.567  0.8608  1.3001 -0.8223
  936TIP3   OH227002   2.624   5.742   8.760 -0.4591  0.4183  0.4907
  936TIP3    H127003   2.655   5.667   8.810  0.5368  1.1798  1.0583
  936TIP3    H227004   2.685   5.813   8.782 -0.2664  0.9213 -1.4414
  937TIP3   OH227005   0.781   6.108   9.318  0.0603 -0.3906  0.7861
  937TIP3    H127006   0.855   6.103   9.378  1.2399  0.9227 -0.4832
  937TIP3    H227007   0.704   6.109   9.374  1.1501  2.9997  2.4858
  938TIP3   OH227008   7.274   5.830   7.590  0.0331  0.0029  0.5309
  938TIP3    H127009   7.278   5.925   7.578  3.6598 -0.3179 -2.8628
  938TIP3    H227010   7.341   5.812   7.656 -1.1716 -0.2406  1.7349
  939TIP3   OH227011   1.657   4.869   7.358 -0.1207  0.1455 -0.3981
  939TIP3    H127012   1.738   4.820   7.358 -0.7108 -0.8874 -1.3685
  939TIP3    H227013   1.670   4.937   7.291  0.4304  0.8947  0.4394
  940TIP3   OH227014   2.761   4.457   9.017 -1.0173 -0.7779 -0.5033
  940TIP3    H127015   2.672   4.491   9.006 -1.0115 -0.3631  0.6568
  940TIP3    H227016   2.808   4.528   9.061 -0.0952 -0.9791 -1.1499
  941TIP3   OH227017   5.744   6.774   9.736  0.2937 -0.2232 -0.4146
  941TIP3    H127018   5.775   6.863   9.755 -1.7636  0.3981  0.3242
  941TIP3    H227019   5.677   6.786   9.668 -2.2828 -0.7165  1.8456
  942TIP3   OH227020   1.770   2.601   7.800  0.5054 -0.2914  0.5068
  942TIP3    H127021   1.736   2.537   7.737  0.0465 -0.6071  1.0709
  942TIP3    H227022   1.727   2.579   7.882 -1.7364  2.3303  0.1955
  943TIP3   OH227023   7.417   2.202   1.977 -0.2594  0.1556 -0.0042
  943TIP3    H127024   7.370   2.244   2.049 -0.1303 -1.6712  1.2069
  943TIP3    H227025   7.351   2.191   1.908 -0.3081  2.1852 -0.3372
  944TIP3   OH227026   7.668   3.218   9.192  0.1698 -0.3900 -0.1311
  944TIP3    H127027   7.589   3.259   9.158  1.6662  1.9070 -1.0484
  944TIP3    H227028   7.699   3.163   9.119  0.4687  0.2946 -0.5346
  945TIP3   OH227029   1.714   3.363   8.912  0.4924 -0.0030 -0.4421
  945TIP3    H127030   1.641   3.305   8.892  0.5326 -0.1868 -0.0772
  945TIP3    H227031   1.786   3.304   8.934  0.1100  0.1636  1.4309
  946TIP3   OH227032   3.414   3.309   7.606 -0.2600  0.3319 -0.0200
  946TIP3    H127033   3.417   3.225   7.652  0.3454  0.5909  0.4225
  946TIP3    H227034   3.366   3.290   7.525 -1.8674 -0.0084  0.9618
  947TIP3   OH227035   1.878   6.353   0.726 -0.0418 -0.2633 -0.2117
  947TIP3    H127036   1.867   6.445   0.750  0.9798 -0.2019  0.0746
  947TIP3    H227037   1.894   6.308   0.809 -0.0521 -0.6247 -0.4035
  948TIP3   OH227038   0.991   4.211   8.600 -0.0669 -0.0102 -0.9352
  948TIP3    H127039   0.993   4.185   8.508  2.8931 -0.7803 -0.7305
  948TIP3    H227040   1.000   4.129   8.648 -0.6107  0.4833  0.0486
  949TIP3   OH227041   4.915   0.038   7.622 -0.1566 -0.0146  0.0854
  949TIP3    H127042   4.842   0.044   7.561 -0.9398 -0.8417  0.9090
  949TIP3    H227043   4.889  -0.029   7.685  0.9695  0.2450  0.8683
  950TIP3   OH227044   3.058   7.220   8.126  0.1898  0.1107  0.5129
  950TIP3    H127045   3.033   7.133   8.159 -1.3384  0.2239 -0.2595
  950TIP3    H227046   2.976   7.259   8.097  1.1000  1.1394 -0.7699
  951TIP3   OH227047   1.804   1.296   1.548  0.0205  0.0065 -0.2463
  951TIP3    H127048   1.858   1.361   1.594 -0.2406  0.7400 -0.9503
  951TIP3    H227049   1.866   1.242   1.500  0.1433  0.9571 -1.1958
  952TIP3   OH227050   7.266   2.128   9.852 -0.1231 -0.1511 -0.3362
  952TIP3    H127051   7.212   2.197   9.813  0.4532  0.8293  0.5421
  952TIP3    H227052   7.311   2.171   9.925  2.4433 -0.7322 -1.4712
  953TIP3   OH227053   0.742   0.587   7.725 -0.9758  0.2598  0.3028
  953TIP3    H127054   0.660   0.555   7.762 -0.7542  1.4467  1.9040
  953TIP3    H227055   0.792   0.618   7.801 -0.4879  2.7771 -0.9501
  954TIP3   OH227056   5.263   4.125   8.189 -0.1849 -0.1171  0.1700
  954TIP3    H127057   5.309   4.200   8.229  0.5595 -0.3127 -0.2964
  954TIP3    H227058   5.174   4.157   8.176 -0.1293  0.3637  0.8568
  955TIP3   OH227059   5.170   1.795   1.116 -0.0941  0.5672  0.0212
  955TIP3    H127060   5.143   1.735   1.047 -2.5694  1.6648 -0.0594
  955TIP3    H227061   5.152   1.747   1.198  2.5706 -0.6188  0.0332
  956TIP3   OH227062   1.378   2.935   9.786 -0.2424  0.1229  0.6211
  956TIP3    H127063   1.469   2.961   9.793  0.3601 -1.5853 -0.2401
  956TIP3    H227064   1.357   2.944   9.693 -0.8105  0.1058  0.7421
  957TIP3   OH227065   5.382   2.912   9.720 -0.1556 -0.3525  0.1812
  957TIP3    H127066   5.448   2.930   9.654 -0.1492 -0.3434  0.1904
  957TIP3    H227067   5.371   2.817   9.719  0.5403 -0.4543  0.8378
  958TIP3   OH227068   7.362   4.953   0.007  0.0058  0.0202  0.2082
  958TIP3    H127069   7.380   5.041   0.039 -0.7426  0.7663 -1.3670
  958TIP3    H227070   7.396   4.951  -0.082  1.2797 -1.7617  0.6658
  959TIP3   OH227071   1.517   1.011   0.246  0.1500  0.3897 -0.2964
  959TIP3    H127072   1.524   0.953   0.169 -0.0330  1.6907 -1.3270
  959TIP3    H227073   1.606   1.018   0.279  0.1348 -0.6821  0.0060
  960TIP3   OH227074   3.438   2.037   0.564 -0.1238  0.3876 -0.3081
  960TIP3    H127075   3.430   2.132   0.576 -0.5344  0.1769  1.2445
  960TIP3    H227076   3.403   2.022   0.476 -0.6490  1.5981 -0.3326
  961TIP3   OH227077   5.246   4.161   8.522 -0.6513 -0.6051  0.7002
  961TIP3    H127078   5.221   4.209   8.601 -0.2091  2.5768 -0.9178
  961TIP3    H227079   5.165   4.150   8.474 -0.6737 -1.1180  0.8428
  962TIP3   OH227080   0.380   0.558   2.008 -0.1290 -0.4723  0.1644
  962TIP3    H127081   0.429   0.480   1.982  0.0329 -0.2231 -0.2722
  962TIP3    H227082   0.429   0.631   1.970  0.1184 -0.0999  1.1504
  963TIP3   OH227083   6.050   3.621   0.692  0.0212 -0.0305  0.1065
  963TIP3    H127084   6.001   3.632   0.773 -0.0827  0.0661  0.0312
  963TIP3    H227085   6.075   3.710   0.666  1.0745 -0.1495  0.6563
  964TIP3   OH227086   4.290   1.153   8.210 -0.2704  0.7516  0.3668
  964TIP3    H127087   4.350   1.083   8.237 -0.2012  0.3939 -0.6991
  964TIP3    H227088   4.266   1.196   8.293  1.3338  0.8116  0.8382
  965TIP3   OH227089   3.673   4.628   7.308  0.2774  0.6851  0.2308
  965TIP3    H127090   3.718   4.579   7.376  0.8639 -0.0813 -0.6836
  965TIP3    H227091   3.694   4.720   7.326 -0.1496  0.5523  1.4741
  966TIP3   OH227092   5.038   6.725   7.800 -0.0155  0.2736 -0.2827
  966TIP3    H127093   4.967   6.784   7.825  0.5447  0.7261  0.2767
  966TIP3    H227094   5.033   6.653   7.863  0.8459  0.9715  0.5916
  967TIP3   OH227095   6.731   0.135   0.273 -0.0559 -0.5582 -0.3534
  967TIP3    H127096   6.769   0.117   0.186 -0.0449 -1.2940 -0.2055
  967TIP3    H227097   6.802   0.119   0.334  0.4840  1.7529 -0.2967
  968TIP3   OH227098   4.186   2.947   9.092  0.2649 -0.5624 -0.1267
  968TIP3    H127099   4.254   3.015   9.089  0.0661 -0.2188  1.9023
  968TIP3    H227100   4.234   2.866   9.074  1.4356 -0.4213  1.9452
  969TIP3   OH227101   1.529   4.578   0.939  0.4655 -0.0011 -0.2704
  969TIP3    H127102   1.572   4.527   0.871  1.4006  0.5880 -0.1328
  969TIP3    H227103   1.572   4.553   1.020 -0.7459 -0.8136  0.1554
  970TIP3   OH227104   3.457   7.273   8.991 -0.4084 -0.1395 -0.5814
  970TIP3    H127105   3.538   7.318   9.017  2.1083 -3.3449 -2.0779
  970TIP3    H227106   3.387   7.331   9.019  2.3112  2.0332  2.4910
  971TIP3   OH227107   1.816   6.252   0.980 -0.6210  0.0437 -0.5368
  971TIP3    H127108   1.877   6.196   1.028 -1.6464  0.2535  1.1211
  971TIP3    H227109   1.730   6.229   1.016 -1.0726  2.7843  0.3620
  972TIP3   OH227110   6.154   5.793   2.907 -0.5772 -0.0916  0.6213
  972TIP3    H127111   6.136   5.885   2.924  0.5270  0.0258  1.2687
  972TIP3    H227112   6.188   5.759   2.990  0.6204 -0.6532 -0.0581
  973TIP3   OH227113   5.629   7.397   8.368 -0.2526 -0.0007  0.5145
  973TIP3    H127114   5.613   7.405   8.274 -0.4101 -0.2078  0.5234
  973TIP3    H227115   5.599   7.481   8.404 -2.0734 -0.6487  0.6309
  974TIP3   OH227116   0.513   6.887   2.627 -0.2009  0.1781  1.0765
  974TIP3    H127117   0.509   6.922   2.716 -1.3095  1.3043  0.6170
  974TIP3    H227118   0.522   6.793   2.639 -0.6340  0.2784  2.3952
  975TIP3   OH227119   3.528   1.401   2.883  0.2578  0.5225  1.0621
  975TIP3    H127120   3.601   1.381   2.824 -0.0447 -1.4876  1.3102
  975TIP3    H227121   3.509   1.494   2.867  1.2020  0.4317 -0.8663
  976TIP3   OH227122   2.111   6.657   2.895 -0.2870 -0.3476 -0.7765
  976TIP3    H127123   2.096   6.724   2.829  0.4877  0.9674  0.3341
  976TIP3    H227124   2.029   6.654   2.945 -0.0025  0.4882 -0.2343
  977TIP3   OH227125   4.361   5.194   9.451  0.3016  0.1269  0.2412
  977TIP3    H127126   4.298   5.237   9.393 -0.3516  0.1668  0.9599
  977TIP3    H227127   4.306   5.153   9.518  0.8491 -2.1537 -0.6145
  978TIP3   OH227128   5.889   5.974   9.804 -0.1272  0.0430 -0.0981
  978TIP3    H127129   5.829   5.984   9.878  1.0693  1.0126  0.7746
  978TIP3    H227130   5.880   5.882   9.779  0.6068 -0.7683  2.3170
  979TIP3   OH227131   0.998   1.819   0.281 -0.0870 -0.1165  0.9175
  979TIP3    H127132   0.949   1.899   0.303 -1.4391 -0.8561  0.6752
  979TIP3    H227133   0.931   1.758   0.251  1.1409 -0.7630 -0.5979
  980TIP3   OH227134   0.060   7.225   7.808 -0.0628  0.1253  0.2381
  980TIP3    H127135   0.019   7.287   7.748  0.7757  0.5207  0.0476
  980TIP3    H227136   0.142   7.268   7.833  0.9310 -1.2675 -0.5362
  981TIP3   OH227137   1.239   2.508  -0.060  0.0389  0.4768  0.1666
  981TIP3    H127138   1.160   2.561  -0.069  0.5461  1.2358  0.0365
  981TIP3    H227139   1.300   2.564  -0.012  0.1754 -0.4601  1.1242
  982TIP3   OH227140   7.477   5.722   2.169  0.4071 -0.3668  0.5286
  982TIP3    H127141   7.457   5.677   2.086 -0.5932 -0.7849  0.9693
  982TIP3    H227142   7.427   5.804   2.164 -0.7299 -0.9792  1.2344
  983TIP3   OH227143   5.403   4.094   7.675  0.2922 -0.1192  0.2442
  983TIP3    H127144   5.349   4.061   7.603 -0.2965  0.2978  0.4856
  983TIP3    H227145   5.393   4.029   7.745 -0.2787  0.1920  0.4563
  984TIP3   OH227146   7.378   6.596   1.240 -0.4767  0.3540  0.3406
  984TIP3    H127147   7.325   6.535   1.291  0.1167 -0.0204  0.5281
  984TIP3    H227148   7.334   6.680   1.249 -0.1979  0.3768  1.7872
  985TIP3   OH227149   5.000   0.625   9.592  0.6421  0.0740 -0.2899
  985TIP3    H127150   5.010   0.704   9.645 -1.3295 -0.6256  1.2820
  985TIP3    H227151   5.038   0.555   9.646  1.1530 -0.2457 -1.0614
  986TIP3   OH227152   6.481   0.570   8.075  0.1586 -0.0568  0.1056
  986TIP3    H127153   6.473   0.649   8.023  0.5908  0.8010  1.2982
  986TIP3    H227154   6.533   0.510   8.021 -0.8888  0.1303 -1.1605
  987TIP3   OH227155   1.351   3.612   9.360  0.2562 -0.2215  0.0666
  987TIP3    H127156   1.438   3.589   9.327 -0.0422  0.4823 -1.2748
  987TIP3    H227157   1.307   3.528   9.373  1.2189 -0.6034  1.0829
  988TIP3   OH227158   5.221   0.984   1.903  0.4976 -0.1297  0.9539
  988TIP3    H127159   5.236   1.059   1.961  0.9461  0.3246  0.2637
  988TIP3    H227160   5.243   1.016   1.815  1.2419 -1.2413  0.7175
  989TIP3   OH227161   0.267   6.983   2.577  0.1153 -0.4037 -0.1467
  989TIP3    H127162   0.361   6.961   2.573 -0.4332 -2.7953 -2.0459
  989TIP3    H227163   0.233   6.929   2.648 -0.1904 -1.2015 -0.8909
  990TIP3   OH227164   0.978   0.674   2.083 -0.1980  0.1590  0.2602
  990TIP3    H127165   1.004   0.748   2.027 -0.7499  0.2640  0.1305
  990TIP3    H227166   0.988   0.707   2.172 -1.9792  0.9709  0.2054
  991TIP3   OH227167   3.149   2.741   9.601 -0.3129 -0.2998 -0.2355
  991TIP3    H127168   3.085   2.806   9.631  0.3571  0.2354  0.0522
  991TIP3    H227169   3.106   2.698   9.527 -0.6025  0.7606 -0.7005
  992TIP3   OH227170   6.883   4.135   0.485 -0.0627  0.4289 -0.2844
  992TIP3    H127171   6.921   4.087   0.412  1.8422  0.2796  0.7421
  992TIP3    H227172   6.926   4.100   0.562 -0.7832  1.7501  0.7627
  993TIP3   OH227173   4.929   0.327   7.928  0.1789  0.1453 -0.4024
  993TIP3    H127174   4.842   0.339   7.965  0.6568  1.9109  0.2453
  993TIP3    H227175   4.965   0.251   7.974  0.6925  2.1559  2.7791
  994TIP3   OH227176   0.360   2.383   0.345 -0.5468 -0.6730 -0.1820
  994TIP3    H127177   0.324   2.459   0.391  0.2636 -1.2327  1.4456
  994TIP3    H227178   0.413   2.421   0.274  0.5101  0.3572  1.0983
  995TIP3   OH227179   4.966   3.044   0.866  0.3330 -0.4094 -0.3185
  995TIP3    H127180   4.879   3.031   0.828  0.3416 -0.0839 -0.4553
  995TIP3    H227181   5.024   3.058   0.792  0.3213  0.3858 -0.1944
  996TIP3   OH227182   3.733   1.320   0.378  0.1353  0.0833 -0.2270
  996TIP3    H127183   3.753   1.350   0.290  0.8342  0.2055 -0.0334
  996TIP3    H227184   3.808   1.266   0.403  0.9874  1.8021  1.1006
  997TIP3   OH227185   0.557   2.215   9.108 -0.0691 -0.2624  0.1587
  997TIP3    H127186   0.624   2.185   9.170  0.2014 -1.7999 -0.8247
  997TIP3    H227187   0.479   2.164   9.131 -0.2640 -0.0764 -0.0891
  998TIP3   OH227188   4.652   2.758   8.681 -0.4217  0.1282 -0.7552
  998TIP3    H127189   4.693   2.844   8.687 -0.6800  0.1529  1.4361
  998TIP3    H227190   4.559   2.776   8.667 -0.3584  0.1751 -1.1279
  999TIP3   OH227191   1.321   4.998   1.352  0.0423  0.2609  0.3035
  999TIP3    H127192   1.296   5.087   1.328  0.8535  0.0049 -1.7771
  999TIP3    H227193   1.350   4.959   1.269  0.7730 -1.5800  1.3669
 1000TIP3   OH227194   6.685   1.094   7.174  0.4585 -0.0964  0.2557
 1000TIP3    H127195   6.721   1.077   7.087 -0.7284  0.6075 -0.3903
 1000TIP3    H227196   6.755   1.139   7.221  1.5591 -1.5568  0.0950
 1001TIP3   OH227197   5.006   4.739   7.104 -0.1822 -0.2912 -0.2097
 1001TIP3    H127198   5.011   4.820   7.053  1.9360 -0.5547 -0.4941
 1001TIP3    H227199   4.959   4.765   7.184  0.6341  1.2883 -0.1931
 1002TIP3   OH227200   1.292   0.308   7.373  0.1573  0.1358  0.7458
 1002TIP3    H127201   1.346   0.349   7.306 -1.0583  3.8770  1.8537
 1002TIP3    H227202   1.349   0.300   7.449  0.0632  1.0721  0.9233
 1003TIP3   OH227203   0.071   2.701   0.732  0.0946  0.0831 -0.2127
 1003TIP3    H127204   0.101   2.790   0.714  1.1126 -0.2629 -0.3406
 1003TIP3    H227205   0.140   2.663   0.787 -1.9356  0.4505  2.8083
 1004TIP3   OH227206   4.238   1.122   9.276 -0.4722 -0.3062  0.0936
 1004TIP3    H127207   4.223   1.030   9.259  2.5393 -0.8096 -0.4170
 1004TIP3    H227208   4.306   1.123   9.344 -0.8232  1.5423  0.4760
 1005TIP3   OH227209   6.521  -0.040   7.605 -0.2673  0.0345 -0.3220
 1005TIP3    H127210   6.539   0.043   7.561  0.3710  0.5171  0.8284
 1005TIP3    H227211   6.440  -0.026   7.654 -1.7267 -0.9099 -2.2969
 1006TIP3   OH227212   0.598   6.384   1.493  0.0291 -0.6314  0.2465
 1006TIP3    H127213   0.528   6.368   1.556  0.1954  1.2488  0.9735
 1006TIP3    H227214   0.677   6.348   1.533 -0.3902 -2.4505 -0.4265
 1007TIP3   OH227215   7.586   1.685   0.970 -0.3858  0.2068 -0.1074
 1007TIP3    H127216   7.502   1.702   0.927 -0.7118  0.6670  0.6944
 1007TIP3    H227217   7.652   1.708   0.904 -0.8823 -0.0180 -0.6913
 1008TIP3   OH227218   0.753   3.310   9.758 -0.6198 -0.3272  0.9537
 1008TIP3    H127219   0.710   3.354   9.831 -1.7912  0.4086 -0.1188
 1008TIP3    H227220   0.845   3.305   9.783 -0.9405  0.2122  2.3153
 1009TIP3   OH227221   0.389   4.888   0.710  0.3414 -0.4606  0.1496
 1009TIP3    H127222   0.310   4.909   0.760 -0.5433 -1.7788 -0.6246
 1009TIP3    H227223   0.384   4.944   0.632  0.2602 -0.4099  0.1913
 1010TIP3   OH227224   4.783   0.680   2.060  0.1422 -0.4063 -0.2853
 1010TIP3    H127225   4.875   0.669   2.036  0.2859  1.4202 -0.7611
 1010TIP3    H227226   4.786   0.705   2.152  0.2347  0.6548 -0.5573
 1011TIP3   OH227227   6.023   7.506   0.214 -0.5348  0.5208 -0.5124
 1011TIP3    H127228   6.049   7.469   0.129  0.7751 -0.6764  0.3723
 1011TIP3    H227229   6.100   7.552   0.245 -0.2590 -0.8510  0.9717
 1012TIP3   OH227230   5.495   2.179   0.300 -0.0798 -0.4051  0.2823
 1012TIP3    H127231   5.441   2.232   0.242 -1.1097 -1.4937  0.2132
 1012TIP3    H227232   5.565   2.238   0.329 -1.5231  1.1480  0.6971
 1013TIP3   OH227233   0.187   3.802   8.252  0.0145 -0.5153 -0.5444
 1013TIP3    H127234   0.258   3.766   8.198  0.7768  0.3507 -0.1510
 1013TIP3    H227235   0.182   3.743   8.327  1.5322  0.3852  0.3030
 1014TIP3   OH227236   0.833   0.735   6.712  0.3837 -0.1015  0.0866
 1014TIP3    H127237   0.769   0.740   6.641  1.4114  1.3422 -0.8037
 1014TIP3    H227238   0.878   0.819   6.710 -0.0685  0.3034  3.0053
 1015TIP3   OH227239   2.146   3.067   0.547  0.3042 -0.3425  0.1068
 1015TIP3    H127240   2.167   3.159   0.530  0.0708 -0.5420 -1.4342
 1015TIP3    H227241   2.197   3.018   0.483  0.4584 -1.2990  0.9351
 1016TIP3   OH227242   6.470   2.441   9.833  0.4053 -0.0124  0.5483
 1016TIP3    H127243   6.489   2.533   9.850 -0.3632  0.6342 -1.8402
 1016TIP3    H227244   6.414   2.415   9.906  0.0940  1.5938  0.9241
 1017TIP3   OH227245   3.825   7.246   2.435 -0.2923 -0.1015  0.3730
 1017TIP3    H127246   3.847   7.303   2.362  2.1425 -1.2333  0.1334
 1017TIP3    H227247   3.742   7.206   2.411  0.3826 -0.3236 -1.7328
 1018TIP3   OH227248   1.611   0.922   2.161 -0.1940 -0.0697 -0.0294
 1018TIP3    H127249   1.568   0.841   2.134 -0.1131 -0.2136  0.2601
 1018TIP3    H227250   1.623   0.972   2.080  1.8990 -1.3800 -0.6119
 1019TIP3   OH227251   3.373   1.199   1.930 -0.0548 -0.6962  0.2163
 1019TIP3    H127252   3.421   1.198   1.847  1.6782 -0.0306  1.1527
 1019TIP3    H227253   3.307   1.268   1.918  0.3747 -0.3950 -0.4952
 1020TIP3   OH227254   3.710   0.610   2.027  0.2766  0.0491  0.2720
 1020TIP3    H127255   3.677   0.698   2.046  0.1645 -0.4089  2.4476
 1020TIP3    H227256   3.746   0.580   2.110  2.2963 -1.1502 -0.9736
 1021TIP3   OH227257   3.722   4.670   9.164 -0.0508  0.2669  0.4859
 1021TIP3    H127258   3.708   4.583   9.202  1.1777 -0.4930 -0.6895
 1021TIP3    H227259   3.642   4.687   9.114  0.7630 -1.5332 -1.6290
 1022TIP3   OH227260   7.063   2.378   1.757  0.1750 -0.4859  0.1216
 1022TIP3    H127261   7.055   2.470   1.735 -0.9878  0.3217  3.3900
 1022TIP3    H227262   6.973   2.345   1.757  0.4761 -1.3350  0.0640
 1023TIP3   OH227263   2.291   5.915   6.666  0.1878  0.8502 -1.0557
 1023TIP3    H127264   2.348   5.965   6.724  2.1974 -0.8760 -1.4137
 1023TIP3    H227265   2.309   5.950   6.579  0.5839  0.4315 -1.1462
 1024TIP3   OH227266   6.819   1.637   9.060 -0.1987 -0.1887  0.7620
 1024TIP3    H127267   6.825   1.701   8.989  1.1345  0.3838  1.3491
 1024TIP3    H227268   6.849   1.555   9.020 -0.3103 -0.0700  0.4342
 1025TIP3   OH227269   2.251   4.654   8.719 -0.8470 -0.5955 -0.0747
 1025TIP3    H127270   2.258   4.617   8.631  2.0164  0.3633 -0.3348
 1025TIP3    H227271   2.302   4.735   8.715 -0.3396 -0.6982  2.5642
 1026TIP3   OH227272   2.873   6.196   0.849 -0.2348  0.1366 -0.6733
 1026TIP3    H127273   2.828   6.138   0.910 -0.3116 -1.1571 -1.9050
 1026TIP3    H227274   2.812   6.269   0.837 -0.9919 -0.4591 -0.5511
 1027TIP3   OH227275   4.629   0.457   9.440  0.3757  0.3932 -0.0459
 1027TIP3    H127276   4.598   0.370   9.414  0.5969  0.3421 -0.1397
 1027TIP3    H227277   4.621   0.458   9.535 -0.4555  0.5875 -0.1112
 1028TIP3   OH227278   5.831   3.885   8.219  0.1140  0.0585 -0.0949
 1028TIP3    H127279   5.840   3.840   8.303  2.2318  2.0737  0.8646
 1028TIP3    H227280   5.749   3.935   8.227 -0.1415 -0.4267  0.3955
 1029TIP3   OH227281   0.102   3.799   2.524  0.2339 -0.5155  0.1982
 1029TIP3    H127282   0.122   3.706   2.531 -0.8790 -0.7616  0.2802
 1029TIP3    H227283   0.091   3.829   2.614 -3.3387 -1.2512  0.1909
 1030TIP3   OH227284   1.121   1.885   8.003 -0.6231 -0.0863 -0.2149
 1030TIP3    H127285   1.082   1.904   8.088  0.8747 -0.1384  0.5127
 1030TIP3    H227286   1.144   1.971   7.968 -0.1062 -0.1317  0.0024
 1031TIP3   OH227287   3.759   4.354   8.356 -0.4289 -0.1694  0.1544
 1031TIP3    H127288   3.752   4.432   8.301  2.8819  0.2318  0.1037
 1031TIP3    H227289   3.718   4.379   8.439  1.1705  1.9756  0.3914
 1032TIP3   OH227290   0.110   1.402   6.753 -0.2378  0.5719  0.1356
 1032TIP3    H127291   0.109   1.307   6.764  0.3703  0.4704 -0.6591
 1032TIP3    H227292   0.111   1.436   6.843  0.4375 -0.1857  0.4212
 1033TIP3   OH227293   5.692   3.259   0.706 -0.3187  0.1803 -0.2753
 1033TIP3    H127294   5.659   3.349   0.700 -1.0557 -0.1467 -1.5371
 1033TIP3    H227295   5.616   3.207   0.732  0.3574  0.0472  1.5468
 1034TIP3   OH227296   5.277   4.109   9.167  0.2781 -0.5095  0.5250
 1034TIP3    H127297   5.306   4.071   9.084 -1.4908 -0.0336 -0.3461
 1034TIP3    H227298   5.342   4.176   9.187  1.1262 -1.1327 -0.0674
 1035TIP3   OH227299   2.109   4.906   2.919  0.9874 -0.4837 -0.3214
 1035TIP3    H127300   2.158   4.830   2.949 -0.5033 -1.9042 -1.3682
 1035TIP3    H227301   2.025   4.900   2.963  0.4763 -0.0065 -1.1930
 1036TIP3   OH227302   6.034   3.197   2.152 -0.0581 -0.4191 -0.6221
 1036TIP3    H127303   5.982   3.157   2.221  0.2280  2.3185  1.3243
 1036TIP3    H227304   5.970   3.223   2.085 -0.5838 -1.3357 -0.4811
 1037TIP3   OH227305   3.431   3.028   7.624 -0.2354 -0.3033 -0.2623
 1037TIP3    H127306   3.524   3.003   7.621  0.0051  0.4498  0.7140
 1037TIP3    H227307   3.399   3.007   7.536  0.3887 -2.3186 -0.0649
 1038TIP3   OH227308   1.842   4.735   2.391 -0.1272 -0.0085  0.3478
 1038TIP3    H127309   1.879   4.810   2.438 -0.8006 -0.8252  2.3307
 1038TIP3    H227310   1.796   4.686   2.459  1.6423 -3.1260 -0.5171
 1039TIP3   OH227311   7.342   4.571   8.916  0.1504  0.3169 -0.1224
 1039TIP3    H127312   7.341   4.513   8.840 -0.3534 -0.4360  0.4356
 1039TIP3    H227313   7.261   4.622   8.908 -0.3732 -0.4028  0.3592
 1040TIP3   OH227314   2.781   4.366   1.319  0.0315  0.4843  0.0230
 1040TIP3    H127315   2.704   4.403   1.364 -2.0378 -1.2543 -1.8601
 1040TIP3    H227316   2.807   4.433   1.256  0.4731  1.3274  1.0750
 1041TIP3   OH227317   5.263   0.722   7.398 -0.1727  0.3371 -0.1260
 1041TIP3    H127318   5.211   0.654   7.356 -1.4815  2.3982 -2.0178
 1041TIP3    H227319   5.262   0.698   7.491 -1.9301 -1.3200 -0.5033
 1042TIP3   OH227320   5.379   5.121   7.999  0.0249 -0.0081 -0.5867
 1042TIP3    H127321   5.340   5.192   7.948  0.6676 -0.1114 -1.2347
 1042TIP3    H227322   5.471   5.145   8.007 -0.3302  0.7759  1.8567
 1043TIP3   OH227323   2.344   0.494   1.308  0.4413  0.1410  0.0288
 1043TIP3    H127324   2.407   0.451   1.365 -0.9916 -0.9649  0.8662
 1043TIP3    H227325   2.334   0.435   1.233  0.7275  0.5258 -0.3132
 1044TIP3   OH227326   1.612   0.942   8.187 -0.0236 -0.3017 -0.0003
 1044TIP3    H127327   1.605   0.884   8.110 -0.4056 -0.9908  0.5461
 1044TIP3    H227328   1.525   0.979   8.197  0.7476  2.3189 -1.7996
 1045TIP3   OH227329   5.861   0.667   3.148  0.1110 -0.6674  0.0093
 1045TIP3    H127330   5.891   0.751   3.183  1.0422  0.1083 -2.4373
 1045TIP3    H227331   5.798   0.635   3.212  0.7004  1.2632  1.6506
 1046TIP3   OH227332   0.994   5.470   0.316  0.3766 -0.0210 -0.0134
 1046TIP3    H127333   0.919   5.421   0.349 -0.6608  0.3233 -1.7520
 1046TIP3    H227334   1.066   5.446   0.375 -1.6700  2.0582  3.7132
 1047TIP3   OH227335   2.337   3.490   8.078  0.1155  0.4427 -0.0925
 1047TIP3    H127336   2.259   3.537   8.109  0.3560  0.8912 -0.1614
 1047TIP3    H227337   2.331   3.494   7.983  0.2004  0.4319 -0.0976
 1048TIP3   OH227338   1.830   6.379   2.216 -0.2758  0.5848  0.0763
 1048TIP3    H127339   1.915   6.355   2.180  0.0678  1.3555  0.3488
 1048TIP3    H227340   1.782   6.414   2.141 -0.6793 -0.6446 -0.2621
 1049TIP3   OH227341   7.543   6.289   9.070  0.0793  0.1870  0.0717
 1049TIP3    H127342   7.479   6.355   9.095  1.7071  1.4110  1.2334
 1049TIP3    H227343   7.538   6.223   9.139  0.1979  0.3868  0.2724
 1050TIP3   OH227344   4.719   3.676   9.265  0.1927  0.5081 -0.1919
 1050TIP3    H127345   4.663   3.661   9.189  1.7247 -0.0932 -1.2526
 1050TIP3    H227346   4.733   3.770   9.266 -0.8806  0.6827  0.1496
 1051TIP3   OH227347   4.575   4.102   7.863  0.0838  0.3142 -0.0271
 1051TIP3    H127348   4.566   4.157   7.941 -0.3570  0.1886  0.0150
 1051TIP3    H227349   4.646   4.142   7.813 -0.0670  0.7712  0.1212
 1052TIP3   OH227350   1.459   0.135   9.935 -0.1775 -0.3439 -0.4581
 1052TIP3    H127351   1.389   0.185   9.977  1.5448  1.0198  0.9563
 1052TIP3    H227352   1.455   0.159   9.843  0.4220  2.3214  0.1277
 1053TIP3   OH227353   0.934   7.587   8.971 -0.1475  0.1058  0.1800
 1053TIP3    H127354   0.854   7.539   8.951 -0.3410  0.0437  1.0815
 1053TIP3    H227355   0.921   7.674   8.933 -1.0765  0.4299  1.2042
 1054TIP3   OH227356   1.316   1.721   9.070  0.7616 -0.2404  0.0218
 1054TIP3    H127357   1.268   1.657   9.018 -0.3440  0.5072  0.0735
 1054TIP3    H227358   1.333   1.793   9.009  1.9257 -0.5392 -0.0193
 1055TIP3   OH227359   5.819   7.575   1.853 -0.5250 -0.1499  0.1587
 1055TIP3    H127360   5.891   7.586   1.915  1.3214 -2.0572 -1.4975
 1055TIP3    H227361   5.821   7.656   1.801  0.3725 -0.1353  0.1980
 1056TIP3   OH227362   6.321   4.573   1.004  0.0472 -0.0556  0.1596
 1056TIP3    H127363   6.382   4.638   1.039 -0.5903  0.5144  0.2305
 1056TIP3    H227364   6.371   4.526   0.938 -0.1245  2.0430 -1.5454
 1057TIP3   OH227365   4.516   7.446   0.949  0.5094 -0.2864 -0.1993
 1057TIP3    H127366   4.429   7.405   0.952  0.7775 -0.8252  1.7822
 1057TIP3    H227367   4.574   7.377   0.918  0.6965 -0.9526  1.5358
 1058TIP3   OH227368   7.436   5.208   2.809  0.2971 -0.1290  0.5038
 1058TIP3    H127369   7.512   5.165   2.848  0.7117  1.4659  1.5430
 1058TIP3    H227370   7.362   5.179   2.863  0.4647 -0.1038  0.7490
 1059TIP3   OH227371   1.622   3.032   0.906  0.3807  0.1909 -0.0026
 1059TIP3    H127372   1.663   3.115   0.930  0.4861 -0.0956  0.8439
 1059TIP3    H227373   1.672   2.966   0.954 -1.9570 -0.0604  2.2811
 1060TIP3   OH227374   3.764   0.937   6.592 -0.2643  0.6101 -0.3766
 1060TIP3    H127375   3.672   0.915   6.577 -0.1816 -1.5166  1.6555
 1060TIP3    H227376   3.813   0.872   6.542  0.0690 -0.0167  0.7290
 1061TIP3   OH227377   1.714   2.837   9.003 -0.4045  0.0355  0.2690
 1061TIP3    H127378   1.756   2.826   8.918 -0.7351  0.3607  0.0609
 1061TIP3    H227379   1.644   2.901   8.987  0.4303  1.1822  1.1043
 1062TIP3   OH227380   2.210   5.313   7.503  0.0766 -0.3342 -0.4278
 1062TIP3    H127381   2.274   5.321   7.574 -0.0625 -0.5764 -0.2735
 1062TIP3    H227382   2.179   5.402   7.488 -0.6787 -0.4247  0.5428
 1063TIP3   OH227383   7.632   0.522   7.420 -0.1090  0.1087  0.5077
 1063TIP3    H127384   7.701   0.587   7.432  0.0908  0.2095 -0.9445
 1063TIP3    H227385   7.551   0.572   7.423 -0.0467  0.1896  0.9091
 1064TIP3   OH227386   5.438   6.139   0.763  0.1029  0.1097 -0.5511
 1064TIP3    H127387   5.506   6.116   0.826  1.4965  0.2348 -1.9466
 1064TIP3    H227388   5.393   6.056   0.744 -0.7026  0.1648  0.9681
 1065TIP3   OH227389   3.378   5.102   7.718 -0.2725  0.4758 -0.0653
 1065TIP3    H127390   3.398   5.053   7.638 -2.2969  1.4189 -1.2451
 1065TIP3    H227391   3.342   5.036   7.778  2.6643 -0.5303  0.7365
 1066TIP3   OH227392   0.377   5.334   7.404  0.1838 -0.2951 -0.0977
 1066TIP3    H127393   0.452   5.390   7.380  0.5077  0.6475  2.6604
 1066TIP3    H227394   0.312   5.396   7.436 -1.2413 -1.2429 -1.0829
 1067TIP3   OH227395   6.328   2.245   2.173  0.7131  0.6635  0.5367
 1067TIP3    H127396   6.356   2.276   2.259 -0.5913  0.1614  1.1552
 1067TIP3    H227397   6.405   2.198   2.139  1.6146  1.8171  0.9341
 1068TIP3   OH227398   0.574   1.001   9.792 -0.6306  0.2400  0.2725
 1068TIP3    H127399   0.506   0.933   9.796  0.0298 -0.4872 -0.3523
 1068TIP3    H227400   0.617   0.986   9.707  0.4317  0.5506  0.7379
 1069TIP3   OH227401   3.781   0.858   2.285  0.6200  0.3241 -0.0619
 1069TIP3    H127402   3.813   0.922   2.222  1.1174  0.6063  0.4750
 1069TIP3    H227403   3.840   0.865   2.359 -0.3643  0.4909  0.7315
 1070TIP3   OH227404   0.946   5.792   8.271 -0.9363  0.9126  0.2090
 1070TIP3    H127405   0.922   5.803   8.179  2.3399 -0.4203 -0.9742
 1070TIP3    H227406   1.039   5.814   8.273 -0.1218 -2.1657  2.5295
 1071TIP3   OH227407   6.802   2.045   7.430 -0.0314 -0.6325 -0.4836
 1071TIP3    H127408   6.713   2.070   7.456 -0.5487 -2.2019 -0.6210
 1071TIP3    H227409   6.811   2.080   7.341  0.1203  0.9397  0.1142
 1072TIP3   OH227410   3.464   6.525   8.533  0.0332  0.7716  0.5291
 1072TIP3    H127411   3.494   6.596   8.478 -0.9385  2.1476  1.7041
 1072TIP3    H227412   3.458   6.563   8.621 -2.4722 -0.1205  0.8466
 1073TIP3   OH227413   0.309   5.721   1.537  0.4593  0.0324  0.1103
 1073TIP3    H127414   0.344   5.635   1.560 -1.0289 -0.5806  0.1929
 1073TIP3    H227415   0.279   5.759   1.619  0.3540  0.2776 -0.0383
 1074TIP3   OH227416   7.153   6.604   8.467  0.1124  0.3926 -0.2660
 1074TIP3    H127417   7.230   6.654   8.494 -1.2798  2.8302 -0.5069
 1074TIP3    H227418   7.083   6.669   8.461 -2.4504 -1.9303  1.6198
 1075TIP3   OH227419   4.360   7.381   7.246 -0.4271  0.0420 -0.1576
 1075TIP3    H127420   4.430   7.327   7.282 -1.9863 -1.4497  0.8273
 1075TIP3    H227421   4.284   7.322   7.244 -1.6664  1.6066 -1.1117
 1076TIP3   OH227422   5.581   6.629   8.683  0.3951  0.6148  0.2480
 1076TIP3    H127423   5.556   6.559   8.745  0.3503  0.7834  0.4212
 1076TIP3    H227424   5.675   6.617   8.671 -0.1740 -2.0632 -2.8943
 1077TIP3   OH227425   5.811   0.092   8.287  0.2187 -0.0516 -0.1934
 1077TIP3    H127426   5.875   0.157   8.258 -0.3465  0.2102 -0.8802
 1077TIP3    H227427   5.864   0.020   8.321  0.8684  1.5013  2.3492
 1078TIP3   OH227428  -0.024   4.573   2.172  0.2744 -0.0737  0.6023
 1078TIP3    H127429   0.046   4.618   2.219 -0.1764  1.3588 -0.0294
 1078TIP3    H227430  -0.083   4.542   2.241  1.4507 -1.2034  1.1289
 1079TIP3   OH227431   0.707   0.071   1.531  0.1294  0.2034 -0.3490
 1079TIP3    H127432   0.640   0.039   1.470 -0.6867  2.3144 -0.6340
 1079TIP3    H227433   0.789   0.032   1.498 -0.7841 -1.5929 -0.5986
 1080TIP3   OH227434   0.410   5.697   0.223  0.1959 -0.1407  0.3359
 1080TIP3    H127435   0.483   5.712   0.283  0.1533 -0.1298  0.3848
 1080TIP3    H227436   0.338   5.749   0.259  0.8493  1.8395 -1.0168
 1081TIP3   OH227437   3.177   7.716   8.931  0.1111 -0.4379 -0.0967
 1081TIP3    H127438   3.218   7.665   9.001 -0.7157 -0.9867  0.0038
 1081TIP3    H227439   3.140   7.650   8.872 -1.1352  0.0370  0.1301
 1082TIP3   OH227440   5.978   4.855   0.556 -0.0906 -0.1329 -0.5985
 1082TIP3    H127441   5.918   4.813   0.618  0.0426  1.3516  0.5982
 1082TIP3    H227442   6.023   4.922   0.607  0.2612  0.9474 -2.2327
 1083TIP3   OH227443   0.105   5.891   9.421  0.0508 -0.2065  0.4224
 1083TIP3    H127444   0.124   5.823   9.356 -1.3680  0.7390 -1.0725
 1083TIP3    H227445   0.034   5.942   9.381 -2.1108 -0.5766  3.4378
 1084TIP3   OH227446   6.139   5.942   8.926 -0.2494  0.8006  0.4967
 1084TIP3    H127447   6.141   5.857   8.882 -0.9317  2.0830 -2.2231
 1084TIP3    H227448   6.224   5.948   8.970 -0.6577 -1.7446  1.7780
 1085TIP3   OH227449   2.020   5.124   7.420  0.3166 -0.4172  0.9101
 1085TIP3    H127450   2.079   5.196   7.446  0.8773 -0.6226  0.2401
 1085TIP3    H227451   1.951   5.126   7.486 -0.8610  2.1381 -0.2481
 1086TIP3   OH227452   1.282   1.003   0.797 -0.0878 -0.1333 -0.2922
 1086TIP3    H127453   1.252   0.966   0.714  0.2726 -0.3116 -0.3444
 1086TIP3    H227454   1.336   1.078   0.772 -0.4874  0.1917 -0.1979
 1087TIP3   OH227455   3.907   1.249   7.386  0.2228 -0.2590  0.0452
 1087TIP3    H127456   3.951   1.188   7.445  0.8180  0.7217  0.6521
 1087TIP3    H227457   3.933   1.336   7.418 -2.6280  0.4023  0.8120
 1088TIP3   OH227458   3.794   2.805   9.001 -0.2684  0.2565  0.8603
 1088TIP3    H127459   3.837   2.833   8.920 -0.3067 -1.1957  0.3003
 1088TIP3    H227460   3.842   2.849   9.071 -1.3061  2.9161  0.0132
 1089TIP3   OH227461   4.509   7.496   1.259 -0.0533 -0.0130 -0.1671
 1089TIP3    H127462   4.603   7.488   1.245  0.0685 -1.8116  1.2764
 1089TIP3    H227463   4.473   7.413   1.227 -1.3269  1.0813 -1.7255
 1090TIP3   OH227464   6.303   1.846   1.017  0.1849  0.2375  0.0209
 1090TIP3    H127465   6.229   1.861   0.958  0.6307 -0.2243 -0.6753
 1090TIP3    H227466   6.378   1.883   0.970  0.7610 -1.2612 -0.2853
 1091TIP3   OH227467   7.272   4.916   1.105 -0.9998 -0.6534 -0.2306
 1091TIP3    H127468   7.207   4.945   1.041  1.0977  0.6899 -1.8821
 1091TIP3    H227469   7.294   4.996   1.154  1.8220 -0.1924 -2.0246
 1092TIP3   OH227470   3.801   3.123   9.920  0.1116  0.1748 -0.0543
 1092TIP3    H127471   3.834   3.137  10.009  0.6603  1.8944 -0.4753
 1092TIP3    H227472   3.815   3.030   9.903 -0.0988 -0.2020  1.6880
 1093TIP3   OH227473   6.454   5.008   1.036 -0.3557  0.4759  0.1777
 1093TIP3    H127474   6.424   5.046   0.953  1.6487 -0.0626 -0.8706
 1093TIP3    H227475   6.394   4.935   1.052 -0.0910 -0.1619 -1.4663
 1094TIP3   OH227476   2.363   7.644   9.788  0.3408  0.1793 -0.5121
 1094TIP3    H127477   2.442   7.647   9.843 -1.2614  1.0656  1.9124
 1094TIP3    H227478   2.382   7.704   9.716  1.9820  0.1199 -0.1733
 1095TIP3   OH227479   4.760   2.292   2.081 -1.1882  0.3613  0.6323
 1095TIP3    H127480   4.847   2.296   2.041 -1.6067  0.6091 -0.2757
 1095TIP3    H227481   4.743   2.199   2.094 -0.3761  0.3509  1.7691
 1096TIP3   OH227482   5.003   0.756   1.775 -0.2534 -0.0799 -0.6330
 1096TIP3    H127483   5.007   0.675   1.725  1.1083 -0.0941 -0.5178
 1096TIP3    H227484   5.022   0.731   1.865 -0.0297  0.3380 -0.5614
 1097TIP3   OH227485   6.637   3.654   6.852 -0.4260 -0.2477  0.2424
 1097TIP3    H127486   6.577   3.702   6.910 -2.2400  1.5202 -2.8455
 1097TIP3    H227487   6.631   3.699   6.768  3.6512 -1.3872 -0.8707
 1098TIP3   OH227488   0.571   3.373   9.970  0.8085  0.5762  0.0135
 1098TIP3    H127489   0.607   3.323  10.043  0.7562  0.5093 -0.0061
 1098TIP3    H227490   0.486   3.332   9.953  1.3228 -0.1742 -0.8528
 1099TIP3   OH227491   7.562   6.406   2.368 -0.2800 -0.2903  0.2674
 1099TIP3    H127492   7.508   6.483   2.350 -1.0874 -0.6568  1.0398
 1099TIP3    H227493   7.553   6.352   2.289 -0.2367  0.1055 -0.0132
 1100TIP3   OH227494   4.177   7.011   7.392 -0.0985  1.1550  1.1843
 1100TIP3    H127495   4.097   6.992   7.344  0.6985 -1.8334  0.8313
 1100TIP3    H227496   4.148   7.037   7.479 -1.4568 -0.1449  1.1535
 1101TIP3   OH227497   0.758   5.471   7.935  0.9112 -0.0272  0.0792
 1101TIP3    H127498   0.751   5.484   8.029 -0.7547  0.5117 -0.0827
 1101TIP3    H227499   0.674   5.430   7.910  1.0142  0.5278 -1.2612
 1102TIP3   OH227500   4.885   1.718   1.490  0.1021  0.4216 -0.2544
 1102TIP3    H127501   4.875   1.640   1.435 -1.3710  0.3164  0.0987
 1102TIP3    H227502   4.840   1.787   1.441 -1.3432  0.3014  0.8099
 1103TIP3   OH227503   0.910   1.824   2.487 -0.4027  0.0464 -0.1188
 1103TIP3    H127504   0.910   1.788   2.398  1.8253  1.5154 -0.7963
 1103TIP3    H227505   0.981   1.888   2.487  0.0405 -0.3177  2.9250
 1104TIP3   OH227506   3.075   3.654   0.377 -0.1266 -0.1057  0.5802
 1104TIP3    H127507   3.145   3.624   0.319  0.9526  3.5749 -0.2728
 1104TIP3    H227508   2.995   3.641   0.326  0.2429 -1.3528  0.2731
 1105TIP3   OH227509   6.601   1.590   2.139  0.2961 -0.4583  0.1940
 1105TIP3    H127510   6.606   1.679   2.172 -1.0825 -0.4617  0.4764
 1105TIP3    H227511   6.668   1.585   2.071  0.1700  0.8905 -0.0467
 1106TIP3   OH227512   7.288   7.128   1.050  1.1414  0.5776 -0.7768
 1106TIP3    H127513   7.193   7.123   1.046  1.0023  0.8181  1.4147
 1106TIP3    H227514   7.318   7.041   1.023  0.2000 -0.2042  0.5839
 1107TIP3   OH227515   4.395   3.106   8.726 -0.1826  0.2746  0.5414
 1107TIP3    H127516   4.317   3.157   8.747  0.3656  1.6022 -0.5360
 1107TIP3    H227517   4.427   3.075   8.811 -0.9415  1.1094  1.1496
 1108TIP3   OH227518   6.179   6.757   1.188  0.2762 -0.1650  0.3064
 1108TIP3    H127519   6.133   6.834   1.221 -2.5248 -0.2675 -2.8582
 1108TIP3    H227520   6.219   6.787   1.106  0.7305 -1.6464 -0.0331
 1109TIP3   OH227521   6.928   5.512   7.942  0.4146 -0.1803  0.1769
 1109TIP3    H127522   6.968   5.494   7.857  0.3635  1.1849 -0.1647
 1109TIP3    H227523   6.888   5.599   7.932 -0.8249 -0.6082  1.1587
 1110TIP3   OH227524   1.001   6.429   0.470 -0.4040 -0.0329 -0.6000
 1110TIP3    H127525   0.908   6.425   0.494 -0.5724  0.5813 -1.1185
 1110TIP3    H227526   1.006   6.380   0.387 -0.2446 -0.1596 -0.5155
 1111TIP3   OH227527   3.188   6.033   0.972 -0.4722  0.2083  0.0687
 1111TIP3    H127528   3.178   5.938   0.982  0.1245  0.1782  0.4689
 1111TIP3    H227529   3.111   6.070   1.015 -1.8240 -0.1386 -1.9644
 1112TIP3   OH227530   5.825   4.424   9.384  0.3462  0.2523 -0.0203
 1112TIP3    H127531   5.812   4.507   9.337  0.7702 -0.3014 -1.1300
 1112TIP3    H227532   5.906   4.389   9.349  0.0157 -0.7824  0.2284
 1113TIP3   OH227533   6.181   3.018   2.510 -0.2504 -0.3638 -0.4665
 1113TIP3    H127534   6.085   3.020   2.504 -0.2686  0.7814  0.0000
 1113TIP3    H227535   6.199   2.942   2.566 -1.0188  0.5918  1.1503
 1114TIP3   OH227536   4.251   2.064   1.386  0.1805  0.1405 -0.4975
 1114TIP3    H127537   4.253   2.109   1.470 -0.4007 -1.5639  0.4824
 1114TIP3    H227538   4.199   2.120   1.329 -0.2129  0.8656  0.5663
 1115TIP3   OH227539   1.380   2.535   7.162  0.3837 -0.2947 -0.1992
 1115TIP3    H127540   1.358   2.459   7.215  1.1933 -0.9660 -0.7927
 1115TIP3    H227541   1.445   2.502   7.099  2.1077  1.2796  0.6602
 1116TIP3   OH227542   3.456   7.294   7.263  0.5214 -0.1996  0.7590
 1116TIP3    H127543   3.473   7.277   7.171  0.2423 -0.6434  0.7855
 1116TIP3    H227544   3.364   7.271   7.275  0.5917 -0.2754  1.1773
 1117TIP3   OH227545   2.559   7.695   9.529 -0.2289  0.2040  0.1661
 1117TIP3    H127546   2.509   7.661   9.455  0.4950  1.1428 -0.7810
 1117TIP3    H227547   2.579   7.785   9.505  1.3055  0.0755  0.8258
 1118TIP3   OH227548   1.763   5.780   0.161 -0.6101 -0.0172 -0.0708
 1118TIP3    H127549   1.781   5.692   0.127  0.0519 -0.3003  0.9806
 1118TIP3    H227550   1.672   5.776   0.192 -1.0220  0.0700 -1.1989
 1119TIP3   OH227551   1.211   6.615   8.709 -0.4829  0.7114  0.6054
 1119TIP3    H127552   1.298   6.651   8.693 -0.2696  0.1341  0.4437
 1119TIP3    H227553   1.202   6.545   8.644 -1.8150  1.9649 -0.6588
 1120TIP3   OH227554   7.498   4.246   1.711 -0.5123 -0.1779 -0.4018
 1120TIP3    H127555   7.443   4.257   1.788 -0.4903  1.4060 -0.5935
 1120TIP3    H227556   7.579   4.207   1.745 -0.8333 -0.2918  0.2360
 1121TIP3   OH227557   1.867   1.228   7.537  0.0750  0.3138  0.4228
 1121TIP3    H127558   1.799   1.189   7.592 -1.0572  1.4446 -0.1104
 1121TIP3    H227559   1.902   1.156   7.485  0.0098 -0.4697  1.4393
 1122TIP3   OH227560   1.314   4.998   8.115  0.1374 -0.1496 -0.1910
 1122TIP3    H127561   1.368   4.944   8.056  0.3874  1.8445 -1.9372
 1122TIP3    H227562   1.377   5.059   8.155 -0.5438  1.1052 -0.9643
 1123TIP3   OH227563   0.047   5.857   1.375 -0.5031  0.1125 -0.0321
 1123TIP3    H127564  -0.001   5.939   1.385 -2.4944 -0.9978  0.1257
 1123TIP3    H227565   0.096   5.847   1.456 -2.9700 -0.4429  1.5302
 1124TIP3   OH227566   6.807   4.439   8.783 -0.2427 -0.6381  0.4590
 1124TIP3    H127567   6.791   4.475   8.871  1.0604  0.6315  0.2053
 1124TIP3    H227568   6.871   4.370   8.796  0.0959 -0.3183  0.4794
 1125TIP3   OH227569   6.752   7.649   7.766 -0.5182  0.4338  0.1849
 1125TIP3    H127570   6.698   7.629   7.690  0.6043  0.8226 -0.7463
 1125TIP3    H227571   6.691   7.653   7.839 -1.7951  1.2680 -0.8956
 1126TIP3   OH227572   0.422   4.314   7.262 -0.3270 -0.2445 -0.8528
 1126TIP3    H127573   0.344   4.351   7.219 -0.7260  0.5078  0.4756
 1126TIP3    H227574   0.433   4.229   7.221 -1.8168 -0.3423 -1.1232
 1127TIP3   OH227575   4.322   1.970   1.722 -0.4598  0.1346  0.1622
 1127TIP3    H127576   4.247   1.959   1.663 -0.5095 -0.9884  0.4147
 1127TIP3    H227577   4.398   1.975   1.664 -0.6391  0.3970 -0.0545
 1128TIP3   OH227578   6.015   2.135   1.557  0.1781  0.3176  0.2565
 1128TIP3    H127579   6.080   2.077   1.518  1.8791  1.7758  0.8397
 1128TIP3    H227580   5.933   2.085   1.551  0.7566 -0.4992 -2.9431
 1129TIP3   OH227581   1.153   4.119   0.130 -0.0107  0.4857 -0.1976
 1129TIP3    H127582   1.221   4.185   0.136 -1.5822  2.1167  0.9320
 1129TIP3    H227583   1.136   4.109   0.037  2.9585 -1.3786 -0.6905
 1130TIP3   OH227584   4.715   1.301   9.018 -0.4204 -0.4781 -0.6042
 1130TIP3    H127585   4.716   1.261   8.931 -1.4406 -0.0804 -0.8230
 1130TIP3    H227586   4.722   1.228   9.079 -1.0128 -0.8932 -1.0151
 1131TIP3   OH227587   7.050   2.362   1.395  0.1802  0.8922  0.5831
 1131TIP3    H127588   7.070   2.273   1.426 -0.0003  0.8794  0.6632
 1131TIP3    H227589   7.042   2.352   1.300 -2.4647  0.2940  0.7974
 1132TIP3   OH227590   7.347   6.894   0.328  0.1608  0.2790 -0.2870
 1132TIP3    H127591   7.400   6.935   0.260 -0.8725  1.8454 -0.1925
 1132TIP3    H227592   7.375   6.802   0.328 -0.0160  0.1501 -3.0260
 1133TIP3   OH227593   6.228   0.818   7.615  0.6495 -0.1862  0.3181
 1133TIP3    H127594   6.235   0.841   7.522  0.1203  0.6336  0.4649
 1133TIP3    H227595   6.195   0.729   7.616  2.5795 -0.9537 -0.2893
 1134TIP3   OH227596   3.086   1.419   1.276  0.0699  0.9314 -0.8331
 1134TIP3    H127597   3.113   1.496   1.327  2.0677 -0.0559 -0.2822
 1134TIP3    H227598   3.037   1.365   1.338  1.9904  0.0095 -0.0225
 1135TIP3   OH227599   0.204   0.910   9.535  0.0549 -0.6703 -0.6333
 1135TIP3    H127600   0.220   0.993   9.581 -0.8286 -0.9678  0.2446
 1135TIP3    H227601   0.281   0.857   9.554 -0.7082 -1.1504  1.3787
 1136TIP3   OH227602   2.237   4.732   9.741  0.6787  0.6406 -0.0618
 1136TIP3    H127603   2.274   4.753   9.656  0.3207  1.7585  0.0508
 1136TIP3    H227604   2.161   4.678   9.721  1.2793 -0.1094 -0.3781
 1137TIP3   OH227605   0.436   5.489   1.619  0.8779  0.0140  0.1226
 1137TIP3    H127606   0.430   5.407   1.570  1.7777 -0.0416  0.0749
 1137TIP3    H227607   0.512   5.534   1.580  1.2261  0.2490  1.0514
 1138TIP3   OH227608   3.182   0.731   9.564 -0.6209 -0.0055  0.3017
 1138TIP3    H127609   3.135   0.674   9.626  0.1763  0.6236  1.5295
 1138TIP3    H227610   3.212   0.672   9.496 -1.4211 -0.7514  0.5662
 1139TIP3   OH227611   4.856   3.909   8.456  0.6297 -0.5939 -0.0763
 1139TIP3    H127612   4.919   3.908   8.528 -0.4846 -1.5365  0.9178
 1139TIP3    H227613   4.823   3.819   8.451  0.0239 -0.3271 -1.1663
 1140TIP3   OH227614   5.450   0.771   0.998  0.1992  0.0158  0.5590
 1140TIP3    H127615   5.386   0.731   0.940  0.8815 -0.4375  0.1043
 1140TIP3    H227616   5.403   0.844   1.038 -0.2043  0.5451 -0.8082
 1141TIP3   OH227617   6.799   1.667   0.611  0.0703  0.3649  0.1649
 1141TIP3    H127618   6.765   1.659   0.521  0.5811 -0.2561  0.0159
 1141TIP3    H227619   6.887   1.704   0.600  0.0435  0.5035  0.4279
 1142TIP3   OH227620   0.172   5.802   3.071 -0.0551  0.0281 -0.6410
 1142TIP3    H127621   0.160   5.896   3.083 -0.1248  0.2841 -2.4561
 1142TIP3    H227622   0.096   5.773   3.021  0.1685 -0.9209 -0.4596
 1143TIP3   OH227623   2.173   4.911   8.983  0.2109 -0.1542  0.6123
 1143TIP3    H127624   2.083   4.940   8.963  0.0038 -0.2498  1.3910
 1143TIP3    H227625   2.227   4.986   8.959 -0.0070 -0.3237 -0.4642
 1144TIP3   OH227626   5.474   2.696   0.104  0.0085 -0.1247 -0.0595
 1144TIP3    H127627   5.544   2.762   0.102 -0.8472  0.8129  0.4947
 1144TIP3    H227628   5.513   2.622   0.150  0.3167  0.7816  1.1853
 1145TIP3   OH227629   0.045   5.582   9.922  0.0150  0.2071  0.1488
 1145TIP3    H127630   0.021   5.514   9.984 -0.4566 -0.3043 -0.5717
 1145TIP3    H227631   0.043   5.663   9.973 -2.3595  0.0815  0.3874
 1146TIP3   OH227632   0.221   6.412   7.267  0.3744  0.0170  0.2768
 1146TIP3    H127633   0.214   6.502   7.234 -0.3696  0.0550  0.5187
 1146TIP3    H227634   0.204   6.357   7.191  1.2672  0.0660  0.0292
 1147TIP3   OH227635   6.325   3.220   9.342  0.4528  0.4615  0.3407
 1147TIP3    H127636   6.347   3.243   9.251  0.2297 -2.1062 -0.4475
 1147TIP3    H227637   6.230   3.234   9.348 -0.1884 -2.5472 -0.9898
 1148TIP3   OH227638   5.995   1.308   2.279 -0.2840  0.2421 -0.4070
 1148TIP3    H127639   5.911   1.340   2.246 -0.8916 -0.7050  0.2029
 1148TIP3    H227640   6.001   1.343   2.368 -0.7724 -0.9857  0.1233
 1149TIP3   OH227641   6.557   1.415   1.844 -0.2461  0.4154 -0.1551
 1149TIP3    H127642   6.493   1.377   1.785 -0.3960  1.2963 -0.5631
 1149TIP3    H227643   6.622   1.345   1.857 -1.1155 -0.3705  0.0244
 1150TIP3   OH227644   1.135   2.592   2.299 -0.3495  0.3234  0.6868
 1150TIP3    H127645   1.178   2.574   2.382 -0.0968  1.0076  0.7113
 1150TIP3    H227646   1.057   2.643   2.323 -0.7490 -0.2181  0.5731
 1151TIP3   OH227647   1.717   6.125   3.396 -0.1009 -0.3487 -0.1690
 1151TIP3    H127648   1.809   6.115   3.418 -0.4716  0.0130  1.7128
 1151TIP3    H227649   1.674   6.048   3.433 -0.4584 -1.0718 -1.9574
 1152TIP3   OH227650   1.370   6.261   9.952 -0.0163  0.3175  0.1386
 1152TIP3    H127651   1.300   6.324   9.970 -0.0613  0.3850 -0.2633
 1152TIP3    H227652   1.345   6.221   9.868  1.9379  2.5159 -1.6505
 1153TIP3   OH227653   4.297   1.822   8.152 -0.0882 -0.1562  0.2723
 1153TIP3    H127654   4.391   1.839   8.148  0.0958 -0.7396  1.5182
 1153TIP3    H227655   4.261   1.899   8.195  0.1900 -0.9836  2.0993
 1154TIP3   OH227656   5.134   3.591   7.310 -0.3603 -0.1730  0.0149
 1154TIP3    H127657   5.162   3.680   7.288  0.4391 -0.6676 -1.0491
 1154TIP3    H227658   5.144   3.541   7.229  2.6268 -2.0501  1.3413
 1155TIP3   OH227659   2.994   1.896   9.453 -0.2150 -0.0547 -0.2921
 1155TIP3    H127660   2.908   1.904   9.412  0.0238 -2.2077 -1.3834
 1155TIP3    H227661   3.026   1.986   9.462 -2.9412  0.8851  1.0685
 1156TIP3   OH227662   2.750   2.173   2.598  0.2966 -0.0023  0.1422
 1156TIP3    H127663   2.736   2.251   2.652  0.5449 -0.3623  0.7487
 1156TIP3    H227664   2.754   2.101   2.662 -0.4419 -0.5793 -0.4420
 1157TIP3   OH227665   7.204   0.169   9.708 -0.3834  0.4870 -0.5278
 1157TIP3    H127666   7.128   0.227   9.706 -0.3391  0.5707 -0.0828
 1157TIP3    H227667   7.256   0.201   9.782 -1.4742 -1.5000  1.2035
 1158TIP3   OH227668   2.662   1.526   8.296  0.1969 -0.2787 -0.2151
 1158TIP3    H127669   2.692   1.438   8.274  1.2736  0.2355 -0.8974
 1158TIP3    H227670   2.743   1.574   8.317 -0.4532  0.2999  1.0613
 1159TIP3   OH227671   3.498   7.066   0.707 -0.6547 -0.5859 -0.2452
 1159TIP3    H127672   3.584   7.066   0.748 -0.8562 -0.0483  0.1876
 1159TIP3    H227673   3.472   7.158   0.705 -1.0600 -0.7068 -0.7106
 1160TIP3   OH227674   0.994   5.308   1.543  0.1832  0.4148 -0.2604
 1160TIP3    H127675   0.935   5.305   1.618  0.7562  1.1574  0.2268
 1160TIP3    H227676   0.942   5.272   1.471 -0.8691  1.0627  0.1548
 1161TIP3   OH227677   6.953   4.296   7.846 -0.2002  0.3833 -0.0506
 1161TIP3    H127678   6.990   4.228   7.789 -1.7099  0.8821 -1.6880
 1161TIP3    H227679   6.867   4.315   7.809 -2.0980 -0.5470  3.4358
 1162TIP3   OH227680   3.905   0.537   2.528  0.0714 -1.0574  0.1689
 1162TIP3    H127681   3.851   0.602   2.573  0.3899 -1.3378  0.9733
 1162TIP3    H227682   3.886   0.455   2.572  2.4006 -0.8953  1.6538
 1163TIP3   OH227683   1.785   1.690   9.010  0.1197 -0.8557 -1.0967
 1163TIP3    H127684   1.837   1.689   8.930  2.7890  1.0445  0.4518
 1163TIP3    H227685   1.808   1.608   9.054 -0.0663 -1.1182 -1.4772
 1164TIP3   OH227686   3.436   6.611   0.780 -0.3888  0.3449 -0.2092
 1164TIP3    H127687   3.396   6.593   0.865 -0.4856  0.8857 -0.1339
 1164TIP3    H227688   3.398   6.547   0.721 -0.7565  0.3370  0.0339
 1165TIP3   OH227689   0.202   2.665   9.591 -0.3421  0.9481  0.0983
 1165TIP3    H127690   0.297   2.671   9.585 -0.3624  0.0870 -1.7411
 1165TIP3    H227691   0.170   2.725   9.523 -1.1163  1.0289  0.5183
 1166TIP3   OH227692   7.714   3.341   1.245 -0.1898 -0.1346  0.3203
 1166TIP3    H127693   7.643   3.403   1.264 -0.6097 -0.9284  1.4319
 1166TIP3    H227694   7.695   3.265   1.299 -0.0364 -1.5221 -1.4672
 1167TIP3   OH227695   1.568   4.651   9.415 -0.9750  0.6131  0.5874
 1167TIP3    H127696   1.611   4.684   9.494 -1.1385  0.7433  0.6213
 1167TIP3    H227697   1.583   4.556   9.417  1.8106  0.9038 -0.8667
 1168TIP3   OH227698   4.326   4.276   9.303 -0.4720  0.0937 -0.3520
 1168TIP3    H127699   4.248   4.261   9.249 -1.4168 -1.4893  1.3273
 1168TIP3    H227700   4.396   4.229   9.257 -1.5450 -2.3778  0.3804
 1169TIP3   OH227701   2.966   3.819   9.352 -0.4052 -0.1803 -0.3995
 1169TIP3    H127702   2.907   3.750   9.322  0.7637 -2.3634  1.9735
 1169TIP3    H227703   2.962   3.885   9.282 -1.9996 -2.3423 -2.5481
 1170TIP3   OH227704   3.696   4.864   0.113  0.1141 -0.5374  0.1332
 1170TIP3    H127705   3.744   4.849   0.032 -0.9611  1.4756 -0.9363
 1170TIP3    H227706   3.748   4.930   0.160 -1.1547  1.0963 -0.6880
 1171TIP3   OH227707   1.808   3.881   8.812 -0.5086  0.1238 -0.2573
 1171TIP3    H127708   1.727   3.860   8.860  0.1238  0.6025  1.0821
 1171TIP3    H227709   1.823   3.974   8.830 -0.5633  0.4873 -1.9239
 1172TIP3   OH227710   4.915   0.103   7.285  0.0812  0.4360 -0.1516
 1172TIP3    H127711   4.834   0.064   7.319  0.0380 -0.4710 -1.2145
 1172TIP3    H227712   4.933   0.054   7.204  1.4001  0.9898 -0.2223
 1173TIP3   OH227713   5.405   4.017   7.947 -0.9207 -0.1983  0.0444
 1173TIP3    H127714   5.358   4.058   8.020 -2.0184  0.6076 -1.0797
 1173TIP3    H227715   5.381   3.925   7.952  0.3424 -0.4917  1.6711
 1174TIP3   OH227716   7.370   4.509   0.274  0.1500  0.1233 -0.7217
 1174TIP3    H127717   7.301   4.470   0.327 -0.0180 -0.8297 -1.6032
 1174TIP3    H227718   7.350   4.602   0.273 -0.5761 -0.0179 -0.1810
 1175TIP3   OH227719   4.556   1.306   9.831  0.2891 -0.0249 -0.3300
 1175TIP3    H127720   4.463   1.330   9.827  0.2583 -0.1778 -0.6246
 1175TIP3    H227721   4.602   1.390   9.839  0.0089 -0.0649  3.0932
 1176TIP3   OH227722   3.462   4.903   7.961  0.3499  0.1921 -0.1213
 1176TIP3    H127723   3.493   4.846   8.030 -1.4125 -0.9749 -0.2221
 1176TIP3    H227724   3.514   4.880   7.884 -0.0547 -0.9945 -0.0511
 1177TIP3   OH227725   5.679   2.469   0.799  0.2448  0.3817 -0.4272
 1177TIP3    H127726   5.725   2.531   0.742  0.8670 -0.9615 -1.4484
 1177TIP3    H227727   5.586   2.486   0.782  0.3265  2.1648  0.6067
 1178TIP3   OH227728   6.250   1.446  -0.052 -0.3563  0.3601 -0.3506
 1178TIP3    H127729   6.213   1.526  -0.015 -1.3648  0.2531 -1.0890
 1178TIP3    H227730   6.174   1.393  -0.077  0.2789 -1.1880  0.8395
 1179TIP3   OH227731   1.767   1.778   9.971  0.5040 -0.2542  0.6107
 1179TIP3    H127732   1.764   1.874   9.961  0.2793 -0.2479  0.7205
 1179TIP3    H227733   1.696   1.746   9.915  2.1696 -0.5462 -1.4621
 1180TIP3   OH227734   1.132   5.656   0.568 -0.4031  0.1745 -0.1209
 1180TIP3    H127735   1.123   5.592   0.638  0.7845 -0.9347 -0.9374
 1180TIP3    H227736   1.180   5.610   0.499  0.3417  1.8881 -0.8092
 1181TIP3   OH227737   3.780   6.990   9.561  0.7125 -0.2296 -0.3049
 1181TIP3    H127738   3.875   7.001   9.567  0.7905 -1.2788  0.9620
 1181TIP3    H227739   3.767   6.895   9.568 -0.4780 -0.0223  0.5793
 1182TIP3   OH227740   6.624   6.214   1.553 -0.3645  0.1760 -0.2333
 1182TIP3    H127741   6.532   6.204   1.579 -0.1313  0.7260  0.8549
 1182TIP3    H227742   6.673   6.167   1.619  0.2987  2.3698  0.9540
 1183TIP3   OH227743   6.744   2.614   0.676 -0.1104 -1.0058  0.6647
 1183TIP3    H127744   6.796   2.565   0.740  1.3402 -0.7915 -0.2873
 1183TIP3    H227745   6.710   2.689   0.725  0.4523 -1.1772  1.3375
 1184TIP3   OH227746   4.705   3.018   6.737 -0.1817 -0.7094 -0.6221
 1184TIP3    H127747   4.788   3.057   6.708  1.3859 -1.7391  2.0518
 1184TIP3    H227748   4.730   2.931   6.769 -2.1637 -0.8018  0.8823
 1185TIP3   OH227749   0.426   3.785   9.007  0.2970 -0.3234 -0.2099
 1185TIP3    H127750   0.426   3.709   8.949  0.2407  0.2831 -1.0261
 1185TIP3    H227751   0.405   3.750   9.093 -0.3988 -1.1335 -0.6994
 1186TIP3   OH227752   5.177   1.009   9.909  0.0584  0.2423 -0.0169
 1186TIP3    H127753   5.230   1.026   9.831  2.2342 -1.8887  0.8438
 1186TIP3    H227754   5.179   1.092   9.957 -1.6590  1.7208 -2.2902
 1187TIP3   OH227755   6.716   5.082   9.594  0.3369 -0.0676  0.5751
 1187TIP3    H127756   6.630   5.058   9.558 -0.2247 -0.6556  2.1820
 1187TIP3    H227757   6.778   5.027   9.546 -0.3297 -0.5918  0.2856
 1188TIP3   OH227758   0.601   4.505   8.912  0.1776 -0.1051 -0.4165
 1188TIP3    H127759   0.533   4.570   8.891  1.0164  0.6836 -0.7546
 1188TIP3    H227760   0.615   4.457   8.831  0.1357 -0.1701 -0.3860
 1189TIP3   OH227761   2.165   0.556   2.261 -0.6040  0.0714  0.2986
 1189TIP3    H127762   2.199   0.468   2.244 -1.1336 -0.1938  0.5698
 1189TIP3    H227763   2.223   0.591   2.329 -0.9580 -0.4449  0.8847
 1190TIP3   OH227764   1.537   0.811   8.785  0.0339  0.0877  0.2661
 1190TIP3    H127765   1.604   0.748   8.810  0.0201  0.3575  1.0042
 1190TIP3    H227766   1.585   0.890   8.758  0.0178  0.2410  0.6831
 1191TIP3   OH227767   0.640   6.486   3.155  0.7919 -0.3276  0.7119
 1191TIP3    H127768   0.559   6.447   3.187  0.8997  0.2665  1.7873
 1191TIP3    H227769   0.709   6.423   3.179  0.6342 -0.9822 -0.4874
 1192TIP3   OH227770   2.605   2.372   7.355 -0.1047  0.5185  0.0040
 1192TIP3    H127771   2.614   2.453   7.303 -1.6424  0.0252 -1.1175
 1192TIP3    H227772   2.684   2.322   7.333  0.8946  1.6934  0.7447
 1193TIP3   OH227773   2.616   7.128   2.182 -0.4216 -0.0732  0.1138
 1193TIP3    H127774   2.696   7.093   2.221 -0.4201 -0.0095  0.1688
 1193TIP3    H227775   2.642   7.158   2.095  0.0110  1.5076  0.7414
 1194TIP3   OH227776   7.597   1.025   2.063  0.2716  0.2082 -0.6393
 1194TIP3    H127777   7.576   1.081   1.988 -2.9555  1.3367  0.9284
 1194TIP3    H227778   7.580   1.080   2.139  1.9793 -1.3733  0.9717
 1195TIP3   OH227779   3.532   0.347   1.572  0.4409 -0.0568  0.0946
 1195TIP3    H127780   3.575   0.377   1.491  0.6512  0.5870  0.4362
 1195TIP3    H227781   3.531   0.425   1.628 -2.1631  0.2631 -0.2809
 1196TIP3   OH227782   0.996   1.317   1.302  0.1674 -0.5851 -0.1573
 1196TIP3    H127783   0.988   1.266   1.222  0.0471 -0.9355  0.0744
 1196TIP3    H227784   1.091   1.329   1.313  0.1681 -0.1499 -0.5853
 1197TIP3   OH227785   0.312   5.248   8.132 -0.3653 -0.6698 -0.2314
 1197TIP3    H127786   0.364   5.174   8.101  1.4145  0.4587 -0.1082
 1197TIP3    H227787   0.359   5.280   8.209  0.0708  1.7761 -1.4082
 1198TIP3   OH227788   3.655   5.386   8.505 -0.1267  0.3230 -0.1584
 1198TIP3    H127789   3.684   5.468   8.466 -1.2650 -0.2009 -2.2573
 1198TIP3    H227790   3.587   5.411   8.567  1.6849  1.1678  1.6109
 1199TIP3   OH227791   5.185   0.154   7.332 -0.0969 -0.0552 -0.1436
 1199TIP3    H127792   5.224   0.073   7.365  1.2226 -0.5485 -2.6591
 1199TIP3    H227793   5.093   0.133   7.319  0.3077 -1.3131 -1.1359
 1200TIP3   OH227794   0.600   0.456   2.569 -0.4896 -0.5260 -0.0130
 1200TIP3    H127795   0.555   0.440   2.652 -0.1642 -0.9212  0.0901
 1200TIP3    H227796   0.634   0.370   2.543 -1.7475 -0.6865 -1.2479
 1201TIP3   OH227797   5.707   3.040   9.761 -0.3318  0.5071 -0.3639
 1201TIP3    H127798   5.659   3.119   9.784 -2.3431 -1.0744  1.3524
 1201TIP3    H227799   5.667   3.011   9.679 -2.6339 -0.8751  1.1217
 1202TIP3   OH227800   6.369   3.233   2.800 -0.0663 -0.3242  1.0932
 1202TIP3    H127801   6.455   3.196   2.781 -0.4154 -1.0826  0.9136
 1202TIP3    H227802   6.349   3.203   2.889  0.8200  1.7668  2.0624
 1203TIP3   OH227803   4.701   1.047   9.196 -0.2443  0.1520  0.0399
 1203TIP3    H127804   4.639   0.977   9.178 -2.3735  2.5073 -2.8113
 1203TIP3    H227805   4.658   1.100   9.264 -1.3048  1.5544 -1.6397
 1204TIP3   OH227806   7.446   3.848   0.488 -0.6174 -0.2862  0.0425
 1204TIP3    H127807   7.447   3.870   0.395 -0.4414 -1.5607 -0.2753
 1204TIP3    H227808   7.505   3.912   0.528  1.2951 -1.2135 -1.1187
 1205TIP3   OH227809   1.330   1.307   7.730  0.1857  0.0402  0.0137
 1205TIP3    H127810   1.269   1.375   7.704 -0.4434  0.1555  1.6296
 1205TIP3    H227811   1.385   1.292   7.653  0.1737  2.1745 -0.4593
 1206TIP3   OH227812   4.502   1.583   8.422 -0.4221  0.3941 -0.0989
 1206TIP3    H127813   4.485   1.584   8.516 -1.7284  0.3552 -0.3276
 1206TIP3    H227814   4.418   1.604   8.381  0.4028  1.6972 -1.2319
 1207TIP3   OH227815   7.331   0.603   8.719 -0.7070 -0.3124 -0.7303
 1207TIP3    H127816   7.323   0.697   8.703  0.6289  0.2201  1.2717
 1207TIP3    H227817   7.252   0.581   8.767  0.4627  0.6259  1.8272
 1208TIP3   OH227818   1.941   5.261   2.151 -0.4298  0.4749  0.2995
 1208TIP3    H127819   1.993   5.291   2.076  1.4169 -0.4263  1.1818
 1208TIP3    H227820   1.917   5.341   2.197 -0.8285  0.9768 -0.7374
 1209TIP3   OH227821   2.328   5.595   0.206 -0.4676  1.0720 -1.1228
 1209TIP3    H127822   2.369   5.665   0.154  1.0441  0.0144 -1.4005
 1209TIP3    H227823   2.243   5.631   0.230  1.3156  4.2998  1.2778
 1210TIP3   OH227824   5.281   5.683   8.711 -0.1990  0.0419  0.1252
 1210TIP3    H127825   5.349   5.734   8.668  1.9829 -3.0573 -0.3703
 1210TIP3    H227826   5.204   5.695   8.655  0.6421  1.4836 -0.8001
 1211TIP3   OH227827   0.217   6.312   8.935  0.4027 -0.1457 -0.2439
 1211TIP3    H127828   0.265   6.276   9.009  1.4485 -1.9390 -1.7122
 1211TIP3    H227829   0.240   6.405   8.934  3.3373 -0.7832 -0.4219
 1212TIP3   OH227830   6.840   0.230   1.903 -0.5794  0.5026  0.2311
 1212TIP3    H127831   6.914   0.278   1.943 -0.6581  0.6070  0.2525
 1212TIP3    H227832   6.770   0.295   1.897 -0.8353  0.2746  0.6713
 1213TIP3   OH227833   0.135   2.757   2.539  0.1384  0.0144  0.2103
 1213TIP3    H127834   0.159   2.780   2.449 -1.4865 -2.2955 -0.9096
 1213TIP3    H227835   0.091   2.835   2.573  0.7253  0.8970 -0.9978
 1214TIP3   OH227836   4.922   0.162   8.458 -0.0755 -0.4758 -0.1692
 1214TIP3    H127837   5.001   0.170   8.405  0.1039  0.2215  0.1889
 1214TIP3    H227838   4.853   0.201   8.404  0.3328  1.3875  0.5633
 1215TIP3   OH227839   3.651   6.204   9.687  0.6867  0.1250 -0.4883
 1215TIP3    H127840   3.700   6.155   9.754 -0.4025  1.1851  1.1678
 1215TIP3    H227841   3.623   6.138   9.624  0.9993 -1.0672  0.5800
 1216TIP3   OH227842   3.941   3.140   9.401 -0.7985  0.0805  0.5706
 1216TIP3    H127843   3.906   3.146   9.312 -0.9310 -0.8453  0.5448
 1216TIP3    H227844   3.865   3.115   9.454 -0.1142 -2.6549  0.4104
 1217TIP3   OH227845   6.166   0.270   0.312 -0.2488  0.1914 -0.5635
 1217TIP3    H127846   6.102   0.238   0.376  0.4133  1.9373  1.0839
 1217TIP3    H227847   6.248   0.229   0.338  0.2207  1.6463  0.3901
 1218TIP3   OH227848   3.359   1.642   0.515  0.3413 -0.4823  0.1491
 1218TIP3    H127849   3.441   1.688   0.535 -0.1102  0.2678  0.3329
 1218TIP3    H227850   3.325   1.616   0.601  0.0524 -0.1937  0.1229
 1219TIP3   OH227851   2.254   3.556   9.854 -0.1268  0.3478  0.0605
 1219TIP3    H127852   2.305   3.527   9.930 -0.7112  1.4335  0.8966
 1219TIP3    H227853   2.268   3.487   9.788  1.3485 -0.0272  0.7153
 1220TIP3   OH227854   1.236   2.379   9.491 -0.3715 -0.1747 -0.3878
 1220TIP3    H127855   1.326   2.364   9.520 -0.4647  1.3320  0.8264
 1220TIP3    H227856   1.184   2.374   9.571 -1.4989 -1.6467 -1.1517
 1221TIP3   OH227857   1.453   3.458   0.031  0.6623  0.0552 -0.3732
 1221TIP3    H127858   1.535   3.413   0.049  1.1559  1.0067 -0.2008
 1221TIP3    H227859   1.477   3.550   0.024 -0.4547  0.3906  0.0813
 1222TIP3   OH227860   2.624   1.471   9.699  0.3093  0.0301  0.1706
 1222TIP3    H127861   2.636   1.523   9.620  2.7667  0.1118  0.5252
 1222TIP3    H227862   2.585   1.531   9.762 -1.3781  0.0458 -0.8466
 1223TIP3   OH227863   2.310   4.535   7.285 -0.3348 -0.1190  0.2733
 1223TIP3    H127864   2.303   4.595   7.211  0.3176 -0.6567 -0.2390
 1223TIP3    H227865   2.223   4.494   7.290 -0.1122 -0.7835 -0.8293
 1224TIP3   OH227866   3.423   7.463   0.029  0.4949 -0.1236  0.4552
 1224TIP3    H127867   3.353   7.421   0.079  1.1065 -1.4539  0.2433
 1224TIP3    H227868   3.485   7.392   0.012  0.3784  0.3110 -2.0812
 1225TIP3   OH227869   3.158   6.996   0.931  0.2478  0.1605 -0.6456
 1225TIP3    H127870   3.165   7.092   0.924 -2.8997  0.3389 -3.1760
 1225TIP3    H227871   3.231   6.964   0.878  3.3306  0.8813  2.7045
 1226TIP3   OH227872   1.246   1.389   1.376 -0.1006  0.2541  1.0178
 1226TIP3    H127873   1.308   1.395   1.449  2.8467 -2.2223 -0.9698
 1226TIP3    H227874   1.279   1.451   1.311  0.9317 -1.6010 -0.3523
 1227TIP3   OH227875   3.655   1.044   1.462  0.1821 -0.0989 -0.2111
 1227TIP3    H127876   3.699   0.961   1.482  0.2638 -0.0674 -0.2564
 1227TIP3    H227877   3.664   1.053   1.367  0.1177 -0.0696 -0.2142
 1228TIP3   OH227878   4.674   6.181   8.985  0.2321  0.3319  0.4665
 1228TIP3    H127879   4.722   6.118   9.038  0.3273 -0.3766 -0.4245
 1228TIP3    H227880   4.681   6.147   8.895 -1.1036  0.7238  0.1793
 1229TIP3   OH227881   6.310   1.598   2.244 -0.0725  0.6484  0.1562
 1229TIP3    H127882   6.350   1.528   2.191 -0.7240 -0.2590  0.8404
 1229TIP3    H227883   6.259   1.649   2.181 -0.5335 -0.1891 -0.1597
 1230TIP3   OH227884   5.969   1.599   9.677  0.0844  0.0920 -0.2643
 1230TIP3    H127885   6.037   1.652   9.635  0.9074 -2.5576 -2.6226
 1230TIP3    H227886   5.912   1.573   9.605 -0.6886 -1.5957  0.8998
 1231TIP3   OH227887   5.000   2.349   7.963 -0.3860  0.7012 -0.6767
 1231TIP3    H127888   4.968   2.303   7.884 -0.3198 -1.5182  0.5112
 1231TIP3    H227889   4.942   2.318   8.033  2.0344 -0.5686  0.8714
 1232TIP3   OH227890   6.383   3.547   9.415 -0.7063  0.0757 -0.1370
 1232TIP3    H127891   6.345   3.533   9.328  0.8746  1.7392 -1.1835
 1232TIP3    H227892   6.450   3.613   9.401  0.7085 -0.7686  2.0953
 1233TIP3   OH227893   7.613   2.627   7.726 -0.5705  0.1101 -0.1373
 1233TIP3    H127894   7.633   2.586   7.642 -0.4562 -0.1625  0.0193
 1233TIP3    H227895   7.698   2.650   7.763 -0.6219  0.2578 -0.1120
 1234TIP3   OH227896   1.442   2.628   0.099 -0.1226 -0.0570 -0.3295
 1234TIP3    H127897   1.504   2.660   0.164  1.1653 -0.7292 -1.2080
 1234TIP3    H227898   1.471   2.540   0.078 -0.2083  0.3210 -2.1788
 1235TIP3   OH227899   5.946   6.259   0.428 -0.6336  0.3445 -0.1372
 1235TIP3    H127900   6.011   6.262   0.498  0.7762  0.7400 -1.4164
 1235TIP3    H227901   5.924   6.166   0.419  0.3174  0.1152 -0.1824
 1236TIP3   OH227902   6.701   1.886   1.272  0.0922 -0.3465 -0.4068
 1236TIP3    H127903   6.723   1.971   1.235  0.3671 -0.4982 -0.5958
 1236TIP3    H227904   6.773   1.829   1.246  0.4927 -0.3669  0.7032
 1237TIP3   OH227905   1.289   5.139   9.657  0.0904 -0.0907 -0.1363
 1237TIP3    H127906   1.299   5.047   9.634 -0.4504 -0.0844 -0.4134
 1237TIP3    H227907   1.356   5.184   9.605  0.9136 -0.4058  0.6165
 1238TIP3   OH227908   4.514   7.448   6.679 -0.1149  0.1910  0.4124
 1238TIP3    H127909   4.592   7.477   6.727  1.8746 -3.5332 -0.1992
 1238TIP3    H227910   4.528   7.478   6.589 -0.2623  0.9623  0.6394
 1239TIP3   OH227911   5.991   7.022   7.409  0.1886 -0.1464 -0.0427
 1239TIP3    H127912   5.963   6.957   7.473  0.7494 -1.5693 -1.1937
 1239TIP3    H227913   6.086   7.012   7.404  0.1790  0.1007 -0.9169
 1240TIP3   OH227914   5.993   0.318   2.767 -0.1746  0.6077 -0.3400
 1240TIP3    H127915   6.038   0.379   2.826 -0.1940  0.1626  0.1338
 1240TIP3    H227916   5.909   0.301   2.810  0.8967 -1.9122  0.9680
 1241TIP3   OH227917   6.955   3.421  10.021  0.2833  0.5321 -0.0344
 1241TIP3    H127918   6.935   3.362  10.093  0.8635 -1.2711 -1.2819
 1241TIP3    H227919   6.870   3.441   9.981  0.1077  0.3385  0.2428
 1242TIP3   OH227920   2.458   5.904   8.403  0.0251 -0.3769 -0.1675
 1242TIP3    H127921   2.512   5.953   8.465  1.0426 -1.9251  0.2360
 1242TIP3    H227922   2.413   5.839   8.457 -0.2513 -0.7616 -0.8460
 1243TIP3   OH227923   4.055   0.025   1.766  0.6089  0.1026 -0.0407
 1243TIP3    H127924   4.012   0.104   1.731  1.0451  0.5726  0.4706
 1243TIP3    H227925   3.996  -0.046   1.741 -0.2936  0.6941  0.3322
 1244TIP3   OH227926   2.252   7.064   0.799 -0.2165 -0.2579 -0.2276
 1244TIP3    H127927   2.288   7.075   0.887 -2.5268  0.2173  0.7191
 1244TIP3    H227928   2.193   6.990   0.806 -1.7416  0.8461 -0.9168
 1245TIP3   OH227929   3.246   1.333   2.186 -0.0561 -0.0397  0.3826
 1245TIP3    H127930   3.320   1.343   2.245 -0.4249  0.7793  0.7217
 1245TIP3    H227931   3.259   1.247   2.145  0.8177 -0.1071  0.7868
 1246TIP3   OH227932   6.246   1.315   1.381  0.7169  0.0866  0.3864
 1246TIP3    H127933   6.161   1.307   1.425  0.5726  0.8396  0.2555
 1246TIP3    H227934   6.244   1.249   1.312  0.7701 -0.8042  1.2181
 1247TIP3   OH227935   3.672   7.385   0.445  0.0623  0.4754 -0.6820
 1247TIP3    H127936   3.744   7.329   0.472 -0.4933 -0.0012 -0.1512
 1247TIP3    H227937   3.661   7.368   0.352 -0.5653 -0.8481 -0.3805
 1248TIP3   OH227938   3.731   0.087   7.727  0.1193 -0.6141 -0.4147
 1248TIP3    H127939   3.804   0.033   7.758  1.5441  0.7522 -1.1696
 1248TIP3    H227940   3.733   0.076   7.632 -0.7700 -0.6626 -0.4352
 1249TIP3   OH227941   5.326   2.601   2.056 -0.2450  0.2501 -0.2063
 1249TIP3    H127942   5.373   2.651   2.123  0.8893  0.2328 -0.9702
 1249TIP3    H227943   5.378   2.612   1.977 -2.7310  2.1546 -1.7262
 1250TIP3   OH227944   3.733   6.203   8.309 -0.0223  0.2487  0.4312
 1250TIP3    H127945   3.741   6.238   8.220  0.4520 -0.1247  0.3221
 1250TIP3    H227946   3.643   6.223   8.334 -0.5419 -0.6953 -0.5916
 1251TIP3   OH227947   5.473   5.814   8.580  0.4308  0.2723  0.5836
 1251TIP3    H127948   5.467   5.769   8.495  0.5238  1.4492 -0.0650
 1251TIP3    H227949   5.563   5.800   8.608 -0.1097 -1.7873  1.4626
 1252TIP3   OH227950   0.688   5.791   7.367 -0.0871 -0.2794 -0.2779
 1252TIP3    H127951   0.607   5.777   7.416  0.3197  0.7504  0.7309
 1252TIP3    H227952   0.659   5.806   7.277 -0.9922 -0.2784  0.0018
 1253TIP3   OH227953   3.927   5.821   9.595  0.2207 -0.1659  1.0365
 1253TIP3    H127954   3.837   5.854   9.595  0.0485 -0.5027 -0.6005
 1253TIP3    H227955   3.929   5.757   9.666 -0.2563  1.2198  2.3532
 1254TIP3   OH227956   0.998   3.366   3.230  0.0338 -0.4534 -0.2673
 1254TIP3    H127957   1.052   3.444   3.242 -0.6195 -0.1286  0.7233
 1254TIP3    H227958   1.022   3.309   3.303 -0.8813 -0.3308  0.1496
 1255TIP3   OH227959   6.785   1.315   0.624  0.6103 -0.3150 -0.1296
 1255TIP3    H127960   6.751   1.376   0.559  1.0374 -0.7107 -0.7345
 1255TIP3    H227961   6.867   1.355   0.654 -0.5563  0.8705  1.6690
 1256TIP3   OH227962   7.540   4.504   9.701 -0.0314  0.4445  0.2186
 1256TIP3    H127963   7.596   4.461   9.765  0.8826 -1.6731 -1.8647
 1256TIP3    H227964   7.590   4.581   9.673 -0.7705  1.8416  2.4704
 1257TIP3   OH227965   4.562   1.084   6.497  0.1228 -0.7606  0.3530
 1257TIP3    H127966   4.654   1.071   6.519  0.3133 -1.0073 -0.5461
 1257TIP3    H227967   4.546   1.176   6.514  0.8330 -0.4670 -0.4604
 1258TIP3   OH227968   1.004   3.646   1.703  0.0688  0.8331  0.1504
 1258TIP3    H127969   1.067   3.604   1.761  0.2050  1.9076  0.8143
 1258TIP3    H227970   1.018   3.740   1.717 -2.4726  1.1202  1.2088
 1259TIP3   OH227971   0.778   5.487   8.235  0.1963 -0.0521 -0.6937
 1259TIP3    H127972   0.865   5.448   8.231 -0.0425 -0.4794 -2.5857
 1259TIP3    H227973   0.791   5.569   8.284  1.5511 -0.3213 -0.5600
 1260TIP3   OH227974   5.568   1.165   8.365 -0.5421 -0.1024  0.1949
 1260TIP3    H127975   5.595   1.074   8.353  0.2779 -0.2648  2.7383
 1260TIP3    H227976   5.520   1.166   8.447  0.7743  1.9822  1.0177
 1261TIP3   OH227977   3.257   5.753   0.266 -0.5993 -0.3509 -0.0452
 1261TIP3    H127978   3.246   5.818   0.335  0.9010 -0.6989  0.5492
 1261TIP3    H227979   3.274   5.805   0.187  0.6724  0.0145  0.4396
 1262TIP3   OH227980   7.637   4.182   0.107  0.0086 -0.4619  0.4526
 1262TIP3    H127981   7.718   4.142   0.077 -0.0741 -0.0705 -0.3084
 1262TIP3    H227982   7.584   4.109   0.139  0.9049 -0.6525  1.5702
 1263TIP3   OH227983   0.328   0.301   1.243  0.4334 -0.9236 -0.1942
 1263TIP3    H127984   0.391   0.315   1.313 -0.3437  0.0124  0.3486
 1263TIP3    H227985   0.364   0.229   1.192  1.8050 -0.5655  0.2361
 1264TIP3   OH227986   6.428   0.814   1.388  0.2436 -0.1083  0.1029
 1264TIP3    H127987   6.472   0.875   1.328 -1.2360  1.2193  0.2862
 1264TIP3    H227988   6.437   0.728   1.347  1.6184  0.3527 -0.6283
 1265TIP3   OH227989   2.835   7.461   8.944  0.2619 -0.0080  0.3762
 1265TIP3    H127990   2.851   7.454   9.038 -0.8998  0.3501  0.6177
 1265TIP3    H227991   2.792   7.546   8.933  0.4964  0.0104 -0.5028
 1266TIP3   OH227992   5.734   1.246   1.086 -0.3854  0.0650  0.0026
 1266TIP3    H127993   5.820   1.225   1.122 -0.3833  1.2206  0.7171
 1266TIP3    H227994   5.682   1.272   1.162 -1.4646 -0.8571 -0.3827
 1267TIP3   OH227995   1.005   0.040   9.240 -0.2280 -0.6816 -0.3469
 1267TIP3    H127996   0.917   0.038   9.279  0.1902 -1.4334  0.6121
 1267TIP3    H227997   0.992   0.013   9.149 -1.2713  1.3697 -0.8715
 1268TIP3   OH227998   6.328   4.612   0.379  0.2780  0.4429 -0.6404
 1268TIP3    H127999   6.365   4.664   0.307  0.3248  0.6988 -0.4340
 1268TIP3    H228000   6.240   4.649   0.392 -0.2965 -0.5623 -1.5378
 1269TIP3   OH228001   1.018   0.288   1.567 -0.2741 -0.0138 -0.1142
 1269TIP3    H128002   0.957   0.286   1.641  0.4214 -1.3230  0.4698
 1269TIP3    H228003   1.098   0.325   1.603  0.2351 -1.1402 -0.0521
 1270TIP3   OH228004   6.644   6.744   9.345  0.1549 -0.7765 -0.5888
 1270TIP3    H128005   6.570   6.737   9.405 -0.0929 -2.2628 -1.0304
 1270TIP3    H228006   6.606   6.778   9.264  0.6679  2.2812  0.3350
 1271TIP3   OH228007   6.260   5.766   2.662  0.4974 -0.3468  0.1285
 1271TIP3    H128008   6.238   5.762   2.756 -0.5449 -1.3059 -0.1328
 1271TIP3    H228009   6.223   5.848   2.632 -1.3133 -1.1240  0.0788
 1272TIP3   OH228010   6.221   5.326   0.731 -0.0537 -0.3516 -0.4098
 1272TIP3    H128011   6.224   5.399   0.792 -1.3978 -1.0454  0.5392
 1272TIP3    H228012   6.241   5.365   0.646  0.4384  0.8908  0.2521
 1273TIP3   OH228013   1.904   3.285   2.649  0.3038  0.8531  0.5864
 1273TIP3    H128014   1.809   3.280   2.655  0.4347 -1.8145  1.7384
 1273TIP3    H228015   1.928   3.222   2.580  1.3212 -0.3802  2.0008
 1274TIP3   OH228016   7.111   6.539   9.078  0.3093  0.0728  0.0738
 1274TIP3    H128017   7.172   6.511   9.147  1.0464 -0.3748 -0.7384
 1274TIP3    H228018   7.051   6.464   9.068 -0.6133  0.6448  1.1074
 1275TIP3   OH228019   2.390   3.431   1.596  0.5150  0.3171 -0.0190
 1275TIP3    H128020   2.425   3.419   1.508 -0.5179  1.0549 -0.5438
 1275TIP3    H228021   2.320   3.496   1.586 -0.6195 -0.6860  1.0932
 1276TIP3   OH228022   7.266   6.727   2.853  0.0244 -0.0448  0.1929
 1276TIP3    H128023   7.259   6.783   2.930  2.6343  2.5900 -1.3031
 1276TIP3    H228024   7.344   6.674   2.869 -0.1366 -0.3806 -0.1277
 1277TIP3   OH228025   7.691   1.520   2.473  0.1796 -0.4901 -0.1488
 1277TIP3    H128026   7.692   1.592   2.410  0.3070 -0.0386  0.3563
 1277TIP3    H228027   7.663   1.444   2.422  2.6149 -0.6941 -1.3433
 1278TIP3   OH228028   1.564   7.206   8.646 -0.0337  0.1526  0.1526
 1278TIP3    H128029   1.556   7.301   8.656 -0.6069 -0.0408  1.9901
 1278TIP3    H228030   1.656   7.187   8.666  0.0376  0.3104 -0.0329
 1279TIP3   OH228031   0.679   6.701   0.001 -0.2694 -0.5429 -0.4756
 1279TIP3    H128032   0.691   6.716   0.094  1.7155 -3.0614 -0.2144
 1279TIP3    H228033   0.612   6.633  -0.005  1.2363 -2.0751 -0.6750
 1280TIP3   OH228034   1.457   1.257  -0.026 -0.3089  0.0365  0.0342
 1280TIP3    H128035   1.364   1.279  -0.032 -0.2233  0.3101 -0.4255
 1280TIP3    H228036   1.468   1.220   0.061 -1.1183 -1.3113 -0.4146
 1281TIP3   OH228037   6.620   7.290   9.672 -0.1259 -0.5794  0.4671
 1281TIP3    H128038   6.655   7.378   9.680  1.1826 -0.9581 -0.6036
 1281TIP3    H228039   6.623   7.272   9.578 -1.7598 -1.2288  0.5184
 1282TIP3   OH228040   0.152   5.595   8.496 -0.2315 -0.7390  0.7134
 1282TIP3    H128041   0.185   5.662   8.435 -1.3891  1.3197  2.2144
 1282TIP3    H228042   0.147   5.515   8.443  1.7256  0.1843 -1.0308
 1283TIP3   OH228043   3.087   6.724   1.206 -0.6304  0.6519 -0.0262
 1283TIP3    H128044   3.060   6.812   1.181 -0.2728  0.8807  0.3709
 1283TIP3    H228045   3.164   6.738   1.262 -1.0796  0.1388  0.7414
 1284TIP3   OH228046   2.005   2.121   1.415 -0.0863 -0.1699 -0.1419
 1284TIP3    H128047   2.081   2.140   1.470 -1.1704 -0.1029  1.3896
 1284TIP3    H228048   2.031   2.045   1.364  0.0978 -1.8684  2.3106
 1285TIP3   OH228049   5.054   6.866   8.528  0.5818 -0.7014 -1.0858
 1285TIP3    H128050   4.971   6.911   8.517  0.9411 -0.4919 -3.5348
 1285TIP3    H228051   5.031   6.775   8.544 -0.1113 -0.1232  1.6275
 1286TIP3   OH228052   4.323   5.764   8.147 -0.3011 -0.6128  0.3140
 1286TIP3    H128053   4.258   5.792   8.083  0.7296 -0.0583 -0.5203
 1286TIP3    H228054   4.374   5.697   8.101  1.0862  0.4947  0.1669
 1287TIP3   OH228055   2.963   1.432   1.013  0.2494  0.0250  0.2280
 1287TIP3    H128056   2.895   1.368   0.993  0.4851 -0.4807  1.0142
 1287TIP3    H228057   2.993   1.410   1.102  0.0493  1.4731  0.6881
 1288TIP3   OH228058   2.064   0.061   2.251  0.3793  0.2841  0.3501
 1288TIP3    H128059   1.995   0.086   2.190 -0.9725 -0.5310  1.4939
 1288TIP3    H228060   2.084   0.141   2.300 -0.8137  0.1896  1.0112
 1289TIP3   OH228061   4.872   3.556   9.024 -0.0419  0.0336  0.2271
 1289TIP3    H128062   4.925   3.619   8.976  0.2187  0.9511  1.6594
 1289TIP3    H228063   4.936   3.501   9.070 -0.2869 -0.7750 -0.3737
 1290TIP3   OH228064   4.023   1.714   1.278 -0.1913 -0.2665 -0.2441
 1290TIP3    H128065   4.042   1.738   1.187  0.5830  2.2709  0.5038
 1290TIP3    H228066   4.086   1.765   1.329 -2.2947  0.3868  1.8344
 1291TIP3   OH228067   0.346   7.143   9.401 -0.3989 -0.0508 -0.0837
 1291TIP3    H128068   0.397   7.123   9.479 -1.1969 -1.5282  0.0934
 1291TIP3    H228069   0.255   7.127   9.427 -0.7792  0.5832 -0.9757
 1292TIP3   OH228070   3.402   4.457   0.633 -0.1493 -0.0184  0.3112
 1292TIP3    H128071   3.381   4.368   0.662  1.3197 -0.0016  1.5208
 1292TIP3    H228072   3.468   4.445   0.565 -0.0066  0.1395  0.4201
 1293TIP3   OH228073   7.488   6.041   2.455 -0.0516 -0.7383 -0.3669
 1293TIP3    H128074   7.487   6.062   2.361 -2.0378  1.3107  0.0080
 1293TIP3    H228075   7.447   6.117   2.496 -2.2544 -2.9449  1.8586
 1294TIP3   OH228076   1.951   6.307   8.758 -0.0700  0.0907  0.3870
 1294TIP3    H128077   2.010   6.318   8.684  0.8469  0.9743  1.2024
 1294TIP3    H228078   1.942   6.396   8.794 -2.3636  0.0746 -0.0397
 1295TIP3   OH228079   3.887   0.190   1.361 -0.3237  0.0033  0.0356
 1295TIP3    H128080   3.794   0.176   1.343 -0.0161 -2.0218 -0.1506
 1295TIP3    H228081   3.924   0.102   1.367  1.1852  0.7196  2.3255
 1296TIP3   OH228082   1.980   0.248   0.772  0.1668  0.0122  0.1959
 1296TIP3    H128083   2.058   0.225   0.720 -0.6834 -2.0646 -0.2580
 1296TIP3    H228084   1.947   0.328   0.731  2.0463  0.9346  0.4037
 1297TIP3   OH228085   5.054   2.432   9.572 -0.0309  0.5921 -0.8116
 1297TIP3    H128086   4.996   2.477   9.511 -0.4978  1.2094  0.0677
 1297TIP3    H228087   5.058   2.342   9.540 -0.6305  0.7917 -1.4781
 1298TIP3   OH228088   2.600   4.621   7.853  0.0725  0.1229 -0.3339
 1298TIP3    H128089   2.584   4.551   7.790  3.3447 -0.9264 -0.1697
 1298TIP3    H228090   2.528   4.614   7.916 -0.5618 -2.0262 -1.2312
 1299TIP3   OH228091   1.589   1.537   1.880  0.1586  0.3896 -0.4744
 1299TIP3    H128092   1.616   1.477   1.811  0.6179  1.1019 -0.9291
 1299TIP3    H228093   1.578   1.482   1.958 -1.2960 -0.5847 -1.3159
 1300TIP3   OH228094   0.378   2.015   9.557  0.7869  0.2873 -0.1390
 1300TIP3    H128095   0.294   1.999   9.515  0.0478 -0.4685  1.5281
 1300TIP3    H228096   0.413   2.092   9.513 -0.6504  0.4593 -1.0323
 1301TIP3   OH228097   1.025   7.163   0.971  0.2615 -0.0667 -0.4531
 1301TIP3    H128098   1.068   7.246   0.990  0.8898 -0.5789  0.4508
 1301TIP3    H228099   1.048   7.143   0.880 -0.1594  0.8912 -0.7807
 1302TIP3   OH228100   4.471   1.568   1.205  0.7916 -0.4186 -0.1587
 1302TIP3    H128101   4.471   1.616   1.288 -1.6630 -1.2576  0.4143
 1302TIP3    H228102   4.419   1.621   1.146 -1.7372 -2.0973  0.4076
 1303TIP3   OH228103   1.927   5.854   1.340  0.0099 -0.1222 -0.4292
 1303TIP3    H128104   1.832   5.843   1.343  0.0570 -0.4146 -0.0340
 1303TIP3    H228105   1.962   5.782   1.392  0.3826  1.0506  0.9926
 1304TIP3   OH228106   3.828   0.850   7.663 -0.0450 -0.7985 -0.1202
 1304TIP3    H128107   3.797   0.780   7.721 -2.4203  0.6499  0.4495
 1304TIP3    H228108   3.750   0.882   7.619  1.1586  0.7900 -1.2167
 1305TIP3   OH228109   0.296   6.662   8.639 -0.0137  0.6039 -0.0528
 1305TIP3    H128110   0.357   6.590   8.660 -2.3697 -1.0645  1.6440
 1305TIP3    H228111   0.315   6.729   8.705  0.1517  0.1996  0.3191
 1306TIP3   OH228112   3.857   5.235   9.974  0.0657  0.0602  0.1958
 1306TIP3    H128113   3.935   5.256   9.923 -0.9163 -1.1558 -1.9084
 1306TIP3    H228114   3.826   5.321  10.006  0.1073  1.0477 -2.2168
 1307TIP3   OH228115   5.100   4.479   9.240 -0.2270 -0.2924 -0.0637
 1307TIP3    H128116   5.188   4.447   9.219 -0.0425  0.8506 -1.1760
 1307TIP3    H228117   5.110   4.523   9.324  0.7586  1.5672 -1.0865
 1308TIP3   OH228118   1.890   0.447   7.585  0.4834 -0.0954 -0.5459
 1308TIP3    H128119   1.909   0.355   7.572  0.4426 -0.4483  1.5762
 1308TIP3    H228120   1.885   0.458   7.680 -0.5223  1.8852 -0.7648
 1309TIP3   OH228121   0.842   1.086   0.193  0.2036 -0.2433 -0.2801
 1309TIP3    H128122   0.891   1.161   0.227 -0.6102  0.5064 -0.7006
 1309TIP3    H228123   0.798   1.119   0.115 -1.7263 -0.5831  0.6005
 1310TIP3   OH228124   4.166   1.984   0.182  0.4289  0.6278  0.0287
 1310TIP3    H128125   4.076   1.988   0.151  0.1050  1.2636  1.0280
 1310TIP3    H228126   4.191   2.075   0.197  1.5943  0.5570 -1.1827
 1311TIP3   OH228127   0.089   1.344   9.396 -0.4957 -0.0580 -0.0383
 1311TIP3    H128128   0.126   1.276   9.341  1.8616 -0.4025  1.8323
 1311TIP3    H228129   0.115   1.321   9.485 -0.0659  2.9535  0.7445
 1312TIP3   OH228130   2.560   1.063   8.836  0.2628 -0.1916  0.0934
 1312TIP3    H128131   2.493   1.056   8.904  1.7343 -0.6948  1.5405
 1312TIP3    H228132   2.546   0.986   8.781 -0.3723 -0.2758  0.3633
 1313TIP3   OH228133   6.435   1.779   9.985  0.1537  0.2468  0.9794
 1313TIP3    H128134   6.344   1.765   9.959  0.0605 -1.4099  2.0160
 1313TIP3    H228135   6.430   1.832  10.064  0.0244 -0.4783  1.4665
 1314TIP3   OH228136   6.030   4.489   7.803 -0.3904 -0.4340  0.1744
 1314TIP3    H128137   6.111   4.540   7.800 -0.3175 -0.4397  1.4519
 1314TIP3    H228138   5.961   4.554   7.813 -0.3699 -0.5313  0.9872
 1315TIP3   OH228139   0.569   7.047   7.912  0.1910  0.2142 -0.4498
 1315TIP3    H128140   0.614   7.131   7.920  0.8387 -0.0740 -0.9524
 1315TIP3    H228141   0.633   6.983   7.942 -0.6982 -0.0146  1.0321
 1316TIP3   OH228142   7.292   6.866   1.923 -0.3294 -0.2968  0.4052
 1316TIP3    H128143   7.285   6.935   1.858  1.6783 -0.7485 -0.3532
 1316TIP3    H228144   7.207   6.821   1.920 -0.1427 -0.6048 -2.2459
 1317TIP3   OH228145   3.137   7.475   7.686  0.0595 -0.6584  0.2543
 1317TIP3    H128146   3.202   7.457   7.618  0.1917 -2.0022  0.7148
 1317TIP3    H228147   3.187   7.482   7.767  0.0053  1.7840  0.1559
 1318TIP3   OH228148   2.159   1.820   9.467  0.2698  0.1984  0.5573
 1318TIP3    H128149   2.184   1.727   9.464  0.0815  0.1523  0.4345
 1318TIP3    H228150   2.084   1.827   9.409  0.1815  0.3984  0.6946
 1319TIP3   OH228151   0.812   1.487   1.414  0.2650 -0.6674 -0.5208
 1319TIP3    H128152   0.730   1.454   1.451 -0.3159  0.0943 -1.1030
 1319TIP3    H228153   0.870   1.411   1.413 -0.7268 -1.4453 -0.9470
 1320TIP3   OH228154   6.891   2.264   9.880 -0.4456 -0.5274  0.8417
 1320TIP3    H128155   6.923   2.305   9.961 -2.0422 -0.2989  1.3881
 1320TIP3    H228156   6.862   2.338   9.826  2.0308 -0.5291 -0.6642
 1321TIP3   OH228157   4.064   0.859   7.519 -0.3628 -0.3652  0.2111
 1321TIP3    H128158   3.980   0.832   7.555 -0.4549 -0.8657 -0.3702
 1321TIP3    H228159   4.081   0.945   7.558 -1.1951 -0.2115  0.2389
 1322TIP3   OH228160   2.460   5.349   0.921  0.4670  0.3814 -0.3180
 1322TIP3    H128161   2.439   5.279   0.983  2.0402  0.2310  0.0873
 1322TIP3    H228162   2.376   5.390   0.902 -0.2457 -0.5006  0.7915
 1323TIP3   OH228163   6.735   1.538   8.087  0.3758 -0.1977  0.1116
 1323TIP3    H128164   6.729   1.447   8.116 -0.9845 -0.0041  0.4875
 1323TIP3    H228165   6.665   1.584   8.135  0.3611  0.8321 -0.8477
 1324TIP3   OH228166   4.183   1.898   0.444  0.3079 -1.0044  0.3350
 1324TIP3    H128167   4.108   1.839   0.435  0.5130 -1.7640  2.7707
 1324TIP3    H228168   4.189   1.943   0.360 -2.2230 -1.6927 -0.2998
 1325TIP3   OH228169   2.910   3.156   8.370 -0.7394 -0.2709 -0.2161
 1325TIP3    H128170   2.946   3.105   8.442 -0.9474  2.1772  1.7798
 1325TIP3    H228171   2.820   3.125   8.360 -1.5482  0.9825  2.3894
 1326TIP3   OH228172   2.424   7.192   2.362  0.1678 -0.4553  0.4845
 1326TIP3    H128173   2.498   7.175   2.303  0.1289  1.0882 -0.0557
 1326TIP3    H228174   2.352   7.215   2.303 -0.3900 -0.7027  1.0670
 1327TIP3   OH228175   5.319   4.038   9.455  0.2093  0.0745 -0.2807
 1327TIP3    H128176   5.248   3.982   9.486  0.7215 -0.3184  0.2120
 1327TIP3    H228177   5.302   4.050   9.362 -0.2287 -0.4275 -0.2652
 1328TIP3   OH228178   4.444   2.684   7.811  0.0890 -0.0512  0.4721
 1328TIP3    H128179   4.396   2.718   7.736 -0.0731 -0.8995  0.1830
 1328TIP3    H228180   4.515   2.631   7.774  1.3255  1.2473  0.8913
 1329TIP3   OH228181   2.184   3.011   9.056  0.4461  0.0864  0.1249
 1329TIP3    H128182   2.220   3.003   8.967 -0.8466  0.5428 -0.4649
 1329TIP3    H228183   2.092   2.989   9.046  0.3819 -0.3456  1.4637
 1330TIP3   OH228184   6.129   7.167   1.852 -0.3886 -0.5244 -0.1086
 1330TIP3    H128185   6.162   7.219   1.778  2.1174 -1.3880  0.3081
 1330TIP3    H228186   6.045   7.206   1.872 -0.2268  1.0610 -2.1075
 1331TIP3   OH228187   5.086   1.249   1.448  0.5453  0.8556 -0.4304
 1331TIP3    H128188   5.079   1.156   1.427  1.4990  0.7941 -0.5104
 1331TIP3    H228189   5.020   1.291   1.393  0.0698  0.2232 -0.3526
 1332TIP3   OH228190   7.228   5.126   7.958  0.4495  0.1263 -0.2804
 1332TIP3    H128191   7.141   5.130   7.920 -0.5327 -1.3578  1.6481
 1332TIP3    H228192   7.282   5.082   7.892 -0.1676  1.2144 -1.5577
 1333TIP3   OH228193   1.966   0.387   8.112  0.6095  0.2100  0.0597
 1333TIP3    H128194   1.988   0.411   8.202 -0.0520 -0.0998  0.3105
 1333TIP3    H228195   1.917   0.305   8.120  1.0343 -0.1241 -0.6274
 1334TIP3   OH228196   4.374   5.746   9.526  0.4954 -0.4045  0.0535
 1334TIP3    H128197   4.309   5.681   9.553  0.4767 -0.7579 -0.8086
 1334TIP3    H228198   4.415   5.775   9.608  0.2325 -1.2199  0.4818
 1335TIP3   OH228199   7.674   1.949   7.562 -0.1081  0.2003 -0.0443
 1335TIP3    H128200   7.756   1.947   7.513  0.6022  2.4920  0.9285
 1335TIP3    H228201   7.690   1.892   7.638  1.0862  1.5723  0.7893
 1336TIP3   OH228202   0.357   7.538   0.040 -0.2606 -0.3622  0.0280
 1336TIP3    H128203   0.442   7.495   0.026 -0.4802 -0.7371 -0.1682
 1336TIP3    H228204   0.345   7.537   0.134 -0.7409 -1.6822 -0.0229
 1337TIP3   OH228205   6.953   3.429   8.491 -0.2676 -0.2241  0.2035
 1337TIP3    H128206   6.963   3.443   8.397 -0.6405  0.1746  0.2189
 1337TIP3    H228207   7.010   3.355   8.510 -2.6868 -2.5319 -0.9409
 1338TIP3   OH228208   0.388   7.361   7.394  0.6388  0.0390  0.4184
 1338TIP3    H128209   0.483   7.356   7.384  0.7451 -0.5232  1.5064
 1338TIP3    H228210   0.375   7.405   7.478 -0.0219 -1.2233  1.0002
 1339TIP3   OH228211   3.871   4.528   7.458 -0.1538  0.2424  0.3778
 1339TIP3    H128212   3.922   4.498   7.533 -1.8240  1.2425  2.0217
 1339TIP3    H228213   3.936   4.545   7.389  1.2071 -3.3636  0.5525
 1340TIP3   OH228214   1.041   2.510   7.015  0.6494 -0.0251 -0.3233
 1340TIP3    H128215   1.086   2.585   7.053 -1.5028  0.3336  1.7778
 1340TIP3    H228216   0.960   2.546   6.980  0.1929 -1.1802 -0.4860
 1341TIP3   OH228217   1.013   3.500   2.219  0.8005 -0.6291 -0.2248
 1341TIP3    H128218   1.034   3.502   2.125  0.9742  1.5638 -0.1763
 1341TIP3    H228219   0.940   3.438   2.225  0.3718 -0.3471 -1.9078
 1342TIP3   OH228220   1.059   2.524   1.490 -0.1429  0.0803  0.4251
 1342TIP3    H128221   1.051   2.612   1.454  1.6113 -0.7396 -2.2637
 1342TIP3    H228222   1.109   2.536   1.571  1.3686  1.4537 -0.6510
 1343TIP3   OH228223   5.016   0.114   2.543 -0.3236 -0.7893 -0.5330
 1343TIP3    H128224   4.984   0.198   2.574  1.5681 -0.6522  1.2564
 1343TIP3    H228225   5.008   0.119   2.447 -1.0554  1.0519 -0.4180
 1344TIP3   OH228226   1.685   3.304   1.579  0.1792  0.2938 -0.6090
 1344TIP3    H128227   1.672   3.393   1.613  0.9810  0.5454 -0.9604
 1344TIP3    H228228   1.611   3.290   1.520 -0.3304  0.4618 -0.0240
 1345TIP3   OH228229   6.387   6.950   9.462  0.1775 -0.3684  0.5401
 1345TIP3    H128230   6.293   6.935   9.463  0.3532 -1.6303  0.6317
 1345TIP3    H228231   6.424   6.869   9.498  1.4304 -1.1561 -2.2914
 1346TIP3   OH228232   4.133   6.709   8.714  0.1458  0.5572  0.6661
 1346TIP3    H128233   4.157   6.617   8.704  1.4365  0.9843 -0.3771
 1346TIP3    H228234   4.037   6.708   8.723 -0.0032 -0.7703 -0.7780
 1347TIP3   OH228235   5.807   0.787   0.280 -0.1562  0.5704  0.5492
 1347TIP3    H128236   5.846   0.721   0.223  0.0168  1.6962 -0.6724
 1347TIP3    H228237   5.713   0.767   0.279 -0.1313  0.4740  0.0223
 1348TIP3   OH228238   2.397   3.607   9.007  0.1041 -0.2328 -0.1127
 1348TIP3    H128239   2.316   3.657   8.997  0.0777 -0.1000  0.7142
 1348TIP3    H228240   2.387   3.561   9.090 -0.7930 -3.3162 -1.7568
 1349TIP3   OH228241   1.306   0.296   2.727  0.2596 -0.1101 -0.1033
 1349TIP3    H128242   1.295   0.271   2.819 -2.2158 -0.9735 -0.5687
 1349TIP3    H228243   1.217   0.301   2.692  1.1092  0.6571 -2.3617
 1350TIP3   OH228244   2.112   5.031   6.612  0.5599  0.3386 -0.2151
 1350TIP3    H128245   2.200   5.061   6.634  0.0598  1.4443  0.3222
 1350TIP3    H228246   2.057   5.109   6.618 -0.5523 -0.4289 -0.0508
 1351TIP3   OH228247   0.340   5.526   2.292  0.0147 -0.6819 -0.3089
 1351TIP3    H128248   0.333   5.435   2.319 -0.9457 -0.3528  0.5857
 1351TIP3    H228249   0.249   5.554   2.278  0.3042  0.1339 -0.5967
 1352TIP3   OH228250   6.312   7.032   7.351 -0.3786 -0.1315 -0.2711
 1352TIP3    H128251   6.380   7.037   7.283 -1.5144 -0.2380 -1.4679
 1352TIP3    H228252   6.340   7.095   7.417  0.0100  1.1186 -1.5678
 1353TIP3   OH228253   6.478   4.137   1.299 -0.3519 -0.5567  0.1695
 1353TIP3    H128254   6.383   4.131   1.295 -0.3607  0.2077 -1.4657
 1353TIP3    H228255   6.507   4.126   1.208  1.1053 -0.6224  0.6137
 1354TIP3   OH228256   2.815   7.289   7.924 -0.3325  0.0995 -0.1966
 1354TIP3    H128257   2.780   7.243   7.848  0.5822  1.1097 -1.2461
 1354TIP3    H228258   2.863   7.363   7.888  0.8303  0.1255  1.3235
 1355TIP3   OH228259   4.806   1.031   6.620  0.2176 -0.2951 -0.2380
 1355TIP3    H128260   4.821   0.958   6.680 -1.1715 -0.1362  0.3440
 1355TIP3    H228261   4.879   1.091   6.636  0.2073 -0.5528  0.8404
 1356TIP3   OH228262   1.605   6.467   0.472 -0.2665 -0.2592 -0.0365
 1356TIP3    H128263   1.689   6.504   0.447  0.9597 -1.3489  2.1162
 1356TIP3    H228264   1.622   6.373   0.484 -1.6625 -0.4409  0.8656
 1357TIP3   OH228265   1.134   1.483   7.606  0.3580  0.2280 -0.4894
 1357TIP3    H128266   1.112   1.556   7.663 -5.0251  0.3696 -2.2190
 1357TIP3    H228267   1.127   1.517   7.517  0.9416 -1.7010 -1.3485
 1358TIP3   OH228268   1.719   6.585   9.537 -0.3734 -0.5004  0.3069
 1358TIP3    H128269   1.722   6.601   9.631  0.5401 -0.4081  0.2679
 1358TIP3    H228270   1.667   6.657   9.502 -1.5315 -1.0504  0.8346
 1359TIP3   OH228271   5.630   2.538   9.646  0.0397  0.3214  0.1470
 1359TIP3    H128272   5.662   2.448   9.641  1.0133  0.7069 -0.8531
 1359TIP3    H228273   5.535   2.530   9.635  0.2820 -0.4617 -1.7996
 1360TIP3   OH228274   0.615   7.159   1.034  0.3619  0.0357 -0.6804
 1360TIP3    H128275   0.669   7.209   0.973  0.8870  0.2605 -0.0453
 1360TIP3    H228276   0.558   7.106   0.978 -1.1884  2.3284 -1.4058
 1361TIP3   OH228277   0.576   1.962   0.447 -0.2313  0.4011 -0.2206
 1361TIP3    H128278   0.670   1.963   0.460  0.6242 -4.3333 -3.2483
 1361TIP3    H228279   0.539   1.945   0.534  2.0203 -0.6111  0.6039
 1362TIP3   OH228280   2.746   7.370   9.906  0.5051 -0.0331 -0.8072
 1362TIP3    H128281   2.780   7.288   9.944  1.7993  0.9741  0.3188
 1362TIP3    H228282   2.691   7.341   9.833  1.0325 -1.9025 -0.5320
 1363TIP3   OH228283   5.212   4.710   0.082 -0.1444  0.3428 -0.2880
 1363TIP3    H128284   5.247   4.648   0.019  0.3879  0.5196 -0.1712
 1363TIP3    H228285   5.132   4.744   0.041  1.1322  1.8113 -1.6867
 1364TIP3   OH228286   0.764   4.753   9.781 -0.5740 -0.0415  0.8511
 1364TIP3    H128287   0.669   4.746   9.792 -0.5493 -1.0205  0.5733
 1364TIP3    H228288   0.779   4.736   9.688 -0.1817  0.8411  0.7513
 1365TIP3   OH228289   2.721   0.085   0.999 -0.0171 -0.4971  0.3716
 1365TIP3    H128290   2.684   0.112   0.915  1.5510 -0.5777 -0.3795
 1365TIP3    H228291   2.761  -0.001   0.981 -1.5029 -1.5295  1.7470
 1366TIP3   OH228292   0.390   4.200   8.261  0.0173 -0.0163  0.0571
 1366TIP3    H128293   0.330   4.158   8.199 -0.1592  1.1298 -0.5635
 1366TIP3    H228294   0.335   4.221   8.337  0.3634 -1.9986  0.9251
 1367TIP3   OH228295   6.434   6.015   1.650  0.5416 -0.3393  0.0942
 1367TIP3    H128296   6.381   6.089   1.622  1.5734  0.2699 -0.2923
 1367TIP3    H228297   6.385   5.977   1.724 -0.2558  0.3915 -0.0437
 1368TIP3   OH228298   5.151   5.891   6.972 -0.1439 -0.4036 -0.0908
 1368TIP3    H128299   5.056   5.898   6.968 -0.0604  0.7987 -0.3391
 1368TIP3    H228300   5.176   5.949   7.044  0.4656 -0.0034 -0.6227
 1369TIP3   OH228301   0.551   2.753   0.372  0.0249 -0.0651 -0.0311
 1369TIP3    H128302   0.567   2.840   0.408  0.8450 -0.7768  1.4159
 1369TIP3    H228303   0.530   2.699   0.448 -0.3298 -1.1753 -0.8856
 1370TIP3   OH228304   6.525   7.642   7.994 -0.1161  0.1330 -0.3966
 1370TIP3    H128305   6.449   7.695   7.971  1.4095  2.5580 -0.1740
 1370TIP3    H228306   6.507   7.556   7.954 -2.5072  0.8746 -1.1192
 1371TIP3   OH228307   7.603   3.713   2.110  0.2054 -0.4869 -0.0794
 1371TIP3    H128308   7.576   3.765   2.034  1.7313  1.0115  0.3485
 1371TIP3    H228309   7.538   3.736   2.177  0.7125  0.7261  0.0270
 1372TIP3   OH228310   7.106   0.192   7.918 -0.0022 -0.1487 -0.0883
 1372TIP3    H128311   7.195   0.200   7.951  0.0858 -2.2915  0.3552
 1372TIP3    H228312   7.053   0.243   7.979  0.5785 -1.3660  1.5000
 1373TIP3   OH228313   0.967   2.270   8.951  0.1992 -0.2236 -0.1761
 1373TIP3    H128314   0.978   2.279   8.856  0.4524 -0.7668 -0.2022
 1373TIP3    H228315   0.876   2.295   8.967 -0.2078 -1.2771 -0.7224
 1374TIP3   OH228316   6.174   6.532   7.256  0.2679  0.2970  0.1660
 1374TIP3    H128317   6.246   6.583   7.293  0.5211  0.5234 -0.6003
 1374TIP3    H228318   6.178   6.552   7.162 -0.8984  0.4521  0.1350
 1375TIP3   OH228319   4.742   1.987   9.816 -0.1749 -0.2208 -0.1673
 1375TIP3    H128320   4.771   1.911   9.766 -1.5724  0.5169 -2.2003
 1375TIP3    H228321   4.821   2.041   9.824  0.4078 -1.0357 -0.2441
 1376TIP3   OH228322   2.060   4.526   7.645  0.0768  0.2995 -0.0981
 1376TIP3    H128323   2.103   4.547   7.728 -0.5013  1.9416 -0.1605
 1376TIP3    H228324   2.093   4.440   7.621 -0.2225 -0.5164  2.1543
 1377TIP3   OH228325   7.149   7.413   7.791 -0.1029 -0.6636  0.3697
 1377TIP3    H128326   7.102   7.456   7.719  0.7979 -0.2886 -0.0026
 1377TIP3    H228327   7.121   7.322   7.787 -0.0616 -0.6459 -0.4616
 1378TIP3   OH228328   7.406   4.673   7.575  0.3361 -0.5754  0.1750
 1378TIP3    H128329   7.485   4.673   7.629  0.5789 -0.0277 -0.1644
 1378TIP3    H228330   7.425   4.736   7.505  0.0879 -1.3778 -0.6384
 1379TIP3   OH228331   2.048   3.493   2.416 -0.0499  0.3830  0.6736
 1379TIP3    H128332   2.029   3.414   2.365  0.9746  0.9585 -0.6609
 1379TIP3    H228333   1.962   3.531   2.434 -0.4498  1.2075 -2.3984
 1380TIP3   OH228334   2.896   7.412   9.482 -0.4632 -0.1668 -0.2923
 1380TIP3    H128335   2.968   7.409   9.419  0.8118 -1.1149  1.1363
 1380TIP3    H228336   2.826   7.362   9.440  0.1811 -0.3827 -1.1486
 1381TIP3   OH228337   3.410   2.609   8.387  0.1548 -0.7038  0.3663
 1381TIP3    H128338   3.489   2.661   8.397  0.3999 -0.6649 -1.3719
 1381TIP3    H228339   3.418   2.539   8.452  2.1361 -1.3089 -0.4685
 1382TIP3   OH228340   4.514   0.983   8.300 -0.2334 -0.1636 -0.7451
 1382TIP3    H128341   4.601   0.945   8.310 -0.3587 -0.0172  1.4553
 1382TIP3    H228342   4.525   1.075   8.324 -0.8190  0.0838 -1.3950
 1383TIP3   OH228343   0.593   7.421   0.757  0.1120 -0.3761  0.2749
 1383TIP3    H128344   0.670   7.369   0.784  0.3209  0.2680  0.9545
 1383TIP3    H228345   0.570   7.386   0.671  1.9587  0.2633 -0.5245
 1384TIP3   OH228346   5.732   0.891   9.905 -0.1552 -0.5513 -0.7799
 1384TIP3    H128347   5.689   0.809   9.927 -2.0999  0.5138 -0.3643
 1384TIP3    H228348   5.812   0.891   9.958 -0.8196 -1.5558  0.2807
 1385TIP3   OH228349   5.124   7.592   0.624 -0.2614  0.1001  0.5092
 1385TIP3    H128350   5.200   7.534   0.617  1.9101  2.7727  0.4009
 1385TIP3    H228351   5.059   7.540   0.671  2.3294 -1.6553  2.4466
 1386TIP3   OH228352   7.670   0.367   0.330  0.3181 -0.5896  0.1732
 1386TIP3    H128353   7.591   0.374   0.384  1.7681 -3.1338  2.8895
 1386TIP3    H228354   7.740   0.403   0.385  1.8362 -3.1173  0.0387
 1387TIP3   OH228355   2.188   1.893   0.267  0.7145 -0.0257 -0.2000
 1387TIP3    H128356   2.168   1.919   0.177  1.5715  1.3954 -0.0085
 1387TIP3    H228357   2.115   1.926   0.319  0.6463 -0.0775 -0.2637
 1388TIP3   OH228358   3.430   6.050   7.948  0.2823  0.2382 -0.2521
 1388TIP3    H128359   3.500   6.029   8.010  0.3765  1.7653  0.1878
 1388TIP3    H228360   3.361   5.987   7.968  1.3786 -1.1138 -0.4942
 1389TIP3   OH228361   4.982   1.191   7.804  0.1652  0.4772 -0.0518
 1389TIP3    H128362   5.069   1.189   7.843 -0.7564  2.2327  2.3399
 1389TIP3    H228363   4.972   1.106   7.762  2.6297 -0.1491  0.5055
 1390TIP3   OH228364   5.115   7.028  -0.032 -0.5175 -0.2094 -0.6685
 1390TIP3    H128365   5.083   7.100  -0.087  1.1694 -0.5469 -2.1632
 1390TIP3    H228366   5.058   6.955  -0.055 -3.2072  0.8509  1.9068
 1391TIP3   OH228367   7.418   6.862   0.983  0.3358  0.1932  0.0505
 1391TIP3    H128368   7.437   6.774   1.016  0.2329 -0.5219 -1.7013
 1391TIP3    H228369   7.407   6.851   0.889 -1.4430  1.7988  0.0040
 1392TIP3   OH228370   7.633   0.298   8.588 -0.0216  0.0340  0.2687
 1392TIP3    H128371   7.635   0.360   8.661 -1.2571  1.6133 -0.9542
 1392TIP3    H228372   7.586   0.344   8.519 -1.0350 -2.2987 -0.7208
 1393TIP3   OH228373   6.040   4.498   8.643  0.0280  0.2575  0.6263
 1393TIP3    H128374   6.123   4.533   8.677  1.0487 -0.3084 -1.1662
 1393TIP3    H228375   5.982   4.574   8.637  1.9196  1.6434 -2.3611
 1394TIP3   OH228376   1.085   7.065   2.814 -0.3610  0.6502  0.0033
 1394TIP3    H128377   1.181   7.064   2.815 -0.3595 -0.6349 -0.3128
 1394TIP3    H228378   1.062   7.081   2.723 -0.4258 -0.9362 -0.2852
 1395TIP3   OH228379   6.629   1.734   2.939 -0.4495 -0.3732  0.1124
 1395TIP3    H128380   6.540   1.753   2.971 -0.3934  0.4834 -0.2209
 1395TIP3    H228381   6.621   1.731   2.844 -0.3494 -1.5463  0.1301
 1396TIP3   OH228382   2.166   0.278   9.438 -0.6000  0.2316  0.0752
 1396TIP3    H128383   2.213   0.206   9.479 -0.2592  0.0946 -0.5478
 1396TIP3    H228384   2.231   0.322   9.384 -1.2640 -0.2025 -1.1207
 1397TIP3   OH228385   0.441   7.338   8.206 -0.5528 -0.2723  0.4568
 1397TIP3    H128386   0.345   7.344   8.212 -0.6678 -1.3035 -0.2487
 1397TIP3    H228387   0.471   7.428   8.215 -1.6195  0.1171  0.2148
 1398TIP3   OH228388   7.235   1.836   0.953  0.0577 -0.1941  0.3927
 1398TIP3    H128389   7.151   1.881   0.960  0.6318  0.8854  0.7209
 1398TIP3    H228390   7.215   1.751   0.914 -1.2108 -0.0631  0.7305
 1399TIP3   OH228391   4.242   2.258   0.946 -0.1629  0.7899  0.1577
 1399TIP3    H128392   4.169   2.317   0.925 -0.9574 -0.4234 -0.6211
 1399TIP3    H228393   4.318   2.315   0.952 -1.1692  2.1104  1.0425
 1400TIP3   OH228394   3.493   1.112   9.731  0.0222 -0.0161  0.1649
 1400TIP3    H128395   3.531   1.156   9.655  1.7873  0.0961  1.0663
 1400TIP3    H228396   3.400   1.103   9.710  0.0736  1.9158 -1.0950
 1401TIP3   OH228397   2.130   1.837   7.347 -0.0421  0.5170  0.1817
 1401TIP3    H128398   2.051   1.883   7.373  0.2697  1.7213 -0.9062
 1401TIP3    H228399   2.201   1.898   7.368  0.3665  0.6191 -1.4064
 1402TIP3   OH228400   4.977   3.569   7.565  0.2162  0.3064 -0.1006
 1402TIP3    H128401   4.902   3.547   7.511 -0.4668  1.0452  0.5088
 1402TIP3    H228402   5.028   3.631   7.512  0.7970 -0.7530 -0.8027
 1403TIP3   OH228403   0.296   3.126   0.295 -0.4999  0.6009  0.7033
 1403TIP3    H128404   0.249   3.099   0.216 -1.0384  1.7618  0.6066
 1403TIP3    H228405   0.227   3.146   0.358 -0.0878  0.5109  1.1859
 1404TIP3   OH228406   3.181   2.044   1.127 -0.0883 -0.3557 -0.5900
 1404TIP3    H128407   3.237   2.098   1.183  1.5660 -0.1342 -2.3481
 1404TIP3    H228408   3.106   2.101   1.106 -0.8197 -0.4884  1.4049
 1405TIP3   OH228409   6.622   0.388   1.908 -0.3182  0.2230  0.5192
 1405TIP3    H128410   6.564   0.458   1.938 -0.1215  0.7636 -0.3323
 1405TIP3    H228411   6.563   0.325   1.867 -0.4638  0.0191  1.0316
 1406TIP3   OH228412   0.200   7.419   8.599 -0.4796  0.1185  0.3183
 1406TIP3    H128413   0.289   7.453   8.608 -0.6757  1.1072 -1.1216
 1406TIP3    H228414   0.149   7.494   8.568 -1.2757 -1.0593 -1.3412
 1407TIP3   OH228415   6.131   7.626   9.911  0.3917 -0.1118  0.1623
 1407TIP3    H128416   6.180   7.683   9.970  0.1891  0.5799 -0.3208
 1407TIP3    H228417   6.050   7.674   9.893  0.5353 -0.2182 -0.8240
 1408TIP3   OH228418   1.888   3.750   9.383  0.1844 -0.5005 -0.4435
 1408TIP3    H128419   1.816   3.693   9.357  0.7815 -1.2348 -0.5042
 1408TIP3    H228420   1.866   3.777   9.472  0.4410 -1.7401  0.0179
 1409TIP3   OH228421   7.667   6.262   0.244  0.4548  0.1185  0.3069
 1409TIP3    H128422   7.720   6.341   0.236 -0.7773  0.9646  0.3186
 1409TIP3    H228423   7.614   6.260   0.164  1.3787 -1.4117 -0.3185
 1410TIP3   OH228424   3.199   6.788   9.332 -0.0469  0.0227 -0.0259
 1410TIP3    H128425   3.155   6.706   9.354  1.7660 -0.6542  1.3451
 1410TIP3    H228426   3.221   6.827   9.416  2.7002 -0.1399 -0.5693
 1411TIP3   OH228427   6.959   3.573   0.938 -0.0269  0.2131  0.0116
 1411TIP3    H128428   7.008   3.643   0.895  2.0814  1.2056  3.5958
 1411TIP3    H228429   6.867   3.599   0.929  0.4591  1.5313 -1.7310
 1412TIP3   OH228430   4.137   1.666   9.344 -0.9073 -0.0393  0.3582
 1412TIP3    H128431   4.081   1.618   9.406  0.1507  0.1420  1.4984
 1412TIP3    H228432   4.161   1.601   9.279 -0.7034 -0.6905  1.0653
 1413TIP3   OH228433   2.429   6.553   7.593 -0.0427 -0.1892 -0.2573
 1413TIP3    H128434   2.493   6.575   7.525 -0.6587  1.9280 -0.2020
 1413TIP3    H228435   2.433   6.625   7.655 -0.0547 -1.7099  1.6037
 1414TIP3   OH228436   6.470   4.323   8.053  0.5230 -0.0860  0.3595
 1414TIP3    H128437   6.433   4.236   8.038  0.6617  0.1060 -1.3800
 1414TIP3    H228438   6.405   4.368   8.106 -0.2258 -0.8020  0.0720
 1415TIP3   OH228439   4.147   1.498   2.503  0.1611  0.3421 -0.4065
 1415TIP3    H128440   4.215   1.535   2.559  0.2608  0.7232 -0.7773
 1415TIP3    H228441   4.131   1.565   2.437 -0.7437  0.3591 -0.1837
 1416TIP3   OH228442   3.570   0.284   2.640  0.2335  0.3553 -0.0165
 1416TIP3    H128443   3.665   0.288   2.650  0.6222 -0.9224 -2.5620
 1416TIP3    H228444   3.553   0.329   2.557 -1.5393  1.4732  0.8998
 1417TIP3   OH228445   1.226   1.267   9.345 -0.1973 -0.6680  0.2177
 1417TIP3    H128446   1.215   1.358   9.317  1.4233 -0.0897  1.3115
 1417TIP3    H228447   1.272   1.225   9.272  0.2186 -0.2492  0.2266
 1418TIP3   OH228448   1.286   5.031   1.831 -0.1121 -0.6250 -0.0673
 1418TIP3    H128449   1.223   5.029   1.759  0.6439  0.4232 -0.7748
 1418TIP3    H228450   1.358   5.085   1.799  1.1149 -1.7104  0.7643
 1419TIP3   OH228451   6.433   4.848   7.431 -0.1985 -0.0450 -0.5267
 1419TIP3    H128452   6.350   4.873   7.391 -0.2492  0.9366  0.1480
 1419TIP3    H228453   6.499   4.894   7.379 -0.2483  1.0300  0.3180
 1420TIP3   OH228454   0.474  -0.001   2.036  0.6813 -0.0547  0.1961
 1420TIP3    H128455   0.436  -0.069   1.981  0.7592 -0.4876  0.6612
 1420TIP3    H228456   0.508   0.064   1.975  1.3489 -0.8387 -0.2841
 1421TIP3   OH228457   7.627   7.403   7.118 -0.2522  0.2371  0.0870
 1421TIP3    H128458   7.554   7.341   7.116 -0.3539  0.3739 -0.4329
 1421TIP3    H228459   7.606   7.469   7.052 -0.5650  1.3127  1.1995
 1422TIP3   OH228460   1.773   4.255   6.729 -0.0412  0.5997 -0.6997
 1422TIP3    H128461   1.685   4.250   6.764  0.0733 -0.5364 -0.5323
 1422TIP3    H228462   1.762   4.287   6.639 -0.5651  1.0410 -0.4785
 1423TIP3   OH228463   6.985   1.765   8.323 -0.4508 -0.0980  0.3547
 1423TIP3    H128464   6.960   1.747   8.414 -0.8598  1.6425  0.6407
 1423TIP3    H228465   7.052   1.834   8.331  1.1852 -1.5052 -0.6012
 1424TIP3   OH228466   0.171   6.174   7.093  0.1260 -0.0864  0.6764
 1424TIP3    H128467   0.139   6.088   7.122 -1.6976  0.0215 -0.7992
 1424TIP3    H228468   0.175   6.167   6.998  0.3340  1.3494  0.5608
 1425TIP3   OH228469   1.933   2.648   0.495  0.5110 -0.3805 -0.3052
 1425TIP3    H128470   1.865   2.582   0.480  0.3637 -0.2305 -0.3032
 1425TIP3    H228471   1.924   2.709   0.421  0.2662 -0.0428  0.0031
 1426TIP3   OH228472   5.609   2.477   8.093  0.3347 -0.5156  0.2512
 1426TIP3    H128473   5.560   2.410   8.142  0.6388 -1.2688 -0.4467
 1426TIP3    H228474   5.701   2.449   8.100  0.6726  0.7967  1.4131
 1427TIP3   OH228475   4.007   1.560   9.067 -0.3252  0.6454  0.1631
 1427TIP3    H128476   4.102   1.564   9.080 -0.3649  1.2312  0.2880
 1427TIP3    H228477   3.976   1.503   9.137 -0.1349  0.9850  0.5315
 1428TIP3   OH228478   6.573   5.844   8.878 -0.1941 -0.0417  0.2590
 1428TIP3    H128479   6.620   5.880   8.953  1.3143  2.8783 -1.8647
 1428TIP3    H228480   6.596   5.751   8.877  1.0493  0.1734  2.4159
 1429TIP3   OH228481   1.003   6.097   1.466 -0.7590  0.0091 -0.6724
 1429TIP3    H128482   1.032   6.162   1.402 -0.2086 -0.1862 -0.6280
 1429TIP3    H228483   1.061   6.022   1.452 -0.1908  0.2059  0.4821
 1430TIP3   OH228484   0.999   3.240   9.836  0.2662  0.1738 -0.2368
 1430TIP3    H128485   0.971   3.238   9.928  0.5485  2.2279 -0.0356
 1430TIP3    H228486   1.032   3.152   9.819  1.7329  0.1470  2.1629
 1431TIP3   OH228487   0.075   0.624   1.509  0.3130  0.5404 -0.1580
 1431TIP3    H128488   0.139   0.695   1.519  0.4772  0.3115  0.5148
 1431TIP3    H228489   0.107   0.556   1.569  0.0067  0.0108 -0.5936
 1432TIP3   OH228490   6.563   4.770   9.717  0.0816 -0.3694 -0.5655
 1432TIP3    H128491   6.534   4.822   9.642 -1.2549 -0.5350 -0.1945
 1432TIP3    H228492   6.650   4.805   9.739 -0.2427  0.8453 -1.1164
 1433TIP3   OH228493   5.453   6.406   0.760  0.4334  0.2110 -0.1894
 1433TIP3    H128494   5.438   6.420   0.666 -1.8578  0.2802  0.1154
 1433TIP3    H228495   5.448   6.311   0.770 -1.4439  0.3049  0.1062
 1434TIP3   OH228496   7.165   6.687   0.740  0.5961  0.1507  0.1018
 1434TIP3    H128497   7.197   6.617   0.797  2.6357  1.2917  0.4730
 1434TIP3    H228498   7.244   6.733   0.713 -0.5147  1.0152 -1.8820
 1435TIP3   OH228499   5.547   6.825   0.512 -0.3402  0.0744  0.2194
 1435TIP3    H128500   5.560   6.843   0.605 -0.1894  2.8290 -0.2766
 1435TIP3    H228501   5.467   6.772   0.509  0.3265 -1.1535  1.9456
 1436TIP3   OH228502   2.361   0.789   8.861  0.0968  0.3754  0.1369
 1436TIP3    H128503   2.428   0.818   8.799 -0.6617 -0.1384 -0.9708
 1436TIP3    H228504   2.326   0.709   8.822 -0.3663  0.0115  1.2753
 1437TIP3   OH228505   6.498   1.975   0.853  0.0451  0.8004  0.4045
 1437TIP3    H128506   6.592   1.992   0.854  0.2515 -0.1252 -0.8359
 1437TIP3    H228507   6.466   2.021   0.775 -0.7618  2.0758  1.4421
 1438TIP3   OH228508   4.608   2.068   1.970  0.3768 -0.0961 -0.1996
 1438TIP3    H128509   4.514   2.049   1.976  0.2059  0.9608  0.7368
 1438TIP3    H228510   4.649   2.001   2.026  0.1733 -0.4706 -0.4956
 1439TIP3   OH228511   0.826   6.441   7.624 -0.1429  0.2862  0.3528
 1439TIP3    H128512   0.799   6.450   7.716 -0.8685 -1.5812  0.3591
 1439TIP3    H228513   0.920   6.461   7.624  0.1482 -0.9264  1.7481
 1440TIP3   OH228514   7.719   2.535   7.235  0.9377 -0.2343 -0.0013
 1440TIP3    H128515   7.746   2.497   7.151  1.2073  0.3316 -0.1774
 1440TIP3    H228516   7.763   2.620   7.238  1.3818 -0.4879  0.9805
 1441TIP3   OH228517   6.070   5.905   7.477  0.2681  0.1245  0.4158
 1441TIP3    H128518   6.054   5.999   7.469  0.7284  0.0897 -1.5086
 1441TIP3    H228519   5.991   5.864   7.442 -0.1725 -0.2531  1.7756
 1442TIP3   OH228520   4.712   1.074   7.623 -0.0066  0.0098 -0.2599
 1442TIP3    H128521   4.702   0.980   7.641  2.7516  0.0401  2.2123
 1442TIP3    H228522   4.755   1.077   7.538  0.0133 -0.9656 -0.2992
 1443TIP3   OH228523   4.450   2.158   8.685 -0.2391 -0.0938 -0.4891
 1443TIP3    H128524   4.427   2.127   8.773 -0.9006  0.6034 -0.4036
 1443TIP3    H228525   4.468   2.078   8.635 -0.2312 -0.5165  0.1736
 1444TIP3   OH228526   7.521   0.267   8.268 -0.0349  0.4460 -0.0731
 1444TIP3    H128527   7.495   0.344   8.319 -2.0182 -0.0669 -0.2476
 1444TIP3    H228528   7.443   0.211   8.266  1.4117 -1.7011  0.2191
 1445TIP3   OH228529   5.447   1.609   9.428  0.2567  0.3333  0.0448
 1445TIP3    H128530   5.540   1.626   9.411 -0.1040  1.3668 -1.0577
 1445TIP3    H228531   5.434   1.641   9.518  0.7757  1.0316 -0.1125
 1446TIP3   OH228532   2.419   4.886   8.739  0.1243 -0.0470  0.1454
 1446TIP3    H128533   2.475   4.958   8.710  0.3255 -0.6477 -1.0558
 1446TIP3    H228534   2.389   4.912   8.826 -1.3866  2.4081 -1.0033
 1447TIP3   OH228535   0.231   0.947   7.959  0.4792  0.1651  0.3016
 1447TIP3    H128536   0.145   0.931   7.998  0.2166 -4.0587 -1.4210
 1447TIP3    H228537   0.214   0.946   7.864  2.2251  1.0812 -0.0631
 1448TIP3   OH228538   1.120   7.447   7.601  0.2918  0.3184  0.1273
 1448TIP3    H128539   1.104   7.541   7.589  1.1614  0.1990 -2.5841
 1448TIP3    H228540   1.172   7.441   7.681  0.3167  2.1522  0.2781
 1449TIP3   OH228541   3.402   5.754   8.292  0.5210 -0.1073 -0.1269
 1449TIP3    H128542   3.432   5.790   8.375 -0.2266 -0.6738  0.4120
 1449TIP3    H228543   3.456   5.796   8.226 -0.7508  2.5532  0.3813
 1450TIP3   OH228544   1.248   7.055   7.961 -0.3081  0.1306 -0.1194
 1450TIP3    H128545   1.218   6.993   7.895 -1.6465 -1.0035  1.4816
 1450TIP3    H228546   1.214   7.139   7.933 -0.6627 -0.2963 -0.9841
 1451TIP3   OH228547   0.711   7.053   2.819  0.3454  0.0913  0.3579
 1451TIP3    H128548   0.694   7.134   2.771  1.5878 -0.5169 -1.2197
 1451TIP3    H228549   0.624   7.020   2.842 -0.2707  0.7394 -0.9382
 1452TIP3   OH228550   3.436   4.702   9.349  0.1036 -0.0462  0.1931
 1452TIP3    H128551   3.503   4.633   9.347 -0.7996 -0.9343 -0.5376
 1452TIP3    H228552   3.392   4.695   9.265 -1.9286 -0.5239  1.2285
 1453TIP3   OH228553   0.209   2.458   1.992  0.2959  0.5885  0.4583
 1453TIP3    H128554   0.279   2.522   1.980  0.2852  0.6994  0.9702
 1453TIP3    H228555   0.250   2.384   2.035  0.2443  0.3621  0.1275
 1454TIP3   OH228556   1.914   6.701   7.937 -0.0334 -0.1379  0.2023
 1454TIP3    H128557   2.003   6.674   7.913 -0.5094 -1.8031  0.2340
 1454TIP3    H228558   1.895   6.653   8.017 -1.6766 -1.3957 -0.8677
 1455TIP3   OH228559   7.073   7.181   1.846  0.3810  0.1381 -0.0178
 1455TIP3    H128560   7.017   7.215   1.777  3.1511  1.5872 -1.6879
 1455TIP3    H228561   7.103   7.258   1.894 -1.3535 -0.7986  2.9042
 1456TIP3   OH228562   0.357   6.049   2.848 -0.1147  0.0551  0.1658
 1456TIP3    H128563   0.382   6.089   2.932  0.8651 -0.2695  0.0401
 1456TIP3    H228564   0.262   6.061   2.844  0.0235  1.5180  0.5706
 1457TIP3   OH228565   0.131   4.045   8.157  0.3345  0.3468 -0.6516
 1457TIP3    H128566   0.151   3.957   8.189  0.1367  0.3192 -0.6043
 1457TIP3    H228567   0.192   4.058   8.084  0.2628  0.1130 -0.7546
 1458TIP3   OH228568   1.700   2.173   8.950  0.3544 -0.6384  0.4510
 1458TIP3    H128569   1.617   2.190   8.995  0.5158 -1.2663  1.0047
 1458TIP3    H228570   1.746   2.257   8.952 -0.6069 -0.0656 -0.5970
 1459TIP3   OH228571   6.946   2.387   7.498  0.0325 -0.6025  0.0115
 1459TIP3    H128572   6.945   2.401   7.592 -0.0664  0.2089 -0.1010
 1459TIP3    H228573   6.904   2.302   7.486  1.9823 -1.7477  0.8385
 1460TIP3   OH228574   0.208   4.116   0.463  0.9206  0.3194  0.1941
 1460TIP3    H128575   0.252   4.176   0.522  1.0259  2.9994 -2.3641
 1460TIP3    H228576   0.115   4.126   0.483  0.9784  0.9320  0.1832
 1461TIP3   OH228577   6.059   4.098   8.701  0.4510 -0.2837  0.0700
 1461TIP3    H128578   6.140   4.149   8.708 -1.0585  2.1955  0.8775
 1461TIP3    H228579   6.032   4.085   8.791 -0.4167 -0.4328 -0.2070
 1462TIP3   OH228580   3.078   2.601   7.776 -0.0177  0.5987  0.2176
 1462TIP3    H128581   3.130   2.668   7.732 -0.4502  1.5639  1.1536
 1462TIP3    H228582   3.046   2.545   7.705  1.0845  0.8349 -0.4924
 1463TIP3   OH228583   1.038   4.625   9.761 -0.2019  0.1597 -0.2193
 1463TIP3    H128584   1.021   4.647   9.853  0.1034 -1.2859  0.2157
 1463TIP3    H228585   0.970   4.672   9.712 -0.7253  0.5005  0.8017
 1464TIP3   OH228586   2.394   2.638   9.432 -0.0265  0.5894 -0.2467
 1464TIP3    H128587   2.380   2.685   9.350  0.7043  2.3594  0.5888
 1464TIP3    H228588   2.353   2.693   9.499  1.2296  0.2735  0.8308
 1465TIP3   OH228589   0.068   3.258   1.635 -0.1401 -0.4564 -0.0863
 1465TIP3    H128590   0.143   3.305   1.599 -1.7478  0.6364 -2.2262
 1465TIP3    H228591   0.088   3.165   1.620 -0.4983 -0.0971 -3.5760
 1466TIP3   OH228592   5.023   1.852   2.404 -0.0225  0.2515 -0.3174
 1466TIP3    H128593   5.037   1.923   2.341 -0.9065  1.2291  0.5375
 1466TIP3    H228594   5.080   1.874   2.478  0.2632 -0.3498 -0.3542
 1467TIP3   OH228595   6.114   3.990   9.789 -0.0002 -0.0997 -0.3035
 1467TIP3    H128596   6.118   4.050   9.714 -0.0926  0.6101  0.2453
 1467TIP3    H228597   6.199   3.946   9.788  1.2900  2.1392  0.9437
 1468TIP3   OH228598   3.440   1.081   6.988 -0.1343 -0.2026  0.3101
 1468TIP3    H128599   3.380   1.154   6.979 -0.3381 -0.4523 -0.5301
 1468TIP3    H228600   3.430   1.051   7.078  0.1641  0.9697  0.7500
 1469TIP3   OH228601   0.201   1.416   8.918  0.2673  0.2069  0.1073
 1469TIP3    H128602   0.190   1.438   9.010  1.0302  1.4342 -0.0784
 1469TIP3    H228603   0.141   1.475   8.872 -1.5802 -1.7022 -0.1106
 1470TIP3   OH228604   7.317   0.286   1.020  0.1008 -0.0746 -0.2175
 1470TIP3    H128605   7.325   0.216   1.084  1.0231  0.1902 -0.0148
 1470TIP3    H228606   7.332   0.366   1.071  0.5855  0.1527 -0.7082
 1471TIP3   OH228607   1.016   0.645   0.074  0.3055  0.0646 -0.4929
 1471TIP3    H128608   0.963   0.614   0.000  2.1533 -0.6033 -1.6076
 1471TIP3    H228609   1.104   0.611   0.056  1.0723  0.9307  1.3993
 1472TIP3   OH228610   5.759   7.043   9.821  0.3745 -0.5379 -0.0530
 1472TIP3    H128611   5.766   7.138   9.810  0.5295 -0.7603 -2.3698
 1472TIP3    H228612   5.688   7.031   9.884  0.8144  1.1109  0.8139
 1473TIP3   OH228613   6.865   1.580   7.367  0.1602  0.4518 -0.0633
 1473TIP3    H128614   6.894   1.489   7.371 -3.0138 -0.7884 -1.4451
 1473TIP3    H228615   6.870   1.611   7.458 -1.3655 -2.1104  1.0093
 1474TIP3   OH228616   7.184   2.723   6.898  0.0922 -0.0163 -0.2251
 1474TIP3    H128617   7.120   2.784   6.937 -0.2638 -1.3948  1.4601
 1474TIP3    H228618   7.134   2.676   6.832 -0.2366 -0.0148  0.0132
 1475TIP3   OH228619   5.360   7.313   9.994 -0.0088  0.0228  0.2787
 1475TIP3    H128620   5.422   7.244  10.018 -0.3460 -0.5003 -0.3112
 1475TIP3    H228621   5.402   7.359   9.922 -0.0137  0.1017  0.3259
 1476TIP3   OH228622   6.776   1.843   8.865  0.1531  0.1418 -0.0667
 1476TIP3    H128623   6.781   1.938   8.869  1.3388  0.0548  1.5890
 1476TIP3    H228624   6.683   1.823   8.869 -0.0354  1.1975  1.5158
 1477TIP3   OH228625   7.227   5.112   0.906  0.0210  0.1224  0.1224
 1477TIP3    H128626   7.260   5.201   0.906  2.6116 -0.7217 -1.3987
 1477TIP3    H228627   7.138   5.119   0.872  0.3496  2.0580 -0.4357
 1478TIP3   OH228628   4.774   1.425   8.347 -0.1700  0.1237 -0.0775
 1478TIP3    H128629   4.779   1.364   8.274 -0.9004  0.5521 -0.5014
 1478TIP3    H228630   4.681   1.424   8.372 -0.1348  0.8422  0.0944
 1479TIP3   OH228631   3.255   2.534   2.107  0.6688 -0.2351  0.2054
 1479TIP3    H128632   3.246   2.526   2.202  1.7561 -0.9661  0.2582
 1479TIP3    H228633   3.178   2.585   2.080  1.0491  1.1930  1.6436
 1480TIP3   OH228634   1.410   6.550   1.127  0.1304 -0.3855 -0.2171
 1480TIP3    H128635   1.447   6.466   1.154 -2.1516 -1.6764 -0.8023
 1480TIP3    H228636   1.326   6.555   1.172  0.3310  1.7963  0.0567
 1481TIP3   OH228637   1.085   6.409   1.586 -0.0280 -0.3851 -0.0809
 1481TIP3    H128638   1.068   6.468   1.659  0.3325  0.2167 -0.4718
 1481TIP3    H228639   1.024   6.336   1.599  1.2077 -1.1541  1.7637
 1482TIP3   OH228640   1.235   5.265   1.330 -0.3791  0.1373  0.4449
 1482TIP3    H128641   1.275   5.335   1.278  1.7633  0.5018  2.4456
 1482TIP3    H228642   1.164   5.307   1.377 -1.3744  0.1280 -0.9816
 1483TIP3   OH228643   2.059   1.309   9.959 -0.0581 -0.4687 -0.0214
 1483TIP3    H128644   2.084   1.333   9.870  0.3491 -0.0008  0.2200
 1483TIP3    H228645   2.105   1.226   9.975  0.6158 -0.0756  0.0907
 1484TIP3   OH228646   6.620   5.166   0.661  0.1583  0.1693 -0.1906
 1484TIP3    H128647   6.543   5.198   0.709 -0.1977 -0.2558 -0.4591
 1484TIP3    H228648   6.678   5.241   0.653 -1.3379  1.2120 -2.2063
 1485TIP3   OH228649   7.704   2.946   9.692  0.0758  0.0284  0.2840
 1485TIP3    H128650   7.706   2.864   9.644 -2.8353  0.4671 -0.7614
 1485TIP3    H228651   7.644   2.931   9.765  0.7900  0.7835  1.0625
 1486TIP3   OH228652   6.026   3.081   1.522 -0.0755 -0.3028 -0.2140
 1486TIP3    H128653   6.090   3.115   1.585  0.8314 -1.0478 -0.7134
 1486TIP3    H228654   5.962   3.035   1.575 -0.4392  0.7835  0.3323
 1487TIP3   OH228655   5.195   2.488   9.145  0.5247 -0.9821  0.1789
 1487TIP3    H128656   5.214   2.394   9.150 -0.9386 -1.3007  0.3393
 1487TIP3    H228657   5.107   2.493   9.108  0.1914  0.2819  1.0661
 1488TIP3   OH228658   0.408   4.476   7.482 -0.6384 -0.3912  0.0683
 1488TIP3    H128659   0.422   4.426   7.402 -0.9309  0.2256 -0.3755
 1488TIP3    H228660   0.484   4.535   7.487 -0.7086 -0.3078  0.1549
 1489TIP3   OH228661   6.738   3.316   0.455 -0.4936 -0.0646 -0.0107
 1489TIP3    H128662   6.725   3.326   0.549  1.3314  0.4411  0.2260
 1489TIP3    H228663   6.735   3.405   0.420 -0.1353 -0.1590 -0.2866
 1490TIP3   OH228664   2.304   0.836   1.478  0.3675  0.3108  0.3707
 1490TIP3    H128665   2.317   0.927   1.504 -2.3996  0.6860  0.7971
 1490TIP3    H228666   2.268   0.841   1.390  1.1328 -0.4456  0.0055
 1491TIP3   OH228667   3.933   4.107   8.930  0.7333  0.1737 -0.2026
 1491TIP3    H128668   3.860   4.049   8.951  1.2992 -0.2556  0.6695
 1491TIP3    H228669   3.957   4.085   8.840 -0.9707  1.1762 -0.9604
 1492TIP3   OH228670   5.663   0.946   1.899 -0.0542 -0.2658  0.4352
 1492TIP3    H128671   5.729   1.014   1.887 -1.1299  0.8624  0.6919
 1492TIP3    H228672   5.696   0.893   1.972  0.6574  0.1759  0.4400
 1493TIP3   OH228673   5.514   0.289   1.186 -0.4505 -0.0385 -0.2692
 1493TIP3    H128674   5.467   0.223   1.237 -1.9468 -0.3215 -1.8975
 1493TIP3    H228675   5.446   0.352   1.160  0.5407  0.9098 -0.6500
 1494TIP3   OH228676   2.935  -0.010   0.540 -0.3065  0.1872  0.0921
 1494TIP3    H128677   3.000  -0.061   0.587  0.1170  0.9884  0.4053
 1494TIP3    H228678   2.984   0.065   0.506 -0.6230 -0.3194 -1.5574
 1495TIP3   OH228679   1.197   2.096   8.887  0.1046  0.2452 -0.1785
 1495TIP3    H128680   1.260   2.047   8.834  1.2609 -0.2686  1.5530
 1495TIP3    H228681   1.116   2.046   8.880  0.6439 -0.6357 -0.3059
 1496TIP3   OH228682   3.329   6.731   7.734  0.1901 -0.2641 -0.5673
 1496TIP3    H128683   3.404   6.673   7.719 -0.2869 -0.7236 -1.2349
 1496TIP3    H228684   3.282   6.732   7.650  0.6310  1.7587 -0.8431
 1497TIP3   OH228685   1.339   2.876   9.220  0.0575  0.1996 -0.1897
 1497TIP3    H128686   1.361   2.810   9.285  0.4221  0.1629 -0.3440
 1497TIP3    H228687   1.326   2.827   9.139 -0.5003  0.2335 -0.1272
 1498TIP3   OH228688   1.859   3.016   2.165 -0.3138 -0.3043  0.1460
 1498TIP3    H128689   1.893   2.954   2.100  0.4422  0.0750  0.1696
 1498TIP3    H228690   1.812   3.082   2.114 -1.9993 -1.3978  0.1815
 1499TIP3   OH228691   2.534   0.822   9.072  0.1300 -0.2712 -0.5916
 1499TIP3    H128692   2.457   0.804   9.018 -0.5887 -1.1027  0.6620
 1499TIP3    H228693   2.530   0.916   9.089  0.2702 -0.0371 -1.8246
 1500TIP3   OH228694   6.463   3.399   8.641 -0.0290  0.4684  0.2392
 1500TIP3    H128695   6.512   3.478   8.617  1.2059 -0.4171 -0.2544
 1500TIP3    H228696   6.518   3.327   8.612 -0.9410 -0.5944  1.0619
 1501TIP3   OH228697   0.577   4.952   9.202  0.8674  0.0290  0.0365
 1501TIP3    H128698   0.671   4.972   9.199  1.2502 -1.4549  1.0523
 1501TIP3    H228699   0.534   5.037   9.193  2.3037  0.7585 -0.2223
 1502TIP3   OH228700   4.377   2.041   8.922 -0.0922  0.0510 -0.3493
 1502TIP3    H128701   4.316   1.979   8.881 -0.7768 -0.2763  1.1191
 1502TIP3    H228702   4.411   1.994   8.998  1.2207  0.6223 -0.5580
 1503TIP3   OH228703   6.613   5.905   9.139 -0.1966  0.1700  0.4339
 1503TIP3    H128704   6.691   5.868   9.181  0.1426 -0.1959 -0.5089
 1503TIP3    H228705   6.553   5.831   9.131 -0.3808  0.3067  0.5529
 1504TIP3   OH228706   5.962   7.385   0.503  0.1620 -0.0340 -0.0048
 1504TIP3    H128707   5.986   7.329   0.429 -1.1722  0.1701 -0.6308
 1504TIP3    H228708   6.019   7.462   0.494 -0.1967  0.1314 -1.0253
 1505TIP3   OH228709   3.890   4.261   0.155 -0.1175 -0.3277 -0.5242
 1505TIP3    H128710   3.937   4.192   0.108  0.6250 -1.0695  1.2284
 1505TIP3    H228711   3.914   4.342   0.110  1.3171 -0.9006 -0.8308
 1506TIP3   OH228712   0.817   4.612   1.769 -0.0711  0.2787  0.2121
 1506TIP3    H128713   0.865   4.692   1.748 -0.2066  0.1470 -0.6491
 1506TIP3    H228714   0.838   4.552   1.697  0.1822 -0.5362  0.9419
 1507TIP3   OH228715   4.090   6.744   7.660  1.0186  0.3342 -0.3803
 1507TIP3    H128716   4.155   6.727   7.727 -0.1805 -1.7014  0.3314
 1507TIP3    H228717   4.074   6.659   7.619 -1.5602  0.6336 -0.1556
 1508TIP3   OH228718   3.141   2.018   8.248  0.7235  0.4861 -0.2146
 1508TIP3    H128719   3.149   2.104   8.290  2.0506  0.3857 -0.1981
 1508TIP3    H228720   3.062   2.023   8.196  0.0104  1.2376  0.8945
 1509TIP3   OH228721   0.527   5.146   0.942 -0.5456  0.2831  0.0795
 1509TIP3    H128722   0.481   5.179   0.865 -2.5244 -2.9099 -0.3277
 1509TIP3    H228723   0.564   5.062   0.913  1.1396  0.3625  1.8506
 1510TIP3   OH228724   6.841   0.844   1.220 -0.1801  0.0781  0.2025
 1510TIP3    H128725   6.910   0.911   1.219 -0.9161  0.8557 -0.9083
 1510TIP3    H228726   6.822   0.830   1.313  0.2294  1.1679  0.4631
 1511TIP3   OH228727   1.200   3.884   6.773 -0.5072  0.0830 -0.0749
 1511TIP3    H128728   1.261   3.913   6.841 -1.2432 -1.3028  1.2238
 1511TIP3    H228729   1.115   3.886   6.816 -0.8886 -1.5568 -0.7203
 1512TIP3   OH228730   7.158   3.400   2.428  0.5396  0.4392 -0.6372
 1512TIP3    H128731   7.065   3.397   2.451  0.7396  1.8836  0.5093
 1512TIP3    H228732   7.187   3.487   2.456  2.3156 -0.0911 -0.6904
 1513TIP3   OH228733   2.407   5.684   7.558  0.1457 -0.5896  0.1930
 1513TIP3    H128734   2.336   5.682   7.494  0.2003 -0.6290  0.1337
 1513TIP3    H228735   2.402   5.771   7.597 -0.7238 -1.0101  1.0688
 1514TIP3   OH228736   3.998   4.973   7.269  0.5225 -0.6614 -0.6284
 1514TIP3    H128737   4.000   4.895   7.215 -0.0699 -0.8305 -0.4036
 1514TIP3    H228738   3.959   5.040   7.213  0.4703 -0.6777 -0.6110
 1515TIP3   OH228739   0.332   1.379   8.483  0.2136  0.3320  0.3452
 1515TIP3    H128740   0.275   1.453   8.461 -0.4475 -0.0226  0.8426
 1515TIP3    H228741   0.403   1.419   8.534  0.9471  0.9177 -1.0556
 1516TIP3   OH228742   5.043   3.198   9.475 -0.4013  0.2682  0.1859
 1516TIP3    H128743   5.028   3.136   9.403  1.4799  0.5781 -0.5372
 1516TIP3    H228744   5.083   3.145   9.544 -1.0757  0.2130  0.5413
 1517TIP3   OH228745   6.026   1.901   2.825 -0.4737  0.5409 -0.0331
 1517TIP3    H128746   6.038   1.857   2.909  2.8913  1.8283  0.3300
 1517TIP3    H228747   6.023   1.994   2.847  1.1042  0.9452 -1.2884
 1518TIP3   OH228748   2.214   0.980   1.233  0.6021  0.7039  0.5376
 1518TIP3    H128749   2.121   0.968   1.255  0.5153  0.0786 -0.1378
 1518TIP3    H228750   2.236   1.066   1.269 -0.0385  0.5387  1.3649
 1519TIP3   OH228751   1.478   5.321   9.533  0.5564 -0.4162 -0.0983
 1519TIP3    H128752   1.528   5.371   9.598  0.6910  2.1242 -1.9670
 1519TIP3    H228753   1.538   5.314   9.458 -0.2210 -1.6361 -0.6349
 1520TIP3   OH228754   0.217   4.058   0.175 -0.7824  0.3063  0.2947
 1520TIP3    H128755   0.222   3.964   0.154  1.8224  0.3935  0.2149
 1520TIP3    H228756   0.228   4.061   0.270  0.1745  0.5343  0.1936
 1521TIP3   OH228757   5.297   4.189   9.852  0.0783 -0.2254  0.9420
 1521TIP3    H128758   5.333   4.123   9.793 -0.1619 -0.2969  0.8725
 1521TIP3    H228759   5.303   4.271   9.802  2.0513  0.1403  1.7019
 1522TIP3   OH228760   7.340  -0.018   1.499 -0.0651 -0.3542  0.0063
 1522TIP3    H128761   7.340  -0.063   1.584 -0.0808 -0.0647  0.1607
 1522TIP3    H228762   7.263  -0.052   1.455 -0.7631  0.4108  0.6031
 1523TIP3   OH228763   3.929   6.215   7.517  0.2522 -0.1216 -0.5575
 1523TIP3    H128764   3.901   6.202   7.426  0.5345 -3.2596 -0.2947
 1523TIP3    H228765   3.867   6.164   7.569  1.2809 -0.0215  0.8170
 1524TIP3   OH228766   1.180   5.140   8.561 -0.0238 -0.1202  0.0150
 1524TIP3    H128767   1.125   5.063   8.543  0.2069 -0.3654  0.3626
 1524TIP3    H228768   1.118   5.209   8.584 -0.2120 -0.2841  0.0017
 1525TIP3   OH228769   5.233   0.923   1.237 -0.1276  0.4491  0.1011
 1525TIP3    H128770   5.178   0.882   1.304 -0.2164  0.4071  0.0037
 1525TIP3    H228771   5.197   0.891   1.154  0.9671 -0.7700  0.0666
 1526TIP3   OH228772   5.507   0.877   8.320  0.4277 -0.1545  0.2595
 1526TIP3    H128773   5.499   0.792   8.277 -0.1697 -0.2164  0.4846
 1526TIP3    H228774   5.559   0.859   8.399 -0.1497 -0.4182  0.5865
 1527TIP3   OH228775   5.306   1.041   9.385 -0.1607 -0.4716 -0.0124
 1527TIP3    H128776   5.306   0.972   9.319  2.0919  0.1629 -0.7710
 1527TIP3    H228777   5.399   1.054   9.406 -0.7647 -0.2779  2.9189
 1528TIP3   OH228778   2.539   1.806   9.017 -0.9422 -0.1433 -0.5001
 1528TIP3    H128779   2.557   1.748   9.091 -0.8570  0.6928  0.1567
 1528TIP3    H228780   2.600   1.778   8.949 -0.1610 -0.1429  0.1767
 1529TIP3   OH228781   2.636   5.395   0.402  0.1962  0.0012  0.7596
 1529TIP3    H128782   2.693   5.439   0.338 -1.2332  1.7412  0.6218
 1529TIP3    H228783   2.694   5.331   0.445  2.4430  2.0610  1.0454
 1530TIP3   OH228784   6.761   0.297   8.178 -0.2160 -0.5829 -0.0349
 1530TIP3    H128785   6.765   0.202   8.162 -0.0787 -0.7140  0.7446
 1530TIP3    H228786   6.676   0.324   8.142 -0.3504 -1.0395 -0.0689
 1531TIP3   OH228787   7.404   5.023   9.747 -0.4568  0.0948 -0.4309
 1531TIP3    H128788   7.475   5.028   9.682  1.0288 -0.6004  1.0767
 1531TIP3    H228789   7.349   5.099   9.727  0.8400  0.8061 -1.4978
 1532TIP3   OH228790   0.029   0.024   7.113 -0.5054  0.1635  0.3584
 1532TIP3    H128791  -0.048   0.004   7.166 -1.1481  0.1315 -0.5454
 1532TIP3    H228792   0.067   0.103   7.152  0.0531 -0.8313  1.8846
 1533TIP3   OH228793   5.093   0.341   1.855 -0.2511 -0.7367  0.2000
 1533TIP3    H128794   5.184   0.318   1.838  0.3382  0.5444  1.4105
 1533TIP3    H228795   5.057   0.266   1.902 -0.2327 -1.7984 -1.3994
 1534TIP3   OH228796   5.914   2.021   1.187  0.2483  0.6348 -0.3053
 1534TIP3    H128797   5.826   2.043   1.157 -0.7223  1.8505  2.9489
 1534TIP3    H228798   5.902   1.943   1.242  0.8915  1.5495  1.2167
 1535TIP3   OH228799   2.445   0.289   7.009  0.2925 -0.1784  0.1207
 1535TIP3    H128800   2.400   0.227   6.951  0.8126 -1.2619  0.8324
 1535TIP3    H228801   2.403   0.373   6.993  2.2317  0.2591 -3.9946
 1536TIP3   OH228802   2.014   5.059   8.052  0.6831 -0.4898 -0.2869
 1536TIP3    H128803   2.038   5.068   8.144  3.0470 -0.8113 -0.8038
 1536TIP3    H228804   1.964   4.977   8.048 -0.0460 -0.1121  0.7935
 1537TIP3   OH228805   0.489   1.814   6.768  0.1670  0.0954 -0.4506
 1537TIP3    H128806   0.570   1.859   6.795  1.3076 -0.8618 -2.1080
 1537TIP3    H228807   0.429   1.885   6.744 -0.1436  0.8994  2.3346
 1538TIP3   OH228808   3.700   3.420   6.898  0.1940  0.3331  0.3418
 1538TIP3    H128809   3.627   3.434   6.837 -0.6384 -0.4579  1.1200
 1538TIP3    H228810   3.717   3.507   6.935  1.6301  1.1339 -1.9499
 1539TIP3   OH228811   4.808   7.665   1.378 -0.2764  0.3713 -0.0323
 1539TIP3    H128812   4.828   7.737   1.319 -0.8480  1.0072  0.5417
 1539TIP3    H228813   4.835   7.587   1.329 -0.2752  0.9140 -0.9331
 1540TIP3   OH228814   5.900   7.119   1.402  0.2259  0.2251  0.1485
 1540TIP3    H128815   5.821   7.112   1.348  0.2391  2.2576 -0.2176
 1540TIP3    H228816   5.866   7.129   1.492  0.0273  1.3700 -0.0391
 1541TIP3   OH228817   1.410   3.602   8.894  0.0765  0.2696  0.5684
 1541TIP3    H128818   1.445   3.515   8.914  1.4381  0.8104  0.6549
 1541TIP3    H228819   1.321   3.601   8.928 -0.1796 -1.3307 -0.0793
 1542TIP3   OH228820   1.595   2.412   9.195 -0.0031  0.1081  0.7947
 1542TIP3    H128821   1.613   2.504   9.215 -0.1210  0.1513  0.6983
 1542TIP3    H228822   1.681   2.369   9.199  0.1829  0.3872 -0.0549
 1543TIP3   OH228823   1.646   7.220   0.344  0.4741 -0.0899 -0.2200
 1543TIP3    H128824   1.636   7.188   0.254 -0.9717 -1.3659  0.3611
 1543TIP3    H228825   1.558   7.217   0.380  0.5499  2.8277  0.5034
 1544TIP3   OH228826   2.847   0.280   0.651 -0.1518 -0.8165  0.0900
 1544TIP3    H128827   2.773   0.220   0.661 -0.2826 -0.7225 -0.2951
 1544TIP3    H228828   2.891   0.278   0.736 -0.3684 -1.1748  0.1967
 1545TIP3   OH228829   5.548   7.458   8.098  0.3879 -0.0696 -0.4300
 1545TIP3    H128830   5.496   7.380   8.077 -0.4068  0.7890 -1.7396
 1545TIP3    H228831   5.495   7.532   8.068  1.7749  0.9094 -0.5751
 1546TIP3   OH228832   5.153   5.325   9.241 -0.7727 -0.0236  0.1786
 1546TIP3    H128833   5.117   5.257   9.297 -0.4604  0.0538  0.4781
 1546TIP3    H228834   5.082   5.388   9.229 -0.9417 -0.2085  0.2172
 1547TIP3   OH228835   0.435   1.941   0.699 -0.8125  0.1496  0.2337
 1547TIP3    H128836   0.443   1.848   0.718 -0.4672  0.2371  0.5133
 1547TIP3    H228837   0.341   1.954   0.684 -0.8741 -0.2204  0.2927
 1548TIP3   OH228838   6.970   1.343   1.310 -0.8844 -0.3421  0.0701
 1548TIP3    H128839   6.926   1.362   1.227  1.7121  0.0937 -1.3222
 1548TIP3    H228840   7.056   1.384   1.301 -0.1779 -1.0936  2.6293
 1549TIP3   OH228841   0.351   4.906   2.738  0.1175  0.0997 -0.0643
 1549TIP3    H128842   0.278   4.874   2.685  0.5979 -1.9319  0.4211
 1549TIP3    H228843   0.328   4.997   2.758 -1.7797 -0.1791 -0.7696
 1550TIP3   OH228844   4.935   1.200   9.209 -0.5239 -0.0275  0.2682
 1550TIP3    H128845   4.889   1.240   9.136  0.1506 -0.5521 -0.4639
 1550TIP3    H228846   4.898   1.112   9.216  0.0545 -0.3003 -0.0471
 1551TIP3   OH228847   1.237   3.974   8.192 -0.4719 -0.0025  0.3000
 1551TIP3    H128848   1.241   3.925   8.274 -2.8745  0.4380  0.7306
 1551TIP3    H228849   1.267   4.062   8.215 -2.1411  0.4204  1.0115
 1552TIP3   OH228850   5.385   2.305   9.894 -0.0407 -0.6663 -0.0546
 1552TIP3    H128851   5.359   2.397   9.900  1.7000 -0.2166  1.4890
 1552TIP3    H228852   5.334   2.261   9.963  1.4218 -0.2119  1.3890
 1553TIP3   OH228853   7.242   0.887   8.654 -0.3621 -0.6741 -0.0946
 1553TIP3    H128854   7.160   0.892   8.704  0.5342  2.6427  1.3385
 1553TIP3    H228855   7.220   0.922   8.568 -0.4487  0.3187  0.3239
 1554TIP3   OH228856   4.625   5.719   9.329 -0.0964  0.3261 -0.1196
 1554TIP3    H128857   4.543   5.765   9.347  0.0593  0.9032 -0.8290
 1554TIP3    H228858   4.693   5.785   9.345  0.1714  0.1333 -0.4544
 1555TIP3   OH228859   2.446   7.637   1.876  0.6215 -0.1274 -0.3548
 1555TIP3    H128860   2.415   7.606   1.961  0.0688  0.2276 -0.4201
 1555TIP3    H228861   2.452   7.732   1.887 -0.0656 -0.0163 -0.9070
 1556TIP3   OH228862   5.629   4.294   8.814  0.6382  0.2747  0.2307
 1556TIP3    H128863   5.629   4.228   8.745  1.3838  0.1140  0.3697
 1556TIP3    H228864   5.544   4.285   8.857  0.5896 -0.3392  0.0046
 1557TIP3   OH228865   2.473   6.937   0.273 -0.6365 -0.1996  0.0324
 1557TIP3    H128866   2.487   6.844   0.294  0.1271 -0.1210 -0.0997
 1557TIP3    H228867   2.426   6.971   0.348  0.8543 -0.2377  1.0414
 1558TIP3   OH228868   6.614   3.392   8.035 -0.4884  0.5000 -0.5094
 1558TIP3    H128869   6.531   3.373   7.990 -1.2595  0.3896  0.8969
 1558TIP3    H228870   6.665   3.312   8.025 -0.1647  0.8824 -2.1584
 1559TIP3   OH228871   1.211   4.167   1.963 -0.4989 -0.6128  0.2970
 1559TIP3    H128872   1.297   4.161   1.923 -0.2580 -0.2998  0.7579
 1559TIP3    H228873   1.176   4.078   1.959 -1.6029 -0.1651 -3.0204
 1560TIP3   OH228874   0.063   3.136   0.434  0.0707  0.0980 -0.2815
 1560TIP3    H128875  -0.003   3.068   0.436  0.5590 -0.3666  0.5346
 1560TIP3    H228876   0.063   3.172   0.522 -0.9403  1.9206 -0.9730
 1561TIP3   OH228877   2.403   0.196   2.522 -0.4894  0.0167 -0.7133
 1561TIP3    H128878   2.494   0.208   2.495 -0.6293  0.7868 -0.8817
 1561TIP3    H228879   2.407   0.184   2.617 -0.0877 -1.5520 -0.9165
 1562TIP3   OH228880   7.385   5.555   0.107 -0.2860 -0.1087  0.5437
 1562TIP3    H128881   7.409   5.465   0.126  0.9558  0.2101  0.6026
 1562TIP3    H228882   7.464   5.593   0.069 -1.1985  0.6075 -0.7020
 1563TIP3   OH228883   2.706   5.174   8.425  0.2009  0.4625 -0.4809
 1563TIP3    H128884   2.709   5.119   8.348  1.3206  1.8314 -1.4706
 1563TIP3    H228885   2.780   5.146   8.478 -0.2628 -0.1293 -0.1328
 1564TIP3   OH228886   5.120   5.132   7.603  0.1340 -0.0863 -0.8890
 1564TIP3    H128887   5.175   5.064   7.642 -1.0593 -0.4433  0.2703
 1564TIP3    H228888   5.069   5.087   7.536 -0.5094 -0.3191 -0.2601
 1565TIP3   OH228889   5.783   3.545   9.257  0.5044 -0.3267  0.3301
 1565TIP3    H128890   5.769   3.470   9.314  2.1774  0.2642  1.5961
 1565TIP3    H228891   5.711   3.606   9.278 -0.9336 -1.5626 -0.7982
 1566TIP3   OH228892   3.065   6.950   8.192  0.6206  0.3429  0.0516
 1566TIP3    H128893   3.102   6.921   8.108 -2.2028  0.8724 -1.4883
 1566TIP3    H228894   3.050   6.869   8.241  1.2767 -0.0633 -0.3971
 1567TIP3   OH228895   1.085   5.559   7.989 -0.3875  0.4178 -0.4726
 1567TIP3    H128896   1.176   5.585   7.971  0.7201 -1.6505  1.7019
 1567TIP3    H228897   1.091   5.498   8.062 -3.6314  0.6979  0.1759
 1568TIP3   OH228898   0.214   0.599   8.402 -0.1196 -0.1512  0.3470
 1568TIP3    H128899   0.160   0.635   8.471 -2.8640 -0.8138 -1.3170
 1568TIP3    H228900   0.226   0.671   8.341  1.3429  0.1192  0.9132
 1569TIP3   OH228901   0.544   2.047   7.557 -0.1222  0.8148 -0.0957
 1569TIP3    H128902   0.508   2.134   7.538 -0.1184  0.6542 -0.8644
 1569TIP3    H228903   0.551   2.005   7.471 -0.1612  0.0405  0.2734
 1570TIP3   OH228904   6.317   5.933   1.893 -0.2188  0.1960 -0.5515
 1570TIP3    H128905   6.228   5.898   1.898 -0.9479  1.6721 -2.2915
 1570TIP3    H228906   6.306   6.028   1.895  1.6725  0.5675  3.6533
 1571TIP3   OH228907   2.838   0.150   2.683  0.2252 -0.3075 -0.2550
 1571TIP3    H128908   2.880   0.151   2.769  1.1352 -0.5798 -0.6832
 1571TIP3    H228909   2.755   0.103   2.698  0.7606 -1.1090  0.3073
 1572TIP3   OH228910   7.007   5.582   0.782  0.1263 -0.5556 -0.0331
 1572TIP3    H128911   7.090   5.537   0.795  0.6085 -0.0614 -1.1781
 1572TIP3    H228912   7.013   5.617   0.693 -1.0361  0.0691  0.1117
 1573TIP3   OH228913   1.340   1.333   8.342 -0.0541 -0.3637 -0.0447
 1573TIP3    H128914   1.405   1.274   8.380  0.7620  0.5957  0.0888
 1573TIP3    H228915   1.385   1.374   8.268 -0.4232  0.4885  0.1885
 1574TIP3   OH228916   1.036   0.796   7.384  0.0130 -0.8653 -0.0591
 1574TIP3    H128917   0.992   0.809   7.468  1.3084  2.3169  0.2482
 1574TIP3    H228918   0.992   0.856   7.323  0.6752 -1.3143 -1.0215
 1575TIP3   OH228919   0.323   4.187   9.163  0.1070 -0.3406 -0.2333
 1575TIP3    H128920   0.319   4.261   9.104  0.2515  0.2835  0.5223
 1575TIP3    H228921   0.410   4.148   9.147  0.5419  0.4094  0.2426
 1576TIP3   OH228922   5.810   5.049   7.656 -0.3909  0.5470 -0.2557
 1576TIP3    H128923   5.846   5.073   7.571 -0.9338 -1.1700 -1.0178
 1576TIP3    H228924   5.883   5.061   7.717  0.9556 -1.0439 -1.4568
 1577TIP3   OH228925   5.636   4.563   9.021 -0.8000  0.2416  0.0790
 1577TIP3    H128926   5.663   4.505   9.092 -1.4618  0.6217  0.6559
 1577TIP3    H228927   5.718   4.591   8.980 -0.4887 -1.3731 -0.4453
 1578TIP3   OH228928   0.333   4.031   0.934  0.5388  0.0984 -0.1768
 1578TIP3    H128929   0.306   3.943   0.909 -1.5532  0.9752 -1.2049
 1578TIP3    H228930   0.359   4.022   1.026  2.4277 -1.9534 -0.8119
 1579TIP3   OH228931   3.996   3.356   8.634 -0.1289 -0.2181  0.4805
 1579TIP3    H128932   3.910   3.320   8.615 -0.9074  1.3962  0.7426
 1579TIP3    H228933   3.978   3.437   8.682  1.6021 -0.8485  2.3372
 1580TIP3   OH228934   5.060   5.919   9.437  0.2347 -0.0174  0.7168
 1580TIP3    H128935   5.089   5.837   9.478  0.7018  0.0965  0.6126
 1580TIP3    H228936   5.131   5.981   9.453  0.1408  0.2079  0.2817
 1581TIP3   OH228937   1.129   2.091   1.699  0.3926  0.0475  0.2869
 1581TIP3    H128938   1.095   2.161   1.755 -0.9629  0.2625 -0.7468
 1581TIP3    H228939   1.131   2.129   1.611 -0.5694 -1.2532 -0.3324
 1582TIP3   OH228940   7.206   0.236   8.295  0.0070  0.3102  0.4557
 1582TIP3    H128941   7.174   0.149   8.321 -0.9717  0.5824  0.2240
 1582TIP3    H228942   7.225   0.228   8.202 -2.1317  0.8809 -0.0806
 1583TIP3   OH228943   4.347   2.707   8.428 -0.2531  0.0567  0.6831
 1583TIP3    H128944   4.389   2.779   8.381  0.0920 -0.3977  0.2947
 1583TIP3    H228945   4.254   2.731   8.429 -0.0461  0.8663  1.2035
 1584TIP3   OH228946   1.542   2.471   1.855  0.1939  0.3986  0.0671
 1584TIP3    H128947   1.622   2.459   1.906  2.1823  2.1860 -2.3653
 1584TIP3    H228948   1.564   2.441   1.767 -1.7787  1.0333 -0.7126
 1585TIP3   OH228949   3.218   5.430   7.504  0.3725 -0.4882  0.2686
 1585TIP3    H128950   3.239   5.378   7.426 -1.7242 -1.5574  0.3514
 1585TIP3    H228951   3.279   5.398   7.571  0.4689 -1.4026 -0.2322
 1586TIP3   OH228952   7.190   1.319   1.616 -0.3952  0.0006  0.3089
 1586TIP3    H128953   7.144   1.240   1.586  0.3071  0.2065 -1.3925
 1586TIP3    H228954   7.227   1.357   1.537 -0.0106  1.6015  1.2206
 1587TIP3   OH228955   5.691   3.254   0.101  1.2123  0.3599 -0.1181
 1587TIP3    H128956   5.692   3.299   0.016  3.1223 -1.2832 -1.0389
 1587TIP3    H228957   5.742   3.312   0.159  1.3697  0.6778 -0.5650
 1588TIP3   OH228958   3.138   6.984   1.418 -0.0412  0.5713 -0.1409
 1588TIP3    H128959   3.087   6.993   1.337  1.9360  1.4225 -1.3576
 1588TIP3    H228960   3.137   7.072   1.456  1.3805  0.8912 -0.7680
 1589TIP3   OH228961   3.452   3.169   0.512  0.0701 -0.1666  0.0891
 1589TIP3    H128962   3.533   3.217   0.528  0.2472 -0.1133 -0.9138
 1589TIP3    H228963   3.452   3.152   0.418 -0.6288 -0.9911  0.2266
 1590TIP3   OH228964   0.634   0.170   0.288 -0.4829  0.6472 -0.1386
 1590TIP3    H128965   0.705   0.109   0.269 -2.0607 -2.5374  2.8664
 1590TIP3    H228966   0.563   0.144   0.230 -0.2595  1.6242 -0.8663
 1591TIP3   OH228967   1.809   5.542   0.019 -0.2542  0.2655  0.4421
 1591TIP3    H128968   1.738   5.553  -0.043 -0.9910 -0.4162  1.1431
 1591TIP3    H228969   1.786   5.463   0.068 -0.2661  1.3729  2.3315
 1592TIP3   OH228970   5.222   2.493   7.917 -0.6588  0.3858 -0.8811
 1592TIP3    H128971   5.243   2.505   8.010 -0.5756  0.1367 -0.8670
 1592TIP3    H228972   5.128   2.472   7.916 -0.9308  1.5397 -0.9463
 1593TIP3   OH228973   4.995   2.230   2.413  0.2079 -0.2629  0.1117
 1593TIP3    H128974   4.984   2.237   2.508  4.0194  0.3863  0.6518
 1593TIP3    H228975   5.019   2.318   2.385  0.6087 -0.7596 -1.1957
 1594TIP3   OH228976   2.342   2.413   1.416 -0.1257 -0.0060 -0.1708
 1594TIP3    H128977   2.288   2.359   1.473  1.3133  0.2750  1.5590
 1594TIP3    H228978   2.355   2.494   1.465 -0.9434  1.3108 -2.0341
 1595TIP3   OH228979   2.195   0.553   9.171 -0.2700 -0.8564  0.5463
 1595TIP3    H128980   2.219   0.624   9.111 -0.9383 -0.1839  1.0693
 1595TIP3    H228981   2.141   0.594   9.238 -0.3192 -1.7817  1.0981
 1596TIP3   OH228982   4.060   6.111   9.941 -0.3723 -0.2888 -0.1180
 1596TIP3    H128983   4.024   6.198   9.956 -0.3704 -0.2726 -0.2048
 1596TIP3    H228984   4.137   6.107   9.998 -0.5904 -0.3764  0.1739
 1597TIP3   OH228985   1.459   4.470   2.036 -0.3961  0.5350  0.2382
 1597TIP3    H128986   1.430   4.560   2.026  0.4517  0.8101  0.1886
 1597TIP3    H228987   1.500   4.448   1.953  0.8976  0.6785  0.8103
 1598TIP3   OH228988   0.284   3.325   3.005 -0.3274  0.3359  0.0766
 1598TIP3    H128989   0.365   3.367   2.977  0.5476 -3.0315 -3.3958
 1598TIP3    H228990   0.217   3.392   2.997  1.3849  1.9161 -2.0426
 1599TIP3   OH228991   0.980   6.057   8.749 -0.3445  0.2805 -0.2555
 1599TIP3    H128992   1.046   6.125   8.754 -0.1962  0.0983  0.4389
 1599TIP3    H228993   0.902   6.095   8.790 -0.7991  0.6273 -1.4057
 1600TIP3   OH228994   1.665   2.468   0.499 -0.1422 -0.1413  0.4576
 1600TIP3    H128995   1.589   2.410   0.499  1.1033 -1.8518  0.1016
 1600TIP3    H228996   1.638   2.543   0.552 -2.3348 -0.3088 -0.3317
 1601TIP3   OH228997   5.267   4.920   8.778 -0.2099 -0.3081 -0.2282
 1601TIP3    H128998   5.281   4.987   8.845 -1.8163  0.0356 -0.1919
 1601TIP3    H228999   5.217   4.852   8.822 -1.8097  0.1870 -1.1793
 1602TIP3   OH229000   2.442   2.003   8.368  0.2041  0.0596 -0.0902
 1602TIP3    H129001   2.422   2.049   8.449 -1.4690  2.1494 -1.5879
 1602TIP3    H229002   2.503   2.061   8.322 -0.0682 -0.3576 -0.9976
 1603TIP3   OH229003   7.291   1.187   7.900  0.1545  0.1287  0.3293
 1603TIP3    H129004   7.306   1.228   7.815  0.8955  0.7817  0.7690
 1603TIP3    H229005   7.378   1.168   7.934 -0.1522 -2.3683 -0.1035
 1604TIP3   OH229006   4.649   1.206   2.838 -0.5819  0.2595  0.1382
 1604TIP3    H129007   4.573   1.161   2.800 -1.3660  2.0647 -0.5684
 1604TIP3    H229008   4.721   1.187   2.778 -0.2343 -2.0440  1.1796
 1605TIP3   OH229009   5.107   1.900   2.913  0.0255  0.0063  0.0643
 1605TIP3    H129010   5.162   1.823   2.899 -0.5171 -0.4854  0.5919
 1605TIP3    H229011   5.020   1.864   2.931  0.0818  0.6770  1.8466
 1606TIP3   OH229012   4.004   1.392   1.912  0.2253  0.7526  0.5272
 1606TIP3    H129013   4.013   1.339   1.991  2.5734  0.6765  0.2812
 1606TIP3    H229014   3.910   1.395   1.895 -0.1964 -0.5972  2.3814
 1607TIP3   OH229015   3.697   1.330   9.385 -0.1452 -0.0992 -0.0441
 1607TIP3    H129016   3.632   1.261   9.398  0.3469 -0.5611  0.0186
 1607TIP3    H229017   3.730   1.348   9.473 -0.6154  0.5664  0.0038
 1608TIP3   OH229018   1.692   5.225   8.993 -0.1919 -0.0412 -0.6088
 1608TIP3    H129019   1.707   5.131   9.003 -0.6192  0.0428  1.2492
 1608TIP3    H229020   1.598   5.235   9.009 -0.0692  0.7383 -0.3608
 1609TIP3   OH229021   3.667   0.756   7.905  0.4700  0.4086  0.1346
 1609TIP3    H129022   3.679   0.698   7.980 -0.0954  1.3460  0.9730
 1609TIP3    H229023   3.644   0.841   7.944  2.1027  1.4412 -1.0047
 1610TIP3   OH229024   2.506   2.347   9.720 -0.1858  0.1801 -0.2011
 1610TIP3    H129025   2.503   2.267   9.773 -0.3105  0.6143  0.4733
 1610TIP3    H229026   2.421   2.389   9.736 -0.1916  0.3624 -0.6899
 1611TIP3   OH229027   0.037   0.256   7.287  0.5931 -0.2404 -0.1342
 1611TIP3    H129028  -0.005   0.342   7.281  0.5195 -0.3124 -0.6994
 1611TIP3    H229029  -0.036   0.195   7.300  0.7834 -0.0358  2.2225
 1612TIP3   OH229030   5.404   6.444   1.481  0.0754 -0.7194  0.0268
 1612TIP3    H129031   5.336   6.512   1.483  1.9569  1.3290  2.0878
 1612TIP3    H229032   5.448   6.457   1.397  0.7342  1.0866  0.5905
 1613TIP3   OH229033   4.686   0.328   0.291 -0.4034  0.3471  0.0801
 1613TIP3    H129034   4.681   0.304   0.198  0.3424  2.3448 -0.5315
 1613TIP3    H229035   4.687   0.244   0.337 -1.9163 -0.7017 -1.6253
 1614TIP3   OH229036   0.181   3.937   1.164 -0.1703 -0.3620  0.4266
 1614TIP3    H129037   0.276   3.951   1.161 -0.1587 -0.5393 -2.2167
 1614TIP3    H229038   0.171   3.854   1.210  0.8995 -0.0717  1.2391
 1615TIP3   OH229039   2.910   2.703   2.368 -0.0898  0.5649  0.4737
 1615TIP3    H129040   2.961   2.648   2.428  0.5617 -0.6132 -1.0915
 1615TIP3    H229041   2.967   2.778   2.351  0.1004  0.4592  0.6245
 1616TIP3   OH229042   5.259   5.680   9.712 -0.5331  0.6250  0.3291
 1616TIP3    H129043   5.213   5.706   9.792  1.8302  0.2067  1.9244
 1616TIP3    H229044   5.227   5.591   9.694 -1.2157  0.7875  0.7007
 1617TIP3   OH229045   0.212   1.533   7.892  0.3547  0.0419  0.3744
 1617TIP3    H129046   0.249   1.612   7.930  0.1094  0.1860  0.3165
 1617TIP3    H229047   0.288   1.482   7.864  0.4954  0.5915 -0.2617
 1618TIP3   OH229048   6.667   7.336   1.796  0.2540 -0.2639 -0.3463
 1618TIP3    H129049   6.608   7.356   1.723  0.1295 -0.8953 -0.4229
 1618TIP3    H229050   6.711   7.419   1.813  1.2725 -0.3970 -2.0365
 1619TIP3   OH229051   1.517   4.410   2.712  0.1584  0.0970  0.1714
 1619TIP3    H129052   1.483   4.463   2.784 -0.1147  2.4638 -1.5992
 1619TIP3    H229053   1.449   4.343   2.698  0.1230 -0.2810  1.9175
 1620TIP3   OH229054   5.154   5.307   7.915  0.0625  0.4043  0.4603
 1620TIP3    H129055   5.200   5.391   7.907 -1.0787  1.0838  0.8150
 1620TIP3    H229056   5.110   5.296   7.831 -0.6106  0.6799  0.7642
 1621TIP3   OH229057   2.812   2.124   1.761 -0.6607  0.3195  0.2885
 1621TIP3    H129058   2.876   2.100   1.828 -1.3097 -1.7854  0.2249
 1621TIP3    H229059   2.860   2.118   1.679 -0.6146 -0.0021  0.3389
 1622TIP3   OH229060   0.000   6.489   7.876 -0.5996  0.1379  0.0427
 1622TIP3    H129061  -0.005   6.581   7.901  2.7985  0.7602 -0.9966
 1622TIP3    H229062   0.092   6.476   7.852 -1.0648 -3.4164 -0.3548
 1623TIP3   OH229063   5.043   4.349   8.017 -0.4582  0.2092  0.4858
 1623TIP3    H129064   5.068   4.283   7.953 -0.1822  1.5884 -0.8812
 1623TIP3    H229065   4.948   4.338   8.027 -0.3627 -0.5936  0.5180
 1624TIP3   OH229066   7.396   2.000   0.536 -0.5074  0.7089  0.1870
 1624TIP3    H129067   7.438   1.996   0.450  0.3778 -0.8597  0.6695
 1624TIP3    H229068   7.442   2.071   0.582  0.5818  0.0474  0.1537
 1625TIP3   OH229069   5.047   5.998   8.645  0.1290  0.2749  0.5377
 1625TIP3    H129070   5.136   5.996   8.610 -0.6629 -1.1535 -1.6041
 1625TIP3    H229071   5.001   6.062   8.591 -0.6265 -0.5176  0.2020
 1626TIP3   OH229072   5.806   0.294   0.540  0.4133 -0.2461  0.0854
 1626TIP3    H129073   5.738   0.243   0.495 -1.3836 -0.0108  2.3544
 1626TIP3    H229074   5.854   0.230   0.592  2.1440 -0.4337 -1.6160
 1627TIP3   OH229075   6.306   6.249   1.616  0.9248  0.0894 -0.2057
 1627TIP3    H129076   6.236   6.284   1.560  2.6834  3.2719 -0.6365
 1627TIP3    H229077   6.311   6.310   1.689  1.9838 -1.2018  0.8404
 1628TIP3   OH229078   2.484   0.384   1.534 -0.5147 -0.0587  0.3610
 1628TIP3    H129079   2.519   0.295   1.530 -0.8235 -0.2053  0.7807
 1628TIP3    H229080   2.551   0.435   1.578 -0.7481 -0.3056  1.0268
 1629TIP3   OH229081   1.484   2.654   8.145  0.0725 -0.5453  0.4819
 1629TIP3    H129082   1.463   2.618   8.231 -1.2396  0.2104  0.5092
 1629TIP3    H229083   1.529   2.737   8.164 -1.5519  0.3825  0.5039
 1630TIP3   OH229084   1.190   5.383   0.472  0.7294  0.1998 -0.3719
 1630TIP3    H129085   1.280   5.380   0.504  0.5424  2.1706  0.5366
 1630TIP3    H229086   1.141   5.327   0.532  1.3139 -0.7354 -0.7586
 1631TIP3   OH229087   0.987   5.890   7.190 -0.8860 -0.2901 -0.2829
 1631TIP3    H129088   1.009   5.796   7.191 -2.9335 -0.8392  1.5200
 1631TIP3    H229089   1.061   5.932   7.233  0.8146 -0.7979 -2.5013
 1632TIP3   OH229090   1.282   3.420   2.327  0.2531  0.1108 -0.3235
 1632TIP3    H129091   1.198   3.459   2.302  0.1803  0.2175  0.0884
 1632TIP3    H229092   1.345   3.491   2.319  0.0586  0.4251  0.7950
 1633TIP3   OH229093   0.412   6.058   9.062  0.0308 -0.5733 -0.6427
 1633TIP3    H129094   0.323   6.025   9.077 -0.6951  1.0655 -1.1467
 1633TIP3    H229095   0.420   6.064   8.967  1.2182 -2.0079 -0.6792
 1634TIP3   OH229096   0.708   1.189   1.356 -0.2410 -0.1843 -0.2475
 1634TIP3    H129097   0.769   1.198   1.429  0.0422  2.2067 -0.7054
 1634TIP3    H229098   0.621   1.193   1.397 -0.1367 -1.7174  0.2025
 1635TIP3   OH229099   7.256   7.233   8.683 -0.4324  0.1049 -0.1425
 1635TIP3    H129100   7.195   7.160   8.672 -0.1060 -0.1434 -0.3420
 1635TIP3    H229101   7.342   7.191   8.693 -0.5173  0.3610  2.0126
 1636TIP3   OH229102   6.550   4.296   0.979  0.5442 -0.0860 -0.2418
 1636TIP3    H129103   6.624   4.355   0.965 -0.9818  1.7449 -1.0817
 1636TIP3    H229104   6.484   4.326   0.917 -0.3626 -2.6533 -0.6043
 1637TIP3   OH229105   5.919   5.168   8.912  0.0749  0.4947 -0.5940
 1637TIP3    H129106   5.861   5.188   8.838 -0.4124 -0.3409 -0.4555
 1637TIP3    H229107   5.965   5.250   8.930 -0.6746  1.0296 -1.0588
 1638TIP3   OH229108   3.919   6.139   0.552  0.9509 -0.3233 -0.0695
 1638TIP3    H129109   3.887   6.224   0.583  0.3763 -0.0655 -1.3183
 1638TIP3    H229110   3.841   6.083   0.550  1.0235 -0.4027 -0.8018
 1639TIP3   OH229111   2.211   4.338   8.295  0.2044 -0.1974  0.0913
 1639TIP3    H129112   2.238   4.409   8.353  0.8784  1.0274 -1.6797
 1639TIP3    H229113   2.143   4.376   8.239  0.0409 -1.1613 -0.3895
 1640TIP3   OH229114   7.662   5.869   2.315 -0.0051  0.4367 -0.2739
 1640TIP3    H129115   7.610   5.805   2.266 -0.7302 -0.3595  1.4575
 1640TIP3    H229116   7.602   5.901   2.383  1.3311  0.5808  0.8690
 1641TIP3   OH229117   5.031   3.262   0.319 -0.3872  0.2879  0.2669
 1641TIP3    H129118   5.008   3.274   0.227  0.7005 -0.7078 -0.1582
 1641TIP3    H229119   5.042   3.167   0.329  0.1293  0.4359  1.2654
 1642TIP3   OH229120   4.007   1.764   0.997  0.1440  0.1853  0.3400
 1642TIP3    H129121   3.963   1.728   0.919  0.9352  2.3028 -1.1856
 1642TIP3    H229122   4.007   1.859   0.983  1.2339  0.5595  2.4549
 1643TIP3   OH229123   4.258   1.359   7.776 -0.6744 -0.5071  0.0788
 1643TIP3    H129124   4.288   1.393   7.692 -0.6919  1.2841  0.7514
 1643TIP3    H229125   4.335   1.363   7.833 -1.1453  0.2076  0.6866
 1644TIP3   OH229126   4.623   7.104   7.670 -0.4198 -0.0050 -0.3355
 1644TIP3    H129127   4.557   7.166   7.701 -1.6390 -1.4850  0.1566
 1644TIP3    H229128   4.609   7.026   7.724  1.8421 -0.3307 -0.1312
 1645TIP3   OH229129   3.389   7.447   8.776 -0.6626 -0.4776 -0.5570
 1645TIP3    H129130   3.361   7.445   8.685  0.9318 -1.8664 -1.0617
 1645TIP3    H229131   3.428   7.361   8.792  0.7236  0.3503  0.8720
 1646TIP3   OH229132   3.905   1.037   0.646 -0.1272  0.1815  0.1628
 1646TIP3    H129133   3.999   1.024   0.636 -0.3770 -2.0777  0.0816
 1646TIP3    H229134   3.896   1.114   0.702  1.7509  0.4770  0.1090
 1647TIP3   OH229135   0.418   4.474   8.467 -0.0900 -0.0357  0.3831
 1647TIP3    H129136   0.379   4.500   8.550 -0.6416  0.8453 -0.1396
 1647TIP3    H229137   0.357   4.505   8.400  0.6255 -0.2192 -0.3796
 1648TIP3   OH229138   0.001   6.319   9.817 -0.2334  0.2939  0.4092
 1648TIP3    H129139  -0.055   6.357   9.749 -0.5027 -1.4859 -0.4145
 1648TIP3    H229140  -0.020   6.369   9.896 -3.0503 -0.3237  0.1482
 1649TIP3   OH229141   1.676   4.534   9.100 -0.3567 -0.0713 -0.1154
 1649TIP3    H129142   1.711   4.473   9.034 -2.2849 -0.0720 -1.2061
 1649TIP3    H229143   1.581   4.529   9.088 -0.6225  1.8595  0.9629
 1650TIP3   OH229144   7.206   0.980   0.822 -0.2066 -0.8239 -0.2459
 1650TIP3    H129145   7.229   0.929   0.900 -2.7092 -2.2847 -0.3562
 1650TIP3    H229146   7.124   1.024   0.845 -0.8527 -1.0549 -1.9282
 1651TIP3   OH229147   2.174   7.026   8.371 -0.3434  0.1106  0.3922
 1651TIP3    H129148   2.208   7.038   8.282 -0.9962  0.7946  0.2289
 1651TIP3    H229149   2.219   7.092   8.423 -1.9683  1.5733  0.0178
 1652TIP3   OH229150   7.020   6.480   0.340  0.2617  0.1287  1.0126
 1652TIP3    H129151   7.081   6.484   0.266  1.8054  0.9969  2.2600
 1652TIP3    H229152   7.034   6.393   0.378 -1.4426 -0.8240 -0.3744
 1653TIP3   OH229153   5.291   4.067   7.389 -0.8709 -0.2877 -0.0981
 1653TIP3    H129154   5.293   3.984   7.343  0.7970 -0.4060  0.1439
 1653TIP3    H229155   5.382   4.094   7.396 -1.3513  1.4668  0.0153
 1654TIP3   OH229156   6.056   0.542   3.000 -0.1630  0.4184 -0.2505
 1654TIP3    H129157   6.058   0.616   2.939  0.7767 -0.0786 -0.8514
 1654TIP3    H229158   5.989   0.566   3.064 -0.6807  1.2700 -1.0770
 1655TIP3   OH229159   6.977   5.554   2.356  0.5820  0.5457 -0.0061
 1655TIP3    H129160   6.946   5.645   2.358  1.2701  0.7822  1.9023
 1655TIP3    H229161   7.069   5.562   2.328  0.5003  0.3775 -0.3274
 1656TIP3   OH229162   2.901   7.507   7.784 -0.1403  0.5897  0.1460
 1656TIP3    H129163   2.987   7.475   7.755  0.1473  0.2240  1.3665
 1656TIP3    H229164   2.915   7.601   7.798 -0.2349  0.7370 -0.6945
 1657TIP3   OH229165   7.126   2.571   0.473  0.6702  0.2706 -0.1696
 1657TIP3    H129166   7.216   2.578   0.505  0.4803 -0.4386  0.5462
 1657TIP3    H229167   7.080   2.643   0.515  1.1381  1.3437 -1.4298
 1658TIP3   OH229168   1.833   3.267   6.827  0.5547 -0.2021 -0.2162
 1658TIP3    H129169   1.910   3.218   6.859 -0.9023 -1.2299  1.9987
 1658TIP3    H229170   1.761   3.205   6.835 -0.7970  1.2775 -0.5614
 1659TIP3   OH229171   1.558   7.556   1.221  0.1629 -0.1860 -0.2617
 1659TIP3    H129172   1.481   7.566   1.165  0.4131  0.3583 -0.5108
 1659TIP3    H229173   1.633   7.571   1.163  0.4246  0.3223  0.1983
 1660TIP3   OH229174   1.041   4.496   1.263 -0.4882 -0.0851 -0.2764
 1660TIP3    H129175   0.963   4.464   1.217  0.5687 -0.3369 -1.9740
 1660TIP3    H229176   1.078   4.562   1.204 -0.2064  1.1312  1.1852
 1661TIP3   OH229177   1.638   7.416   9.218  0.2561 -0.7393  0.1678
 1661TIP3    H129178   1.573   7.477   9.183 -0.8054 -1.9145  0.0285
 1661TIP3    H229179   1.722   7.458   9.200 -0.3894  0.0510 -1.1795
 1662TIP3   OH229180   2.740   2.034   8.527  0.1934  0.1972 -0.0756
 1662TIP3    H129181   2.692   2.116   8.516  1.5803  1.0592  0.0683
 1662TIP3    H229182   2.827   2.053   8.494  0.0531 -1.7843 -1.7866
 1663TIP3   OH229183   6.052   7.131   8.932 -0.0427 -0.0668  0.3544
 1663TIP3    H129184   5.997   7.206   8.908  0.2905 -0.3443 -1.4799
 1663TIP3    H229185   6.005   7.056   8.897  0.5498 -0.5099  0.5031
 1664TIP3   OH229186   3.378   6.356   7.718  0.8223  0.7971 -0.2484
 1664TIP3    H129187   3.316   6.383   7.651  0.0246 -2.8921 -1.2396
 1664TIP3    H229188   3.394   6.263   7.701  3.9920  0.7021  2.0765
 1665TIP3   OH229189   2.465   1.376   9.905  0.2133  0.2253  0.4858
 1665TIP3    H129190   2.509   1.461   9.904  2.3031 -0.7974  0.4568
 1665TIP3    H229191   2.479   1.340   9.817 -4.3631  1.5318 -1.0530
 1666TIP3   OH229192   1.827   2.226   0.546  0.2898  0.1141 -0.0251
 1666TIP3    H129193   1.785   2.263   0.624 -0.0093  0.7339 -0.4693
 1666TIP3    H229194   1.795   2.281   0.474  2.4716  1.1309 -0.2980
 1667TIP3   OH229195   0.286   2.392   8.903 -0.4806  0.4035 -0.3258
 1667TIP3    H129196   0.334   2.360   8.980 -0.6841 -0.4129 -0.5295
 1667TIP3    H229197   0.291   2.488   8.910 -1.7505  0.3858  1.5083
 1668TIP3   OH229198   0.447   7.520   0.336  0.0001  0.2941  0.2760
 1668TIP3    H129199   0.375   7.555   0.388 -0.7370 -0.0987 -0.4670
 1668TIP3    H229200   0.523   7.524   0.395 -0.4281  1.5219  0.7783
 1669TIP3   OH229201   4.750   5.811   8.244  0.1811  0.5918 -0.1975
 1669TIP3    H129202   4.755   5.793   8.151 -0.5753  0.5003 -0.2258
 1669TIP3    H229203   4.804   5.743   8.285  0.2370  0.4288 -0.5445
 1670TIP3   OH229204   5.120   1.085   0.845  0.0108  0.0119  0.1494
 1670TIP3    H129205   5.146   1.168   0.807  1.2984 -0.3428  0.2238
 1670TIP3    H229206   5.127   1.022   0.773 -1.1608 -0.0190  0.0359
 1671TIP3   OH229207   0.263   3.018   8.222  0.3220  0.7946 -0.3898
 1671TIP3    H129208   0.195   3.011   8.290  0.3471  3.9373  0.1184
 1671TIP3    H229209   0.319   2.943   8.236 -2.2869 -1.2292  0.0140
 1672TIP3   OH229210   1.755   2.349   9.799  0.3614 -0.0084  0.1510
 1672TIP3    H129211   1.750   2.308   9.713 -0.2979  1.0746 -0.3400
 1672TIP3    H229212   1.789   2.437   9.783  0.2632  0.2004  1.0044
 1673TIP3   OH229213   2.439   7.326   1.805  0.3418  0.0439 -0.4022
 1673TIP3    H129214   2.379   7.271   1.755 -0.0258 -1.3128  1.4033
 1673TIP3    H229215   2.384   7.363   1.875  1.0869  0.8334 -0.2218
 1674TIP3   OH229216   0.254   0.614   9.552 -0.2407 -0.6986  0.0334
 1674TIP3    H129217   0.270   0.519   9.552  2.4531 -0.3276 -0.0578
 1674TIP3    H229218   0.250   0.637   9.459 -0.9543 -0.7057  0.0563
 1675TIP3   OH229219   5.979   0.893   0.009  0.2166  0.4623 -0.3366
 1675TIP3    H129220   5.999   0.818  -0.047  0.0354  1.1334 -1.3397
 1675TIP3    H229221   6.029   0.878   0.089  1.6623  0.1838 -1.2574
 1676TIP3   OH229222   3.267   1.069   0.648 -0.0731 -0.0033 -0.0592
 1676TIP3    H129223   3.240   1.152   0.687  0.0694  1.2074 -2.3486
 1676TIP3    H229224   3.200   1.051   0.582 -0.3674 -2.0109  0.7279
 1677TIP3   OH229225   2.802   4.118   8.983  0.6843  0.4827  0.2980
 1677TIP3    H129226   2.769   4.203   8.955  2.2882  0.5983 -1.4193
 1677TIP3    H229227   2.752   4.054   8.932  1.0165  0.5149 -0.0732
 1678TIP3   OH229228   6.884   1.882   9.351  0.2956 -0.6135  0.0766
 1678TIP3    H129229   6.877   1.799   9.397  1.2383 -0.3978  0.6312
 1678TIP3    H229230   6.967   1.919   9.380 -0.7123  1.1523  0.8816
 1679TIP3   OH229231   6.407   2.561   1.010  0.5174 -0.4520  0.6128
 1679TIP3    H129232   6.462   2.632   1.044  0.1803 -0.2208  0.6809
 1679TIP3    H229233   6.318   2.586   1.034 -0.0142  0.8191 -2.2422
 1680TIP3   OH229234   6.844   6.093   8.689  0.0213  0.5686  0.4942
 1680TIP3    H129235   6.801   6.050   8.763  0.5323 -1.1842 -0.1834
 1680TIP3    H229236   6.924   6.131   8.726  0.8749 -1.2978  0.6758
 1681TIP3   OH229237   1.080   1.138   7.387 -0.3375  0.5671 -0.1757
 1681TIP3    H129238   1.063   1.199   7.460 -0.3901  2.2626 -1.5270
 1681TIP3    H229239   1.009   1.155   7.325  0.4036  0.0912 -1.1858
 1682TIP3   OH229240   5.859   4.812   6.808 -0.1572  0.5125  0.4772
 1682TIP3    H129241   5.939   4.772   6.774 -0.0717  0.2044  1.0306
 1682TIP3    H229242   5.823   4.862   6.734 -1.0909 -1.8193 -0.7366
 1683TIP3   OH229243   1.741   4.509   1.908 -0.0352 -0.6316  0.1929
 1683TIP3    H129244   1.793   4.568   1.962  0.3247 -0.7405 -0.0309
 1683TIP3    H229245   1.673   4.565   1.870 -0.2101 -0.5302  0.6474
 1684TIP3   OH229246   2.109   4.174   7.884 -0.3300  0.1385 -0.6597
 1684TIP3    H129247   2.102   4.185   7.789 -0.7974  0.2930 -0.6112
 1684TIP3    H229248   2.201   4.154   7.899 -0.5509 -1.5417 -1.3009
 1685TIP3   OH229249   3.876   5.169   9.059 -0.3946  0.3168 -0.1784
 1685TIP3    H129250   3.906   5.078   9.061  0.5838  0.5867 -1.3205
 1685TIP3    H229251   3.857   5.186   8.967 -0.7800  1.2110  0.0544
 1686TIP3   OH229252   7.226   5.387   9.309  0.6726 -0.4532  0.2390
 1686TIP3    H129253   7.273   5.449   9.364  0.0809  1.1629 -0.9704
 1686TIP3    H229254   7.151   5.360   9.363  0.9747 -0.1643  0.8169
 1687TIP3   OH229255   2.345   2.324   7.865  0.2583 -0.6480 -0.1792
 1687TIP3    H129256   2.355   2.419   7.876 -0.3234 -0.5172 -0.7245
 1687TIP3    H229257   2.282   2.315   7.793  2.8399 -1.4741 -2.4851
 1688TIP3   OH229258   7.406   4.761   8.041 -0.1052  0.2625  0.3342
 1688TIP3    H129259   7.360   4.682   8.013  0.0747  0.4600 -0.5455
 1688TIP3    H229260   7.340   4.830   8.041 -0.0898  0.2776  0.3098
 1689TIP3   OH229261   0.964   2.971   2.606 -0.3240  0.5194  0.3185
 1689TIP3    H129262   0.881   2.991   2.561 -1.0062 -1.4672  0.6019
 1689TIP3    H229263   0.940   2.909   2.674  1.2294  0.9136  1.2779
 1690TIP3   OH229264   0.455   7.325   1.538  0.3956 -0.7405 -0.1240
 1690TIP3    H129265   0.505   7.355   1.462  0.7139 -0.6021  0.1368
 1690TIP3    H229266   0.508   7.351   1.613 -0.3720 -0.0335  0.1854
 1691TIP3   OH229267   2.929   2.265   2.408 -0.6409  0.3186 -0.0141
 1691TIP3    H129268   2.977   2.341   2.442 -0.5128  0.2148  0.0392
 1691TIP3    H229269   2.875   2.236   2.482  0.2958 -0.4450  0.3874
 1692TIP3   OH229270   6.053   4.777   8.453  0.1177  0.5603  0.6280
 1692TIP3    H129271   6.127   4.720   8.431 -0.3651  0.4947 -0.9259
 1692TIP3    H229272   6.076   4.813   8.539  2.1825  0.9253 -0.0147
 1693TIP3   OH229273   2.057   4.752   0.372  0.6935  0.7734 -0.1250
 1693TIP3    H129274   2.136   4.725   0.419  0.4011  0.8544  0.4166
 1693TIP3    H229275   1.989   4.756   0.439  0.1634  0.4462 -0.6306
 1694TIP3   OH229276   0.083   1.956   2.180  0.0280  0.0805 -0.4153
 1694TIP3    H129277   0.085   2.041   2.224 -2.5480 -0.2433  0.5488
 1694TIP3    H229278   0.032   1.971   2.100  1.4339 -0.1493 -1.3999
 1695TIP3   OH229279   4.048   4.150   7.778  0.2546 -0.3619 -0.6405
 1695TIP3    H129280   4.010   4.081   7.724 -0.1424  1.4009 -2.7288
 1695TIP3    H229281   4.143   4.144   7.762  0.1392  0.1458 -1.5483
 1696TIP3   OH229282   5.882   2.153   8.979 -0.2850  0.2231 -0.0691
 1696TIP3    H129283   5.977   2.147   8.981 -0.3424 -0.7198  1.1896
 1696TIP3    H229284   5.854   2.126   9.067 -1.5521  3.6472  0.7550
 1697TIP3   OH229285   1.592   1.468   1.570 -0.2156  0.2292  0.1753
 1697TIP3    H129286   1.653   1.542   1.576 -0.2740  0.3625 -0.7427
 1697TIP3    H229287   1.640   1.402   1.519 -0.7958  0.2973 -0.4674
 1698TIP3   OH229288   5.417   6.116   7.930 -0.4874  0.5252 -0.7823
 1698TIP3    H129289   5.472   6.039   7.916  0.0367  0.9532 -1.1334
 1698TIP3    H229290   5.413   6.159   7.844 -0.7112  0.9273 -0.5769
 1699TIP3   OH229291   5.822   3.946   7.322  0.1721  0.0672 -0.4480
 1699TIP3    H129292   5.850   3.985   7.239  0.3945  1.8757  0.4140
 1699TIP3    H229293   5.897   3.959   7.380 -0.1743 -0.7068  0.1834
 1700TIP3   OH229294   4.006   1.237   8.109 -0.1517 -0.5707  0.5396
 1700TIP3    H129295   4.070   1.183   8.062  0.2032 -0.0151  0.3833
 1700TIP3    H229296   3.993   1.313   8.053  1.0089  0.5727  1.7619
 1701TIP3   OH229297   1.917   5.514   0.762 -0.3453 -0.2298 -0.4114
 1701TIP3    H129298   2.003   5.555   0.747 -0.2051 -1.1784 -2.5423
 1701TIP3    H229299   1.860   5.553   0.696 -1.8819  1.0349  1.5162
 1702TIP3   OH229300   1.793   6.942   7.925  0.3696  0.2222 -0.0253
 1702TIP3    H129301   1.834   6.862   7.959  2.5220  1.0701 -0.4744
 1702TIP3    H229302   1.753   6.983   8.002  2.6916  0.6624  1.0531
 1703TIP3   OH229303   0.262   4.185   9.925 -0.3173 -0.4228 -0.1322
 1703TIP3    H129304   0.288   4.119   9.860  0.6903  0.5254 -0.7293
 1703TIP3    H229305   0.297   4.152  10.008  0.3764 -0.5512 -0.4627
 1704TIP3   OH229306   6.315   6.031   3.001 -0.3604 -0.3915  0.1090
 1704TIP3    H129307   6.348   6.056   3.087 -0.8240  1.4832 -0.2101
 1704TIP3    H229308   6.390   5.992   2.957 -0.3460 -2.2196  1.6306
 1705TIP3   OH229309   1.166   4.271   1.070  0.3214  0.0528  0.3140
 1705TIP3    H129310   1.111   4.325   1.014 -1.5553  0.3753  2.3414
 1705TIP3    H229311   1.242   4.325   1.089 -1.1994  1.7930  1.7433
 1706TIP3   OH229312   0.402   4.260   2.086 -0.3992  0.8851  0.0620
 1706TIP3    H129313   0.323   4.314   2.074 -1.3774 -0.5812 -0.4334
 1706TIP3    H229314   0.459   4.313   2.141 -1.0746  2.6466 -0.8345
 1707TIP3   OH229315   4.224   6.930   9.247  0.4079  0.1568 -0.1191
 1707TIP3    H129316   4.249   6.976   9.327  0.2796  0.0012  0.0111
 1707TIP3    H229317   4.205   6.840   9.276 -1.3974  0.5303 -0.0102
 1708TIP3   OH229318   5.282   2.733   0.301 -0.1291  0.0132 -0.3912
 1708TIP3    H129319   5.337   2.713   0.226  0.9400 -0.7601  0.5537
 1708TIP3    H229320   5.297   2.826   0.318  2.6583 -0.5738  1.1182
 1709TIP3   OH229321   7.515   5.787   9.623 -0.0087 -0.5562  0.0266
 1709TIP3    H129322   7.562   5.712   9.585  0.3651 -2.0913  3.1391
 1709TIP3    H229323   7.585   5.848   9.647 -0.2418  0.4073 -1.6205
 1710TIP3   OH229324   3.125   2.826   2.239  0.7398 -0.1082  0.8328
 1710TIP3    H129325   3.138   2.873   2.321  2.5872 -0.1398  0.6059
 1710TIP3    H229326   3.178   2.874   2.175 -1.3797  0.4737 -0.6010
 1711TIP3   OH229327   3.638   2.151   2.003 -0.8663 -0.2445 -0.2379
 1711TIP3    H129328   3.577   2.224   1.993 -0.7764 -0.2456 -0.8309
 1711TIP3    H229329   3.719   2.192   2.034 -1.1100 -0.2223  0.3828
 1712TIP3   OH229330   7.559   5.931   1.926  0.3979 -0.1682  0.2168
 1712TIP3    H129331   7.600   5.847   1.949 -2.8223 -1.8801  0.3018
 1712TIP3    H229332   7.559   5.980   2.008  2.2888 -0.0442  0.1785
 1713TIP3   OH229333   2.026   3.363   2.173  1.0634  0.1884  0.0553
 1713TIP3    H129334   2.101   3.422   2.159  1.0853 -0.1374 -1.3496
 1713TIP3    H229335   2.030   3.302   2.099 -1.0074  0.5958 -0.4453
 1714TIP3   OH229336   0.690   7.558   0.479  0.4358  0.0339 -0.2320
 1714TIP3    H129337   0.745   7.487   0.446 -0.7434 -1.0467  0.0324
 1714TIP3    H229338   0.738   7.591   0.555  0.1258 -1.8213  0.8429
 1715TIP3   OH229339   0.393   0.265   0.893  0.4788  0.6749 -0.2454
 1715TIP3    H129340   0.335   0.335   0.923  0.0405 -0.0115  0.5657
 1715TIP3    H229341   0.421   0.292   0.806 -0.5119  1.3608 -0.3644
 1716TIP3   OH229342   7.461   6.760   8.336 -0.1311  0.1031  0.0813
 1716TIP3    H129343   7.412   6.818   8.277  1.2943  1.2157 -0.0514
 1716TIP3    H229344   7.485   6.815   8.410 -0.0273 -0.7225  0.6832
 1717TIP3   OH229345   7.241   7.277   2.901 -0.0619 -0.0405  0.1814
 1717TIP3    H129346   7.272   7.289   2.991 -2.6871  0.1135  1.1368
 1717TIP3    H229347   7.185   7.199   2.905 -0.1873 -0.0549 -1.3369
 1718TIP3   OH229348   3.704   2.204   7.612  0.0259 -0.4241  0.1716
 1718TIP3    H129349   3.757   2.188   7.534 -0.9099  2.0431 -1.0825
 1718TIP3    H229350   3.753   2.271   7.660 -0.3842 -0.4928  0.6919
 1719TIP3   OH229351   4.240   0.149   1.308  0.2754  0.2706 -0.4311
 1719TIP3    H129352   4.322   0.185   1.342  0.0545  0.6039 -0.2488
 1719TIP3    H229353   4.176   0.219   1.319 -0.4510 -0.5869  1.0723
 1720TIP3   OH229354   1.204   5.644   7.492 -0.6939  0.2768  0.6103
 1720TIP3    H129355   1.115   5.675   7.474 -0.5614  0.4152  0.1850
 1720TIP3    H229356   1.254   5.724   7.512 -0.2773  0.4001 -0.8013
 1721TIP3   OH229357   5.757   7.012   1.636  0.2480 -0.1419  0.3657
 1721TIP3    H129358   5.752   7.038   1.728 -0.8859 -0.8391  0.5185
 1721TIP3    H229359   5.775   6.918   1.639 -2.9239 -0.8707 -0.0142
 1722TIP3   OH229360   6.628   2.753   2.689 -0.6309 -0.0132 -0.0146
 1722TIP3    H129361   6.689   2.805   2.740 -2.6628  0.4135  2.1224
 1722TIP3    H229362   6.544   2.763   2.733 -1.6863 -2.8967 -1.1290
 1723TIP3   OH229363   0.865   7.050   9.851 -0.1744  0.0996  0.3826
 1723TIP3    H129364   0.936   7.082   9.906  0.9372 -1.0553 -0.3146
 1723TIP3    H229365   0.889   7.079   9.763 -0.4892 -0.4064  0.1239
 1724TIP3   OH229366   3.351   6.865   1.523  0.3054 -0.8952 -0.0773
 1724TIP3    H129367   3.324   6.876   1.614  1.5667  0.0513  0.2268
 1724TIP3    H229368   3.273   6.884   1.472 -0.4450 -1.5370  0.8072
 1725TIP3   OH229369   3.168   3.906   9.575  0.0171  0.3871 -0.4996
 1725TIP3    H129370   3.132   3.979   9.526  0.6428  1.0960  0.0710
 1725TIP3    H229371   3.093   3.866   9.618  0.0295  3.3598  2.7130
 1726TIP3   OH229372   2.091   0.599   1.385  0.1025  0.7091  0.7549
 1726TIP3    H129373   2.183   0.588   1.411 -0.1466 -0.2681  1.2476
 1726TIP3    H229374   2.041   0.561   1.457 -0.6103 -1.6996 -0.8847
 1727TIP3   OH229375   0.363   6.343   7.809  0.4787 -0.1187  0.0397
 1727TIP3    H129376   0.324   6.429   7.791  0.8655 -0.3472 -2.2853
 1727TIP3    H229377   0.425   6.330   7.737 -0.3112 -2.7559 -0.2833
 1728TIP3   OH229378   5.766   0.599   2.874 -0.3760 -0.4021  0.0217
 1728TIP3    H129379   5.740   0.508   2.886  1.3947 -0.9644 -0.0604
 1728TIP3    H229380   5.800   0.625   2.960  0.7966 -0.4214 -0.4202
 1729TIP3   OH229381   4.516   0.041   8.126 -0.2054  0.1515 -0.0583
 1729TIP3    H129382   4.563  -0.001   8.054  0.9119  0.1617  0.6368
 1729TIP3    H229383   4.579   0.042   8.199 -0.8253  1.3723  0.5022
 1730TIP3   OH229384   1.742   5.732   1.783 -0.0726 -0.1475  0.3323
 1730TIP3    H129385   1.789   5.783   1.849  1.5956  0.9902 -1.6061
 1730TIP3    H229386   1.658   5.777   1.773  0.0065  0.1754  1.0652
 1731TIP3   OH229387   5.193   3.136   9.953 -0.0428 -0.2885  0.8318
 1731TIP3    H129388   5.264   3.186   9.994 -1.1664  1.6015  0.5795
 1731TIP3    H229389   5.153   3.089  10.026  1.9258 -2.0564  0.8618
 1732TIP3   OH229390   0.386   7.264   2.610 -0.2182 -0.4348 -0.2977
 1732TIP3    H129391   0.474   7.263   2.647  0.0792  0.9507 -0.8890
 1732TIP3    H229392   0.329   7.246   2.684  0.4558  0.7521  0.5476
 1733TIP3   OH229393   4.448   6.604   9.352 -0.0833  0.2253  0.3372
 1733TIP3    H129394   4.506   6.586   9.278  0.0689  0.7389  0.3235
 1733TIP3    H229395   4.505   6.607   9.428 -0.2331 -0.2544  0.4668
 1734TIP3   OH229396   1.306   3.640   6.797 -0.2018  0.0273 -0.2580
 1734TIP3    H129397   1.273   3.727   6.772 -0.9891 -0.4316 -0.8597
 1734TIP3    H229398   1.245   3.610   6.864 -1.4138 -1.0638 -1.7745
 1735TIP3   OH229399   2.731   5.423   8.080  0.0842  0.1948 -0.4610
 1735TIP3    H129400   2.723   5.433   7.985  0.8230  1.0589 -0.4346
 1735TIP3    H229401   2.794   5.490   8.107 -0.1698  0.0066  0.6519
 1736TIP3   OH229402   4.332   7.105   0.698  0.2637 -0.6061  0.5583
 1736TIP3    H129403   4.260   7.163   0.673 -1.2674 -2.8063 -0.4728
 1736TIP3    H229404   4.385   7.097   0.619  0.6674 -0.3536  0.8007
 1737TIP3   OH229405   0.200   6.212   2.007 -0.0989 -0.6688  0.3712
 1737TIP3    H129406   0.115   6.181   2.039 -0.3470  0.5489  0.9850
 1737TIP3    H229407   0.259   6.138   2.020 -0.6786 -0.9388  1.6499
 1738TIP3   OH229408   2.469   6.085   0.073 -0.0350 -0.3305  0.3715
 1738TIP3    H129409   2.508   5.998   0.077 -2.3838 -1.3957  1.5952
 1738TIP3    H229410   2.503   6.130   0.151 -1.1436 -1.2456  1.4218
 1739TIP3   OH229411   6.722   5.895   2.197  0.2254  0.0906 -0.4756
 1739TIP3    H129412   6.702   5.802   2.191  0.1486  0.1152 -0.6193
 1739TIP3    H229413   6.641   5.939   2.169  0.3870  0.1941 -0.7799
 1740TIP3   OH229414   4.875   1.406   0.635  0.3265  0.5572  0.2606
 1740TIP3    H129415   4.953   1.396   0.690 -0.1225  0.2230  0.8543
 1740TIP3    H229416   4.848   1.316   0.617  0.5605  0.6592 -0.6608
 1741TIP3   OH229417   0.125   7.252   9.575  0.3016 -0.1089 -0.3022
 1741TIP3    H129418   0.041   7.296   9.563  0.6134  0.3432 -0.8298
 1741TIP3    H229419   0.101   7.161   9.595 -0.4520  0.7519  3.4077
 1742TIP3   OH229420   0.258   5.593   7.448 -0.1531 -0.1349  0.2250
 1742TIP3    H129421   0.334   5.651   7.453  0.2745 -0.5713 -0.8761
 1742TIP3    H229422   0.204   5.631   7.378  0.0052 -0.8993 -0.3245
 1743TIP3   OH229423   0.404   0.246   9.421  0.1335  0.1868  0.0322
 1743TIP3    H129424   0.419   0.153   9.403 -1.2107  0.3955 -2.6526
 1743TIP3    H229425   0.309   0.257   9.411  0.3071  1.9117  0.0405
 1744TIP3   OH229426   1.639   4.108   7.744  0.1994 -0.0526  0.1679
 1744TIP3    H129427   1.545   4.109   7.724  0.2122 -1.2312  0.0107
 1744TIP3    H229428   1.643   4.129   7.837 -0.2211 -0.0787  0.1968
 1745TIP3   OH229429   0.960   5.543   9.547  0.1735  0.2153  0.2653
 1745TIP3    H129430   0.977   5.468   9.489  1.9099  0.7481  0.0263
 1745TIP3    H229431   0.931   5.613   9.488  0.4445  0.3024  0.2349
 1746TIP3   OH229432   1.369   7.044   9.811 -0.1045 -0.3191  0.3524
 1746TIP3    H129433   1.338   6.997   9.888 -0.4785  0.0117  0.4101
 1746TIP3    H229434   1.358   7.137   9.834 -0.5731 -0.2176 -0.2351
 1747TIP3   OH229435   0.077   1.793   1.809 -0.8218 -0.2211 -0.1111
 1747TIP3    H129436   0.157   1.827   1.770 -0.9179 -0.4133 -0.4730
 1747TIP3    H229437   0.024   1.871   1.826 -0.5651 -0.0950  0.1168
 1748TIP3   OH229438   0.587   2.361   9.953  0.1594  0.3375  0.1980
 1748TIP3    H129439   0.553   2.408  10.030 -1.0271  2.1630 -1.3325
 1748TIP3    H229440   0.508   2.332   9.907  0.8590 -0.9159 -0.2418
 1749TIP3   OH229441   4.529   2.685   8.973 -0.4329  0.2081 -0.1001
 1749TIP3    H129442   4.496   2.647   8.892  2.3716  1.8716 -2.2229
 1749TIP3    H229443   4.612   2.640   8.989 -0.3741  0.7236  1.1907
 1750TIP3   OH229444   2.664   3.937   0.520 -0.2608 -0.0113  0.6279
 1750TIP3    H129445   2.625   3.908   0.602  1.1671 -0.3466  1.2317
 1750TIP3    H229446   2.625   4.023   0.504 -0.5618  0.0630  1.6658
 1751TIP3   OH229447   2.270   3.743   8.403  0.0408 -0.1362  0.0980
 1751TIP3    H129448   2.282   3.823   8.455 -1.2250 -0.3932  0.8345
 1751TIP3    H229449   2.252   3.774   8.315  0.0972  0.3690  0.2595
 1752TIP3   OH229450   4.002   7.444   1.594 -0.4314  0.1570 -0.4522
 1752TIP3    H129451   4.073   7.427   1.532 -0.5883  1.4389 -1.0332
 1752TIP3    H229452   4.032   7.407   1.677 -0.8027 -2.8754 -1.5489
 1753TIP3   OH229453   3.947   7.259   0.051  0.5561 -0.0484 -0.0440
 1753TIP3    H129454   3.938   7.309  -0.029 -0.6893  2.1749  1.3997
 1753TIP3    H229455   4.040   7.235   0.054  0.4188 -1.2669 -2.6754
 1754TIP3   OH229456   4.955   3.428   8.323  0.2800  0.3513 -0.1279
 1754TIP3    H129457   4.861   3.416   8.334  0.2691  0.1289 -0.4478
 1754TIP3    H229458   4.965   3.463   8.235  0.4127  1.5455  0.3468
 1755TIP3   OH229459   0.386   7.019   0.126 -0.2421  0.2079 -0.2089
 1755TIP3    H129460   0.476   7.000   0.102 -0.5384 -0.5141 -0.7620
 1755TIP3    H229461   0.391   7.101   0.176  0.3359  2.1401 -3.2289
 1756TIP3   OH229462   2.017   1.282   0.245  0.3840 -0.0066  0.3158
 1756TIP3    H129463   1.954   1.346   0.277  0.3169 -0.5208  1.2152
 1756TIP3    H229464   2.008   1.286   0.149 -0.8246  0.0999  0.4245
 1757TIP3   OH229465   6.519   7.424   6.743  0.2470  0.3552  0.3582
 1757TIP3    H129466   6.500   7.337   6.708 -1.1739  0.0286  1.8432
 1757TIP3    H229467   6.594   7.410   6.802 -0.6317 -0.0993  1.4030
 1758TIP3   OH229468   5.367   0.216   9.041 -0.7649 -0.2649 -0.3190
 1758TIP3    H129469   5.435   0.174   8.989 -1.7249 -0.5929 -1.3679
 1758TIP3    H229470   5.410   0.240   9.123  0.1149 -2.2997 -0.1206
 1759TIP3   OH229471   5.431   3.161   0.745  0.2794 -0.1200  0.1734
 1759TIP3    H129472   5.432   3.066   0.729 -0.4180  0.0817 -1.2380
 1759TIP3    H229473   5.366   3.195   0.684  1.5768  1.4471 -0.4177
 1760TIP3   OH229474   6.798   0.417   0.968 -0.1510 -0.0102  0.2482
 1760TIP3    H129475   6.831   0.506   0.959  2.6339 -1.0912 -1.6044
 1760TIP3    H229476   6.848   0.380   1.041  1.4107 -1.0824 -1.3087
 1761TIP3   OH229477   1.338   0.226   9.110  0.1982 -0.5592  0.0541
 1761TIP3    H129478   1.286   0.166   9.164  1.1016 -0.9030  0.5549
 1761TIP3    H229479   1.368   0.294   9.171  1.3601 -1.0383  0.0359
 1762TIP3   OH229480   6.092   6.271   7.139 -0.9834  0.4532 -0.0325
 1762TIP3    H129481   6.166   6.320   7.103 -1.1841  0.7261 -0.0677
 1762TIP3    H229482   6.017   6.329   7.131 -1.3474 -0.0931 -0.6431
 1763TIP3   OH229483   7.572   0.671   0.497 -0.1154  0.3225 -0.4230
 1763TIP3    H129484   7.645   0.648   0.440  0.9079 -1.2971  1.3898
 1763TIP3    H229485   7.517   0.593   0.498 -2.1224  1.6162 -1.9862
 1764TIP3   OH229486   0.563   6.014   7.764 -0.1551 -0.1546  0.4712
 1764TIP3    H129487   0.468   6.004   7.770 -0.1479 -0.7043 -0.2689
 1764TIP3    H229488   0.576   6.106   7.741 -0.4201  0.4100  2.4168
 1765TIP3   OH229489   5.298   0.615   8.512  0.2225 -0.3265 -0.0916
 1765TIP3    H129490   5.358   0.597   8.440  0.5188  1.6871 -0.4099
 1765TIP3    H229491   5.222   0.561   8.494  0.0913  0.4776 -2.1990
 1766TIP3   OH229492   0.219   1.622   8.581 -0.0470  0.1179  0.1733
 1766TIP3    H129493   0.199   1.713   8.602  0.7978 -0.0661  1.9635
 1766TIP3    H229494   0.305   1.606   8.619 -0.4973 -1.6257  0.5979
 1767TIP3   OH229495   6.797   6.485   9.102 -0.1441  0.0423 -0.5159
 1767TIP3    H129496   6.857   6.553   9.132  1.0641 -1.4308  0.6338
 1767TIP3    H229497   6.752   6.523   9.028  0.2418  2.1858  0.2878
 1768TIP3   OH229498   6.625   5.821   1.538 -0.1199 -0.5750  0.2903
 1768TIP3    H129499   6.547   5.877   1.537  0.2056 -0.1235 -0.1200
 1768TIP3    H229500   6.659   5.830   1.627 -1.1222 -1.6034  0.7948
 1769TIP3   OH229501   5.182   0.060   7.671  0.1674 -0.3525 -0.0397
 1769TIP3    H129502   5.218   0.002   7.603 -0.2570 -2.9152  1.7525
 1769TIP3    H229503   5.088   0.042   7.670  0.0199  0.3474  0.5486
 1770TIP3   OH229504   3.045   6.996   2.533 -0.1626 -0.5403 -0.1746
 1770TIP3    H129505   2.951   6.979   2.525  0.0399 -2.2970  0.7030
 1770TIP3    H229506   3.086   6.921   2.490  0.8589  0.5025 -1.0751
 1771TIP3   OH229507   4.103   7.163   1.329  0.4619  0.0152  0.1928
 1771TIP3    H129508   4.171   7.104   1.296  0.3659 -0.4897  0.8804
 1771TIP3    H229509   4.032   7.105   1.356 -0.2183  0.5377 -0.4552
 1772TIP3   OH229510   2.745   4.871   9.460  0.3389 -0.4304 -0.5489
 1772TIP3    H129511   2.756   4.781   9.489  2.2100 -0.4166 -1.0309
 1772TIP3    H229512   2.681   4.909   9.520  1.1061 -1.5066  1.0140
 1773TIP3   OH229513   6.947   0.577   1.951 -0.0907  0.4929 -0.0453
 1773TIP3    H129514   6.933   0.665   1.917  1.6020  0.4069 -1.0943
 1773TIP3    H229515   7.007   0.588   2.024  0.6264  0.1656 -0.5744
 1774TIP3   OH229516   7.502   3.853   2.339 -0.0109  0.1491  0.0225
 1774TIP3    H129517   7.572   3.803   2.381 -1.1379 -1.7129 -0.1715
 1774TIP3    H229518   7.428   3.845   2.399 -1.2323 -1.3689 -1.5898
 1775TIP3   OH229519   0.201   5.570   8.010  0.6160 -0.2329 -0.7538
 1775TIP3    H129520   0.190   5.515   7.933  0.7417 -1.9256  0.3946
 1775TIP3    H229521   0.111   5.588   8.040  0.4685 -3.5189  1.3258
 1776TIP3   OH229522   3.242   4.201   8.872 -0.4236  0.5131  0.5622
 1776TIP3    H129523   3.153   4.218   8.840  0.0643 -1.4887 -2.2533
 1776TIP3    H229524   3.293   4.276   8.839 -0.4914 -0.0535 -0.9129
 1777TIP3   OH229525   4.569   4.913   8.008 -0.4322  0.2626 -0.3871
 1777TIP3    H129526   4.594   4.891   8.097 -0.1056 -0.2680 -0.6024
 1777TIP3    H229527   4.651   4.918   7.960 -0.6904 -2.2102 -1.2621
 1778TIP3   OH229528  -0.003   1.902   1.327  0.0895 -0.0649 -0.5244
 1778TIP3    H129529  -0.019   1.936   1.239  0.5937  0.0958 -0.5591
 1778TIP3    H229530   0.072   1.844   1.316  1.2011  1.1978  0.0693
 1779TIP3   OH229531   0.597   0.484   9.490  0.0632  0.5023  0.2888
 1779TIP3    H129532   0.533   0.443   9.432 -0.2505  0.6056  0.5610
 1779TIP3    H229533   0.598   0.576   9.464  0.9125  0.2925 -0.4560
 1780TIP3   OH229534   6.838   6.974   2.237 -0.3179  0.8255  0.2846
 1780TIP3    H129535   6.891   6.905   2.279 -0.5711  0.6117  0.2564
 1780TIP3    H229536   6.847   6.957   2.143  0.0601  1.1632  0.2591
 1781TIP3   OH229537   7.655   7.109   9.067 -0.2686 -0.5937  0.3194
 1781TIP3    H129538   7.592   7.080   9.002  0.7950 -0.9755 -0.5644
 1781TIP3    H229539   7.710   7.033   9.084  1.0535  0.2010 -0.2380
 1782TIP3   OH229540   1.562   5.937   7.128  0.2202  0.3361 -0.1639
 1782TIP3    H129541   1.477   5.895   7.114 -0.2748  0.6159  1.7699
 1782TIP3    H229542   1.583   5.977   7.044 -1.1207 -0.5147 -0.9428
 1783TIP3   OH229543   5.468   2.448   2.582 -0.1930 -0.3074  0.2901
 1783TIP3    H129544   5.543   2.406   2.541 -0.8075  0.9389 -2.2928
 1783TIP3    H229545   5.487   2.541   2.578 -1.5043 -0.0142  0.3495
 1784TIP3   OH229546   5.223   2.538   0.902 -0.0623 -0.1814 -0.1171
 1784TIP3    H129547   5.273   2.530   0.984  1.7938  0.9321 -1.0979
 1784TIP3    H229548   5.184   2.451   0.891  2.3696 -1.4397  0.2827
 1785TIP3   OH229549   6.516   0.914   7.313 -0.0719  0.0868  0.4158
 1785TIP3    H129550   6.462   0.958   7.379 -1.4629  0.1628 -0.7237
 1785TIP3    H229551   6.561   0.985   7.268 -0.5186  0.1768  0.1052
 1786TIP3   OH229552   7.029   2.550   2.040  0.0048  0.3279  0.1473
 1786TIP3    H129553   6.968   2.565   1.968  1.4155  0.1646 -1.1406
 1786TIP3    H229554   7.037   2.635   2.083 -1.7352  0.1572  0.8770
 1787TIP3   OH229555   6.676   3.542   8.269  0.7298  0.4552 -0.3355
 1787TIP3    H129556   6.629   3.625   8.266  1.1710  0.7149 -0.1164
 1787TIP3    H229557   6.642   3.493   8.194 -0.7662  0.1581  0.4974
 1788TIP3   OH229558   0.798   3.826   1.074 -0.1821  0.4639  0.0077
 1788TIP3    H129559   0.883   3.814   1.031  0.7397  1.4222  1.4532
 1788TIP3    H229560   0.796   3.759   1.142 -0.4039  0.6940  0.2312
 1789TIP3   OH229561   2.529   7.273   8.232 -0.0930  0.4584  0.0994
 1789TIP3    H129562   2.586   7.212   8.278 -0.9673 -1.2400 -0.9217
 1789TIP3    H229563   2.453   7.283   8.289 -1.5896 -2.3564 -1.1984
 1790TIP3   OH229564   5.051   6.100   0.107  0.3340 -0.0162  0.1679
 1790TIP3    H129565   4.985   6.088   0.175  0.6144  0.7092  0.5752
 1790TIP3    H229566   5.116   6.159   0.145 -0.8428  2.6475 -1.5660
 1791TIP3   OH229567   0.939   0.400   7.101  0.1572  0.1541  0.2433
 1791TIP3    H129568   0.907   0.470   7.044 -2.2367 -0.4834  0.6945
 1791TIP3    H229569   0.924   0.434   7.189  1.6205  0.1812  0.4916
 1792TIP3   OH229570   0.229   0.454   0.448  0.0450  0.3322 -0.8507
 1792TIP3    H129571   0.248   0.380   0.505  1.6788  1.0922 -0.3339
 1792TIP3    H229572   0.280   0.438   0.369 -0.5535  0.3260 -1.2468
 1793TIP3   OH229573   5.737   4.253   8.347  0.2311  0.3845 -0.1152
 1793TIP3    H129574   5.761   4.301   8.267 -0.3081  1.8503  0.5690
 1793TIP3    H229575   5.821   4.227   8.386  0.5069 -0.0836 -0.9822
 1794TIP3   OH229576   1.631   4.763   2.193  0.2847 -0.3558 -0.4021
 1794TIP3    H129577   1.704   4.752   2.132  0.7348  0.1615  0.0357
 1794TIP3    H229578   1.672   4.777   2.278 -0.3396 -1.5267  0.1186
 1795TIP3   OH229579   7.620   3.830   7.882 -0.1330 -0.0629 -0.1258
 1795TIP3    H129580   7.619   3.923   7.905  1.0038  0.1187 -0.7447
 1795TIP3    H229581   7.529   3.810   7.861 -0.2610  1.1299 -0.8259
 1796TIP3   OH229582   5.790   5.135   8.183  0.6661  0.4908  0.2580
 1796TIP3    H129583   5.886   5.137   8.179  0.9873 -4.0662  0.6353
 1796TIP3    H229584   5.765   5.069   8.118 -2.2672  1.4545  0.2656
 1797TIP3   OH229585   4.227   4.296   7.192 -0.2680 -0.4456 -0.4926
 1797TIP3    H129586   4.271   4.277   7.275 -0.5555 -1.5826 -0.5784
 1797TIP3    H229587   4.275   4.370   7.156 -0.9179  0.9025  1.2590
 1798TIP3   OH229588   5.221   6.926   1.933 -0.2048 -0.5291  0.3137
 1798TIP3    H129589   5.210   6.846   1.985 -0.3719 -0.4254  0.4380
 1798TIP3    H229590   5.225   6.996   1.998 -1.0595 -0.3248  0.1607
 1799TIP3   OH229591   1.458   1.244   0.852 -0.0065  0.1142  0.4273
 1799TIP3    H129592   1.547   1.220   0.825 -0.0647  1.4465 -1.0579
 1799TIP3    H229593   1.471   1.312   0.919  0.0931  0.6227 -0.1048
 1800TIP3   OH229594  -0.033   3.334   0.977 -0.3256  0.0300 -0.2420
 1800TIP3    H129595  -0.012   3.297   1.063  0.1397 -1.3378 -0.9176
 1800TIP3    H229596  -0.029   3.428   0.990 -0.4852 -0.1528  1.2935
 1801TIP3   OH229597   1.400   3.355   0.838 -0.0369 -0.1335  0.3761
 1801TIP3    H129598   1.421   3.282   0.897 -0.7023  0.8867  1.9571
 1801TIP3    H229599   1.401   3.432   0.894 -0.4023  0.9403 -1.0358
 1802TIP3   OH229600   5.063   7.173   0.423  0.5568  0.0381  0.2510
 1802TIP3    H129601   5.130   7.240   0.406  0.3297  0.2845  0.3265
 1802TIP3    H229602   5.023   7.157   0.337 -0.1958  0.8628  0.4318
 1803TIP3   OH229603   4.561   6.886   0.776  0.3269 -0.0668 -0.1192
 1803TIP3    H129604   4.554   6.795   0.747  2.4763 -0.1974 -0.4017
 1803TIP3    H229605   4.546   6.938   0.698 -1.7557 -0.0873  0.2030
 1804TIP3   OH229606   3.102   4.316   7.235 -0.0716  0.3376  0.5610
 1804TIP3    H129607   3.050   4.322   7.155 -0.7172  0.0467  0.9500
 1804TIP3    H229608   3.172   4.255   7.214 -0.0959  0.4508  0.1432
 1805TIP3   OH229609   2.976   6.378   9.534  0.2426 -0.3099  0.2430
 1805TIP3    H129610   2.971   6.317   9.607 -1.9512 -0.9112 -0.3237
 1805TIP3    H229611   2.980   6.322   9.456  0.4257  0.2861 -0.1887
 1806TIP3   OH229612   5.631   3.665   8.934 -0.3460  0.0321 -0.2662
 1806TIP3    H129613   5.583   3.626   8.861 -0.8209 -0.1772  0.1544
 1806TIP3    H229614   5.677   3.593   8.975  1.7286  0.4664 -1.6759
 1807TIP3   OH229615   7.155   5.000   8.980  0.5112 -0.6860  0.3925
 1807TIP3    H129616   7.104   5.080   8.967 -1.0076 -1.6055  0.5164
 1807TIP3    H229617   7.230   5.028   9.033 -1.2538  0.2588  2.5501
 1808TIP3   OH229618   6.474   0.584   0.942  0.6246 -0.2546  0.5893
 1808TIP3    H129619   6.475   0.670   0.983  1.8246 -0.8035  1.7811
 1808TIP3    H229620   6.566   0.558   0.939  0.3501 -1.1910 -0.4397
 1809TIP3   OH229621   0.940   1.331   8.292  0.1302 -0.3905  0.3713
 1809TIP3    H129622   0.983   1.373   8.217 -0.4407 -0.6693 -0.1235
 1809TIP3    H229623   0.899   1.253   8.255  0.5454 -0.9828  1.1390
 1810TIP3   OH229624   5.977   2.441   0.724 -0.4612 -0.1836 -0.1665
 1810TIP3    H129625   6.067   2.472   0.720 -0.3829 -0.3115  0.5436
 1810TIP3    H229626   5.926   2.510   0.682 -0.0077 -0.2179 -0.7797
 1811TIP3   OH229627   2.027   3.746   2.179 -0.4965 -0.6448 -0.2706
 1811TIP3    H129628   1.963   3.806   2.217 -0.3062 -1.2679  1.1119
 1811TIP3    H229629   2.096   3.740   2.245  0.8489 -0.2419 -1.5903
 1812TIP3   OH229630   2.311   7.308   7.968  0.2114  0.6069  0.0993
 1812TIP3    H129631   2.382   7.244   7.967 -0.3350 -0.0035  0.1405
 1812TIP3    H229632   2.334   7.371   7.900  1.1507  0.8096  0.5887
 1813TIP3   OH229633   4.113   4.490   9.394  0.0445 -0.1512 -0.0947
 1813TIP3    H129634   4.125   4.568   9.449 -3.0604  1.6003 -1.6386
 1813TIP3    H229635   4.188   4.490   9.336  0.8133  0.8819  0.8551
 1814TIP3   OH229636   5.355   2.180   8.850  0.6066  0.3050  0.3652
 1814TIP3    H129637   5.361   2.271   8.823  1.1559 -0.1433 -1.1610
 1814TIP3    H229638   5.352   2.183   8.945  2.1871  1.8435  0.4203
 1815TIP3   OH229639   0.987   4.158   0.546  0.0365  0.4711 -0.3106
 1815TIP3    H129640   1.032   4.134   0.627  0.0225  0.5872 -0.2678
 1815TIP3    H229641   1.042   4.123   0.477 -0.4149 -0.4214 -0.2326
 1816TIP3   OH229642   1.780   0.589   2.356 -0.1045  0.5987 -0.1824
 1816TIP3    H129643   1.725   0.511   2.364 -0.1572  0.8094  2.5152
 1816TIP3    H229644   1.723   0.661   2.383  0.1222  1.5329 -2.0471
 1817TIP3   OH229645   6.915   3.646   0.549 -0.2209 -0.4751 -0.3089
 1817TIP3    H129646   6.925   3.571   0.607  0.6730  0.4404  0.7633
 1817TIP3    H229647   6.871   3.712   0.603 -1.2582 -0.2982 -1.3200
 1818TIP3   OH229648   6.254   2.759   6.870 -0.7908  0.3318 -0.4917
 1818TIP3    H129649   6.207   2.727   6.948 -1.9554  1.9091 -0.4925
 1818TIP3    H229650   6.250   2.686   6.808  0.1367 -0.9384  0.8911
 1819TIP3   OH229651   3.794   0.839   9.811  0.5434  0.3931  0.2896
 1819TIP3    H129652   3.793   0.794   9.895  1.2505 -1.9219 -0.8556
 1819TIP3    H229653   3.704   0.868   9.797  0.3558  0.5266  1.6578
 1820TIP3   OH229654   7.296   0.717   0.693  0.2838  0.1034 -0.3289
 1820TIP3    H129655   7.260   0.782   0.753  0.2709  1.3572 -1.6333
 1820TIP3    H229656   7.389   0.712   0.716  0.3351  0.7798 -0.3851
 1821TIP3   OH229657   5.306   1.735   2.785 -0.1858  0.5261  0.1490
 1821TIP3    H129658   5.323   1.646   2.815 -0.1214 -0.1102 -1.6565
 1821TIP3    H229659   5.391   1.767   2.754 -0.6706  0.2817 -1.4964
 1822TIP3   OH229660   6.687   4.308   1.726 -0.0328  0.7505 -0.1438
 1822TIP3    H129661   6.634   4.229   1.714  1.3082 -0.0576 -1.0130
 1822TIP3    H229662   6.658   4.368   1.658 -0.4535  0.6826 -0.0277
 1823TIP3   OH229663   1.087   3.966   2.537 -0.0333  0.0307 -0.3570
 1823TIP3    H129664   1.005   3.931   2.504  0.4959 -1.0743 -0.5488
 1823TIP3    H229665   1.062   4.045   2.584 -1.1620 -0.1092 -0.6914
 1824TIP3   OH229666   2.524   2.128   1.806 -0.1667  0.0868  0.6147
 1824TIP3    H129667   2.618   2.113   1.799  0.0294  0.7796  1.4952
 1824TIP3    H229668   2.498   2.163   1.721  0.0150 -1.7693 -0.2532
 1825TIP3   OH229669   5.680   1.496   0.854  0.3884  0.0406  0.0724
 1825TIP3    H129670   5.598   1.449   0.836 -0.0740  0.2320  1.5241
 1825TIP3    H229671   5.728   1.494   0.772 -1.8778  1.5252 -1.3911
 1826TIP3   OH229672   0.528   4.489   0.844  0.2328  0.8632  0.4317
 1826TIP3    H129673   0.613   4.510   0.806 -0.0610  1.0695 -0.1313
 1826TIP3    H229674   0.535   4.397   0.868  0.1580  0.4780 -0.9175
 1827TIP3   OH229675   6.781   6.866   8.188 -0.2901  0.0920 -0.3382
 1827TIP3    H129676   6.717   6.920   8.235 -1.4487 -0.8889 -0.7376
 1827TIP3    H229677   6.731   6.790   8.158  0.8713 -0.2689 -1.4481
 1828TIP3   OH229678   2.182   1.262   0.675  0.1023 -0.5617  0.3266
 1828TIP3    H129679   2.174   1.283   0.768  0.1526 -1.0144  0.4379
 1828TIP3    H229680   2.267   1.219   0.668  1.7321  2.5318 -0.5234
 1829TIP3   OH229681   5.339   0.496   1.117  0.2212 -0.0006 -0.5577
 1829TIP3    H129682   5.393   0.537   1.185  2.0550 -1.2662 -1.1752
 1829TIP3    H229683   5.358   0.546   1.038  0.5411 -0.4823 -0.7871
 1830TIP3   OH229684   6.456   0.963   7.666 -0.5413 -0.2226  0.3391
 1830TIP3    H129685   6.422   1.052   7.674  0.4231  0.4518 -2.0702
 1830TIP3    H229686   6.377   0.909   7.659 -1.1411  0.4937  1.2572
 1831TIP3   OH229687   2.706   4.370   8.613 -1.0203  0.5006 -0.0002
 1831TIP3    H129688   2.658   4.444   8.577  0.5298  1.3913 -0.3337
 1831TIP3    H229689   2.752   4.332   8.538 -1.7054 -0.7407  0.1884
 1832TIP3   OH229690   0.234   5.863   1.758 -0.3211  0.8128 -0.3995
 1832TIP3    H129691   0.159   5.810   1.783 -0.5490  0.8691 -0.9488
 1832TIP3    H229692   0.271   5.893   1.841 -0.7737  0.6054 -0.1187
 1833TIP3   OH229693   6.153   7.381   9.326 -0.0838  0.4804 -0.1842
 1833TIP3    H129694   6.119   7.374   9.236 -1.9631 -1.0198  0.5724
 1833TIP3    H229695   6.111   7.309   9.373  1.8628  0.4296  1.6219
 1834TIP3   OH229696   1.736   1.187   8.215 -0.4750 -0.2489 -0.2133
 1834TIP3    H129697   1.674   1.243   8.168 -0.9236 -1.7449 -1.5180
 1834TIP3    H229698   1.719   1.099   8.180  1.5148 -0.8949  0.3235
 1835TIP3   OH229699   2.779   6.049   8.208 -0.1681 -0.5812 -0.0734
 1835TIP3    H129700   2.767   6.022   8.117 -1.8784  0.0536 -0.0618
 1835TIP3    H229701   2.702   6.016   8.254  0.6821 -0.9189  1.1722
 1836TIP3   OH229702   6.893   1.504   9.944  0.1851 -0.2694  0.2334
 1836TIP3    H129703   6.821   1.441   9.949  0.9887 -1.1731  0.6842
 1836TIP3    H229704   6.855   1.586   9.976 -0.1487 -1.1800  2.3202
 1837TIP3   OH229705   2.411   3.921   6.796 -0.0765 -0.5258  0.1969
 1837TIP3    H129706   2.489   3.975   6.779  0.2560 -0.9142  0.4652
 1837TIP3    H229707   2.346   3.952   6.733 -0.6024  1.6352  1.6644
 1838TIP3   OH229708   6.842   2.111   1.490 -0.9793 -0.1248 -0.3609
 1838TIP3    H129709   6.783   2.092   1.563 -0.3189  0.0865  0.2407
 1838TIP3    H229710   6.917   2.052   1.503 -1.4952 -1.1462 -1.6955
 1839TIP3   OH229711   6.830   0.703   9.152  0.2623 -0.1175 -0.0386
 1839TIP3    H129712   6.910   0.704   9.204  0.6113 -0.1309 -0.5669
 1839TIP3    H229713   6.786   0.785   9.174  1.4018  0.8769 -1.2265
 1840TIP3   OH229714   0.596   1.598   0.014 -0.1784 -0.3231  0.1718
 1840TIP3    H129715   0.527   1.662  -0.002  1.9601  2.3786  0.9291
 1840TIP3    H229716   0.663   1.619  -0.051  0.7184 -1.5936  0.6622
 1841TIP3   OH229717   1.276   6.174   8.348  0.5660 -0.1346 -0.1578
 1841TIP3    H129718   1.336   6.184   8.422 -1.9383  1.1636  1.8531
 1841TIP3    H229719   1.315   6.228   8.279  0.7899  2.3133  1.7397
 1842TIP3   OH229720   1.954   5.281   6.645 -0.2805  0.0944  0.3053
 1842TIP3    H129721   1.885   5.231   6.689  0.0964  1.4929  2.6580
 1842TIP3    H229722   1.907   5.347   6.594 -0.7117 -0.0687  0.4855
 1843TIP3   OH229723   3.720   5.636   8.395 -0.0780  0.4682 -0.2915
 1843TIP3    H129724   3.677   5.708   8.441 -0.3590  0.0313  0.1468
 1843TIP3    H229725   3.759   5.676   8.317 -1.8066  0.7671 -1.0394
 1844TIP3   OH229726   6.901   6.055   9.404  0.7015  0.4036 -0.0012
 1844TIP3    H129727   6.875   6.117   9.336 -1.8555 -1.1100 -0.5333
 1844TIP3    H229728   6.865   6.091   9.485  0.8043  0.5285 -0.0118
 1845TIP3   OH229729   2.009   4.571   2.272 -1.0414  0.5272 -0.7903
 1845TIP3    H129730   2.091   4.614   2.297 -0.3505 -1.3258  0.2956
 1845TIP3    H229731   1.941   4.626   2.311 -0.2500  1.2012 -0.3050
 1846TIP3   OH229732   3.723   7.343   7.916  0.0258  0.1151  0.2669
 1846TIP3    H129733   3.767   7.390   7.987 -1.1288 -0.0446  1.1262
 1846TIP3    H229734   3.641   7.312   7.956  0.4433 -2.0701 -0.4608
 1847TIP3   OH229735   0.884   1.845   1.149 -1.0996  0.6196  0.0561
 1847TIP3    H129736   0.844   1.903   1.084 -0.0396 -0.4185 -1.6164
 1847TIP3    H229737   0.863   1.757   1.118 -0.2335  0.0902  0.9195
 1848TIP3   OH229738   6.763   6.148   2.533  0.2825 -0.9003 -0.8773
 1848TIP3    H129739   6.681   6.110   2.563  0.0047  0.1173 -0.3073
 1848TIP3    H229740   6.785   6.214   2.599  0.6390  0.0649 -1.9140
 1849TIP3   OH229741   5.408   3.642   8.737 -0.9860  0.0414  0.0133
 1849TIP3    H129742   5.366   3.705   8.679  1.6702  2.4062  0.4509
 1849TIP3    H229743   5.374   3.662   8.824 -0.4784  0.6452  0.0855
 1850TIP3   OH229744   5.948   1.994   7.315  0.0128  0.0797  0.3112
 1850TIP3    H129745   5.934   2.000   7.221 -1.8799 -1.5127  0.4509
 1850TIP3    H229746   6.003   1.917   7.327 -0.6495 -0.3563  0.5770
 1851TIP3   OH229747   4.820   2.604   9.636  0.1148 -0.2146  0.1413
 1851TIP3    H129748   4.797   2.688   9.597  1.5328 -0.3082 -0.9659
 1851TIP3    H229749   4.824   2.544   9.561  2.2490 -0.5450  0.4820
 1852TIP3   OH229750   5.508   5.506   0.090 -0.0985 -0.6296 -0.0220
 1852TIP3    H129751   5.532   5.415   0.072  1.0017 -0.5920  1.1482
 1852TIP3    H229752   5.478   5.505   0.181  1.7521  0.4798  0.6542
 1853TIP3   OH229753   7.030   5.748   8.641 -0.0201 -0.4394  0.6871
 1853TIP3    H129754   6.973   5.672   8.654  0.8537 -1.0975  0.7715
 1853TIP3    H229755   7.029   5.794   8.725 -1.9618  0.6823  0.1330
 1854TIP3   OH229756   5.571   2.713   8.671 -0.1760 -0.1115 -0.0959
 1854TIP3    H129757   5.629   2.721   8.595 -3.0450  0.2402 -2.4157
 1854TIP3    H229758   5.579   2.621   8.697  2.0133  0.1164  0.2876
 1855TIP3   OH229759   3.376   3.910   8.313  0.1490  0.2156  0.1103
 1855TIP3    H129760   3.441   3.926   8.245 -2.0510  1.5394 -1.8254
 1855TIP3    H229761   3.404   3.828   8.354  2.4411  0.2103 -1.2801
 1856TIP3   OH229762   3.178   0.321   8.829  0.4875  0.6843 -0.0548
 1856TIP3    H129763   3.174   0.241   8.881  0.5359  1.3572  1.0189
 1856TIP3    H229764   3.272   0.339   8.819  0.4868  0.3496 -0.7217
 1857TIP3   OH229765   0.296   0.669   7.762 -0.3232  0.1654 -0.0832
 1857TIP3    H129766   0.317   0.627   7.679 -1.1645  3.0532 -1.9001
 1857TIP3    H229767   0.378   0.712   7.788 -1.1201  3.1118 -1.9703
 1858TIP3   OH229768   7.657   2.464   7.487 -0.1308 -0.2682  0.5369
 1858TIP3    H129769   7.577   2.417   7.461  1.2761 -2.2556 -0.5107
 1858TIP3    H229770   7.697   2.490   7.404  2.1586 -2.6958  0.7310
 1859TIP3   OH229771   0.068   5.330   8.466 -0.2823  0.1081  0.2276
 1859TIP3    H129772   0.080   5.243   8.505  1.6879 -0.1210 -0.7563
 1859TIP3    H229773   0.060   5.389   8.541 -1.5121 -0.8594  0.9131
 1860TIP3   OH229774   6.831   5.761   2.659 -0.0965  0.7627  0.0034
 1860TIP3    H129775   6.907   5.703   2.672 -0.6794  0.6303  3.9577
 1860TIP3    H229776   6.845   5.800   2.573  3.4313 -0.7325 -0.2563
 1861TIP3   OH229777   3.760   6.508   9.760 -0.2905  0.3283 -0.3221
 1861TIP3    H129778   3.835   6.469   9.717 -1.5648 -0.7889 -1.6177
 1861TIP3    H229779   3.707   6.434   9.789 -0.7842  1.0894  0.8329
 1862TIP3   OH229780   4.179   0.154   0.213  0.1085 -0.4755  0.1558
 1862TIP3    H129781   4.183   0.198   0.298  1.2574 -2.7681  1.3907
 1862TIP3    H229782   4.176   0.225   0.149  1.4092  1.3765  2.0124
 1863TIP3   OH229783   2.381   2.309   9.153  0.3439 -0.0939  0.1589
 1863TIP3    H129784   2.466   2.304   9.197  0.5451  2.5152  0.2099
 1863TIP3    H229785   2.328   2.364   9.209 -1.3730 -1.5101  0.0135
 1864TIP3   OH229786   0.356   2.257   2.104 -0.2272  0.1789  0.0390
 1864TIP3    H129787   0.321   2.204   2.032 -2.2523  2.2137 -0.5941
 1864TIP3    H229788   0.294   2.243   2.176  0.2969  0.2109  0.4997
 1865TIP3   OH229789   0.533   0.436   2.830 -0.2655  0.3488  0.7376
 1865TIP3    H129790   0.476   0.360   2.829  0.8744 -0.5318 -0.0542
 1865TIP3    H229791   0.607   0.411   2.885  0.7206  0.3900 -0.5151
 1866TIP3   OH229792   6.380   6.138   0.743  0.1654  0.3266  0.1145
 1866TIP3    H129793   6.332   6.083   0.804  0.8676  0.7268  1.0483
 1866TIP3    H229794   6.404   6.079   0.672  0.2738 -0.4020  0.7457
 1867TIP3   OH229795   3.833   6.379   0.638 -0.0922  0.7635 -0.0088
 1867TIP3    H129796   3.776   6.435   0.585 -1.4239 -1.2338 -0.7811
 1867TIP3    H229797   3.777   6.348   0.709  1.4849  2.8626  2.3294
 1868TIP3   OH229798   1.827   0.165   8.070  0.5902  0.2015 -0.3749
 1868TIP3    H129799   1.803   0.082   8.110 -1.0334  0.0637 -1.5482
 1868TIP3    H229800   1.744   0.209   8.053  1.3493  1.4073 -1.1761
 1869TIP3   OH229801   1.850   5.975   1.591  0.3996  0.8094 -0.6705
 1869TIP3    H129802   1.883   6.061   1.564  2.6911  1.0407  2.3092
 1869TIP3    H229803   1.796   5.994   1.668 -0.1182 -0.3536 -0.7279
 1870TIP3   OH229804   5.961   6.748   2.534 -0.2823 -0.0611 -0.4806
 1870TIP3    H129805   5.870   6.723   2.552 -0.2773  0.7577  0.7759
 1870TIP3    H229806   5.996   6.676   2.483 -1.3349 -0.8830 -0.0696
 1871TIP3   OH229807   7.180   1.371   8.899  0.1564 -0.0618 -0.0490
 1871TIP3    H129808   7.166   1.340   8.989 -0.3820 -0.7716 -0.3726
 1871TIP3    H229809   7.159   1.296   8.844  0.6398  0.3228 -0.7692
 1872TIP3   OH229810   3.395   7.319   0.740 -0.0909  0.4117  0.1828
 1872TIP3    H129811   3.471   7.373   0.762 -0.4980  1.3551 -0.6107
 1872TIP3    H229812   3.335   7.331   0.813  0.8392 -1.0090  1.2173
 1873TIP3   OH229813   3.426   0.913   9.373 -0.1944 -0.0637 -0.5375
 1873TIP3    H129814   3.471   0.838   9.413  0.6637  0.7923  0.1579
 1873TIP3    H229815   3.428   0.895   9.279 -1.6053 -1.7622 -0.2905
 1874TIP3   OH229816   2.532   5.005   9.594 -0.0830 -0.2517  0.1295
 1874TIP3    H129817   2.545   5.079   9.654 -2.2514  0.3466 -0.0703
 1874TIP3    H229818   2.481   5.041   9.522  0.8877 -1.4120 -1.1880
 1875TIP3   OH229819   4.173   3.865   7.178 -0.4828  0.3015  0.4193
 1875TIP3    H129820   4.203   3.802   7.114 -0.4383  1.0129 -0.2762
 1875TIP3    H229821   4.178   3.819   7.262 -0.6510 -0.6749 -0.0936
 1876TIP3   OH229822   3.929   1.722   0.707  0.2026 -0.2613  0.5816
 1876TIP3    H129823   3.913   1.677   0.624  1.1348 -0.1628  0.3405
 1876TIP3    H229824   4.018   1.757   0.699 -0.9106  2.7984  0.2345
 1877TIP3   OH229825   4.613   6.772   7.212  0.4582  0.0054  0.0269
 1877TIP3    H129826   4.535   6.800   7.260 -1.2503 -0.2918 -2.3690
 1877TIP3    H229827   4.647   6.852   7.173 -0.4831 -0.2078 -1.3427
 1878TIP3   OH229828   3.466   3.646   8.443 -0.0526 -0.0415 -0.1991
 1878TIP3    H129829   3.547   3.644   8.391 -0.6783  2.9311 -1.5043
 1878TIP3    H229830   3.419   3.567   8.417  1.2371 -0.4491 -1.4557
 1879TIP3   OH229831   1.994   3.620   1.168 -0.7003  0.1327  0.0946
 1879TIP3    H129832   2.004   3.532   1.131 -0.1071 -0.2804  1.1959
 1879TIP3    H229833   2.069   3.668   1.134  0.3798 -0.5162  1.4531
 1880TIP3   OH229834   7.329   6.633   1.695 -0.6924 -0.5495 -0.6655
 1880TIP3    H129835   7.327   6.726   1.672  1.1191 -0.3943 -0.3589
 1880TIP3    H229836   7.404   6.624   1.754 -1.3492 -2.0705  0.0127
 1881TIP3   OH229837   5.695   5.107   9.137 -0.0898  0.4149 -0.3232
 1881TIP3    H129838   5.770   5.127   9.082  0.0076  3.8918  0.7805
 1881TIP3    H229839   5.731   5.103   9.226 -0.8656 -0.5776 -0.0320
 1882TIP3   OH229840   5.789   1.127   2.283  0.2877 -0.3467 -0.0002
 1882TIP3    H129841   5.875   1.133   2.324  0.8832  0.1266 -1.2511
 1882TIP3    H229842   5.728   1.159   2.349  0.9534 -1.4372  1.2026
 1883TIP3   OH229843   4.063   0.499   9.436  0.4632 -0.0359  0.1710
 1883TIP3    H129844   4.018   0.580   9.461 -0.3298 -0.2225 -0.6002
 1883TIP3    H229845   4.156   0.524   9.433  0.1293  1.1894 -1.2469
 1884TIP3   OH229846   6.333   3.977   9.050 -0.4006  0.1946 -0.1910
 1884TIP3    H129847   6.266   3.917   9.016  0.6246 -0.7060 -0.6899
 1884TIP3    H229848   6.397   3.983   8.980  0.7707 -0.1106  0.8278
 1885TIP3   OH229849   6.238   4.139   9.238 -0.0451 -0.1174 -0.4328
 1885TIP3    H129850   6.195   4.064   9.280 -1.2820  0.1584 -1.1490
 1885TIP3    H229851   6.277   4.103   9.158 -1.8393  0.2133 -1.5074
 1886TIP3   OH229852   2.361   1.850   0.749  0.0052  0.0633  0.4064
 1886TIP3    H129853   2.430   1.833   0.685  0.5053  0.1309  0.9218
 1886TIP3    H229854   2.321   1.932   0.721  1.8575  1.4250  1.5486
 1887TIP3   OH229855   4.056   7.267   9.600  0.2088  0.4024 -0.0345
 1887TIP3    H129856   4.070   7.173   9.593  0.3047  0.5233 -1.7665
 1887TIP3    H229857   4.141   7.302   9.627  0.2749  0.0340  0.2409
 1888TIP3   OH229858   6.766   4.736   1.644  0.1033  0.1289 -0.4748
 1888TIP3    H129859   6.795   4.823   1.671  1.2630 -0.2498 -0.4152
 1888TIP3    H229860   6.836   4.705   1.586  0.3292 -1.2369  0.4621
 1889TIP3   OH229861   5.832   1.494   7.807  0.4278  0.2768  0.6855
 1889TIP3    H129862   5.785   1.575   7.827  0.0308  0.5094 -0.9873
 1889TIP3    H229863   5.861   1.506   7.716 -0.9546 -2.0538 -0.1316
 1890TIP3   OH229864   3.040   4.063   9.104  0.6071 -0.2726 -0.1395
 1890TIP3    H129865   2.967   4.058   9.043  0.4040 -0.7488  0.1386
 1890TIP3    H229866   3.104   4.000   9.071  0.5041 -0.5178  0.1276
 1891TIP3   OH229867   1.193   3.040   0.675 -0.3740 -0.0444  0.4187
 1891TIP3    H129868   1.133   2.982   0.722  0.3553 -2.0131 -0.9248
 1891TIP3    H229869   1.171   3.027   0.583  0.7241  0.8098  0.0196
 1892TIP3   OH229870   1.079   5.505   1.235 -0.2094  0.2328  0.1464
 1892TIP3    H129871   1.156   5.473   1.189 -0.4090 -0.3462  0.2062
 1892TIP3    H229872   1.114   5.565   1.301  0.2582 -0.5677  0.6463
 1893TIP3   OH229873   5.106   5.516   0.154 -0.0603  0.3596 -0.7346
 1893TIP3    H129874   5.099   5.422   0.169  1.0919  0.1823 -1.2299
 1893TIP3    H229875   5.025   5.552   0.191  0.3033 -0.6151  1.1434
 1894TIP3   OH229876   1.927   6.176   2.639 -0.2708 -0.1974 -0.5704
 1894TIP3    H129877   1.958   6.176   2.730  0.4272 -0.4800 -0.8021
 1894TIP3    H229878   1.831   6.173   2.646 -0.2087 -0.7560  0.1500
 1895TIP3   OH229879   7.404   0.209   7.121 -0.3669  0.2256  0.5709
 1895TIP3    H129880   7.434   0.137   7.176 -0.2820 -0.5430 -0.4460
 1895TIP3    H229881   7.349   0.167   7.055 -0.6624  1.1530  0.2200
 1896TIP3   OH229882   0.697   1.153   0.434  0.0893  1.5846 -0.0814
 1896TIP3    H129883   0.767   1.136   0.371  1.0408 -0.7910  1.4421
 1896TIP3    H229884   0.741   1.151   0.519 -1.7244  0.4992  0.9060
 1897TIP3   OH229885   7.356   5.898   8.222 -0.5469 -0.2515 -0.5015
 1897TIP3    H129886   7.358   5.983   8.178  2.6713  1.2214  2.0233
 1897TIP3    H229887   7.301   5.913   8.299  1.2065  0.1275  0.7441
 1898TIP3   OH229888   5.137   3.432   9.393  0.6932 -0.0884 -0.4266
 1898TIP3    H129889   5.106   3.353   9.436  1.4886 -0.4128 -0.4338
 1898TIP3    H229890   5.222   3.450   9.433  0.5017  0.7986 -0.3832
 1899TIP3   OH229891   2.776   0.150   8.423 -0.2994  0.3806  0.0162
 1899TIP3    H129892   2.786   0.155   8.518  0.1309 -0.2087  0.0086
 1899TIP3    H229893   2.682   0.157   8.409 -0.4679 -0.5456  0.5674
 1900TIP3   OH229894   0.674   2.639   2.097  0.6259  0.1788 -0.3388
 1900TIP3    H129895   0.714   2.585   2.029  0.8250 -0.2189  0.0892
 1900TIP3    H229896   0.747   2.685   2.139  0.4039  1.2777 -1.1112
 1901TIP3   OH229897   2.215   7.438   1.946  0.0309  0.5957 -0.0812
 1901TIP3    H129898   2.164   7.456   1.867  3.7968  0.9836 -2.7323
 1901TIP3    H229899   2.234   7.524   1.982  1.5482  0.7528 -1.1502
 1902TIP3   OH229900   3.155   1.005   1.840  0.4126  0.5969  0.0783
 1902TIP3    H129901   3.225   0.968   1.894  0.9241  0.6487 -0.5376
 1902TIP3    H229902   3.126   1.082   1.889  0.7678  0.5584  0.3551
 1903TIP3   OH229903   0.300   4.832   9.201  0.3421  0.0372  0.2941
 1903TIP3    H129904   0.304   4.737   9.210  1.2248 -0.1428 -1.4744
 1903TIP3    H229905   0.389   4.863   9.218 -0.0715  0.6510  1.4967
 1904TIP3   OH229906   6.585   3.107   0.082 -0.0097 -0.7982  0.0812
 1904TIP3    H129907   6.551   3.165   0.015  1.4094  0.4154  0.3468
 1904TIP3    H229908   6.523   3.114   0.155 -0.7805 -1.0016 -0.5451
 1905TIP3   OH229909   6.533   3.108   8.249 -0.3429  0.5096 -0.0519
 1905TIP3    H129910   6.491   3.191   8.226  1.3379  1.1859 -0.8511
 1905TIP3    H229911   6.460   3.050   8.270 -1.5353  2.6042  2.0950
 1906TIP3   OH229912   3.477   2.050   9.830  0.2202 -0.1158  0.4714
 1906TIP3    H129913   3.477   1.995   9.752  1.4270 -0.8789  0.9770
 1906TIP3    H229914   3.501   2.137   9.799  2.8515 -0.8433  0.2038
 1907TIP3   OH229915   7.517   2.871   2.142 -0.8075  0.4708 -0.4731
 1907TIP3    H129916   7.590   2.933   2.145 -0.7252  0.3653  1.6863
 1907TIP3    H229917   7.444   2.921   2.104  0.3526  0.5313 -2.7936
 1908TIP3   OH229918   6.026   5.164   8.431 -0.6312 -0.1232  0.6760
 1908TIP3    H129919   6.040   5.074   8.458 -0.4193  0.1081  1.3339
 1908TIP3    H229920   6.108   5.190   8.391 -1.3286 -0.8642 -1.3876
 1909TIP3   OH229921   0.372   5.653   7.769  0.0175 -0.3779  0.2706
 1909TIP3    H129922   0.374   5.674   7.676  1.0564 -2.4815 -0.2545
 1909TIP3    H229923   0.340   5.563   7.773 -0.6142 -0.1338  2.0252
 1910TIP3   OH229924   3.752   7.404   1.634 -0.1362 -0.3778 -0.5585
 1910TIP3    H129925   3.842   7.431   1.617 -0.1737  0.3709  0.3221
 1910TIP3    H229926   3.712   7.480   1.677 -0.2898 -1.7721  1.9378
 1911TIP3   OH229927   5.331   7.623   9.303  0.5359  0.1184 -0.2633
 1911TIP3    H129928   5.356   7.562   9.233  0.4411  0.2114 -0.3794
 1911TIP3    H229929   5.346   7.575   9.384  0.6044 -0.0063 -0.3504
 1912TIP3   OH229930   7.171   0.262   6.761 -0.3981 -0.0647  0.0355
 1912TIP3    H129931   7.134   0.203   6.695 -0.8390 -0.0110  0.2329
 1912TIP3    H229932   7.261   0.230   6.773  0.0193  0.5282 -1.3041
 1913TIP3   OH229933   0.510   6.155   9.792  0.0841  0.2254  0.0828
 1913TIP3    H129934   0.417   6.133   9.790  0.1646 -0.2123 -3.2536
 1913TIP3    H229935   0.514   6.245   9.758  0.8830  0.2618  0.2523
 1914TIP3   OH229936   6.190   3.382   8.720 -0.1799  0.6293 -0.0333
 1914TIP3    H129937   6.282   3.378   8.695 -0.1347 -1.6706  0.2548
 1914TIP3    H229938   6.143   3.396   8.638  0.3824  1.6975 -0.1963
 1915TIP3   OH229939   1.827   3.729   1.599 -0.2428 -0.0464 -0.1885
 1915TIP3    H129940   1.844   3.703   1.509  1.2835 -3.8568  0.9915
 1915TIP3    H229941   1.907   3.774   1.627 -1.2325  2.3725 -1.0001
 1916TIP3   OH229942   6.578   4.535   7.002  0.5640  0.0667 -0.2362
 1916TIP3    H129943   6.650   4.497   7.052 -1.3127  0.8525  3.4020
 1916TIP3    H229944   6.608   4.623   6.979  1.2123 -0.0577  0.1149
 1917TIP3   OH229945   0.486   2.931   9.004 -0.2120  0.4827 -0.3392
 1917TIP3    H129946   0.503   2.879   9.083 -2.2167 -0.7601 -0.6512
 1917TIP3    H229947   0.501   3.021   9.031 -1.7328  0.1805  1.7976
 1918TIP3   OH229948   3.909   2.300   7.790 -0.0862 -0.3802  0.1369
 1918TIP3    H129949   4.001   2.274   7.778  0.2054  0.6504  0.0189
 1918TIP3    H229950   3.912   2.362   7.863 -0.8471 -1.1568  0.8432
 1919TIP3   OH229951   3.212   4.842   0.713 -0.1369  0.2332 -0.5172
 1919TIP3    H129952   3.216   4.761   0.663 -1.3496 -0.6953  0.7962
 1919TIP3    H229953   3.235   4.816   0.802 -3.5727  0.6095  0.6258
 1920TIP3   OH229954   3.496   1.535   1.480  0.0089 -0.7524 -0.3560
 1920TIP3    H129955   3.540   1.619   1.466  0.6923 -0.9528  0.5227
 1920TIP3    H229956   3.539   1.498   1.557 -0.9416 -1.4713 -0.1545
 1921TIP3   OH229957   3.547   0.819   1.235  0.6302 -0.0330  0.0844
 1921TIP3    H129958   3.540   0.746   1.173 -2.3864  0.2561 -0.1025
 1921TIP3    H229959   3.526   0.896   1.182  0.7391  0.5565  0.8976
 1922TIP3   OH229960   3.982   0.410   0.352 -0.1612 -0.6761 -0.5903
 1922TIP3    H129961   4.013   0.423   0.263 -0.4381 -1.1879 -0.7644
 1922TIP3    H229962   4.059   0.379   0.400  0.6147  1.8555 -0.0745
 1923TIP3   OH229963   3.021   7.471   9.920  0.1882 -0.3397  0.4953
 1923TIP3    H129964   2.936   7.428   9.916  0.4451 -0.8026 -0.7192
 1923TIP3    H229965   3.082   7.401   9.947  0.6729 -0.9401 -1.8867
 1924TIP3   OH229966   6.396   1.559   8.001 -0.2368 -0.7194 -0.2070
 1924TIP3    H129967   6.403   1.640   7.950 -0.0899 -0.8778 -0.4394
 1924TIP3    H229968   6.302   1.547   8.013 -0.3587 -1.4233 -1.6538
 1925TIP3   OH229969   7.325   2.805   9.211 -0.7219 -0.4614 -0.4768
 1925TIP3    H129970   7.351   2.897   9.211 -2.6938  0.1659  0.7734
 1925TIP3    H229971   7.275   2.794   9.130 -1.3773 -0.1459 -0.1160
 1926TIP3   OH229972   7.483   7.090   9.612  0.3647  0.4708 -0.0865
 1926TIP3    H129973   7.543   7.017   9.626 -1.6334 -1.2543 -0.2045
 1926TIP3    H229974   7.503   7.151   9.683  2.2923  0.0160 -0.1730
 1927TIP3   OH229975   5.281   3.799   8.556 -0.0350  0.2157  0.1265
 1927TIP3    H129976   5.290   3.763   8.468 -2.8902  1.8518 -0.9508
 1927TIP3    H229977   5.322   3.886   8.550  0.5384 -0.0082  0.6947
 1928TIP3   OH229978   3.316   5.297   7.268  0.4732  0.6656  0.4259
 1928TIP3    H129979   3.338   5.385   7.237 -0.3117  1.2296  1.4256
 1928TIP3    H229980   3.304   5.246   7.188  0.2126  1.6406 -0.1742
 1929TIP3   OH229981   7.688   4.507   0.055 -0.1774 -0.5220  0.3400
 1929TIP3    H129982   7.709   4.444  -0.014  0.9075 -0.8121  0.9101
 1929TIP3    H229983   7.712   4.592   0.018 -1.6076 -0.4295 -0.4159
 1930TIP3   OH229984   3.555   2.074   8.795 -0.1350  0.3177 -0.1757
 1930TIP3    H129985   3.592   2.145   8.847  1.5174  0.0745 -0.9375
 1930TIP3    H229986   3.625   2.008   8.794 -0.9483 -0.5505 -0.9682
 1931TIP3   OH229987   2.827   5.170   9.524 -0.2546  0.5321  0.0248
 1931TIP3    H129988   2.780   5.199   9.602 -0.6416 -1.1706  0.4620
 1931TIP3    H229989   2.800   5.079   9.512 -2.0350  1.3455 -3.4454
 1932TIP3   OH229990   0.349   1.764   7.948 -0.5417  0.2367  0.0583
 1932TIP3    H129991   0.369   1.850   7.912  0.4751  1.2915  2.8638
 1932TIP3    H229992   0.431   1.714   7.938  0.5438  1.3032  2.7611
 1933TIP3   OH229993   3.973   6.105   0.264 -0.2257 -0.3280  0.2357
 1933TIP3    H129994   4.019   6.184   0.235  1.9332 -1.5066  0.2816
 1933TIP3    H229995   3.973   6.111   0.360 -0.7883 -0.0248  0.2249
 1934TIP3   OH229996   6.570   5.680   7.373  0.1259 -0.4145  0.1755
 1934TIP3    H129997   6.524   5.605   7.411 -0.8907  0.2324  0.2469
 1934TIP3    H229998   6.535   5.687   7.284 -1.9983  1.7174  1.0802
 1935TIP3   OH229999   3.569   3.127   8.128 -0.0938  0.2081 -0.2841
 1935TIP3    H130000   3.663   3.136   8.113  0.0112 -1.4270 -0.7855
 1935TIP3    H230001   3.532   3.111   8.041 -0.7129 -0.1229  0.0316
 1936TIP3   OH230002   0.426   3.260   8.904  0.5193  0.7943  0.4569
 1936TIP3    H130003   0.400   3.344   8.866 -0.1085 -0.1246 -1.2547
 1936TIP3    H230004   0.512   3.242   8.866 -0.3917 -0.4376 -1.1450
 1937TIP3   OH230005   4.624   2.559   1.704 -0.2725  0.7554  0.0257
 1937TIP3    H130006   4.668   2.544   1.788  0.5188 -1.1734 -0.6771
 1937TIP3    H230007   4.551   2.498   1.704 -0.5120  1.0338 -0.5198
 1938TIP3   OH230008   2.099   6.617   7.747 -0.1864  0.0664 -0.2259
 1938TIP3    H130009   2.108   6.582   7.658 -1.7092 -2.5408  0.5604
 1938TIP3    H230010   2.176   6.585   7.794  0.3740  1.0511 -0.4334
 1939TIP3   OH230011   0.165   1.180   0.760  0.4565 -0.1405  0.4388
 1939TIP3    H130012   0.145   1.220   0.676  0.4854  0.2428  0.6154
 1939TIP3    H230013   0.244   1.129   0.744  0.1704 -0.4870  0.1049
 1940TIP3   OH230014   3.234   0.386   3.164  0.5475  0.2496  0.1062
 1940TIP3    H130015   3.279   0.370   3.247  1.1787  0.0803 -0.2547
 1940TIP3    H230016   3.158   0.438   3.187  1.9690  2.2619  0.5408
 1941TIP3   OH230017   6.817   1.698   2.454  0.0841 -0.2067 -0.3106
 1941TIP3    H130018   6.863   1.689   2.537  1.4147 -0.6123 -1.0655
 1941TIP3    H230019   6.738   1.644   2.464 -0.7970  1.2752  1.3492
 1942TIP3   OH230020   7.517   3.239   8.399  0.4701  0.5426  0.9065
 1942TIP3    H130021   7.528   3.157   8.447  0.0503  0.5641  1.0463
 1942TIP3    H230022   7.594   3.245   8.343  0.2665 -0.1805  0.5486
 1943TIP3   OH230023   0.504   4.208   3.177 -0.0927  0.3855 -0.1632
 1943TIP3    H130024   0.555   4.280   3.140 -0.5510  0.7217 -0.1601
 1943TIP3    H230025   0.430   4.197   3.117  0.7511 -1.0906 -0.9756
 1944TIP3   OH230026   0.243   5.790   1.190 -0.2017 -0.0042  0.0960
 1944TIP3    H130027   0.322   5.800   1.243  0.6581 -2.2992 -0.5940
 1944TIP3    H230028   0.175   5.837   1.238  1.5044  1.8612  0.8186
 1945TIP3   OH230029   3.960   1.120   0.324  0.3289  0.0208 -0.2907
 1945TIP3    H130030   3.904   1.097   0.250  0.7933  0.3714 -0.7500
 1945TIP3    H230031   4.049   1.101   0.295  0.6172  1.2276 -0.2357
 1946TIP3   OH230032   7.264   7.582   0.900  0.6668 -0.3549 -0.0111
 1946TIP3    H130033   7.337   7.640   0.879  0.8139  0.3093  2.0817
 1946TIP3    H230034   7.186   7.636   0.884  0.8045  1.7295  4.6591
 1947TIP3   OH230035   6.563   7.162   9.429 -0.2261 -0.1029  0.0409
 1947TIP3    H130036   6.516   7.079   9.440  1.3206 -1.0772 -0.3682
 1947TIP3    H230037   6.652   7.136   9.404  0.6596  1.6488  1.1413
 1948TIP3   OH230038   6.985   6.085   1.268  0.9325 -0.2299 -0.2342
 1948TIP3    H130039   7.021   6.079   1.179  0.8149  1.6626 -0.4639
 1948TIP3    H230040   6.917   6.153   1.262  1.7699  0.8501  1.5199
 1949TIP3   OH230041   2.786   3.237   0.861 -0.1138 -0.2391 -0.2483
 1949TIP3    H130042   2.798   3.160   0.805  1.4012  0.6049 -1.1476
 1949TIP3    H230043   2.778   3.201   0.950  0.2691 -1.4448 -0.6858
 1950TIP3   OH230044   2.795   6.932   8.556 -0.0723  0.1993  0.6170
 1950TIP3    H130045   2.833   6.860   8.505 -0.0915  0.7608 -0.2237
 1950TIP3    H230046   2.768   6.892   8.638  2.3915 -0.2543  1.3048
 1951TIP3   OH230047   4.446   6.856   9.767  0.4814  0.1793  0.3441
 1951TIP3    H130048   4.475   6.944   9.788 -0.6486  0.2897  1.5124
 1951TIP3    H230049   4.419   6.818   9.851 -0.4110 -0.7620 -0.3359
 1952TIP3   OH230050   3.666   6.973   6.941  0.0190  0.0595 -0.5447
 1952TIP3    H130051   3.758   6.999   6.951 -0.0971  1.3660 -2.3395
 1952TIP3    H230052   3.670   6.884   6.906  0.5116 -0.6813  1.2517
 1953TIP3   OH230053   5.631   1.973   0.142 -0.4137  0.6175 -0.0721
 1953TIP3    H130054   5.692   2.034   0.102  1.2339 -0.0723  1.2540
 1953TIP3    H230055   5.587   2.025   0.210 -0.4593  0.8175 -0.2532
 1954TIP3   OH230056   1.381   6.338   2.003 -0.6493 -0.3423 -0.4088
 1954TIP3    H130057   1.366   6.296   2.088  1.2511 -0.5709 -0.1463
 1954TIP3    H230058   1.383   6.432   2.023 -0.1080 -0.4017 -0.1860
 1955TIP3   OH230059   2.684   5.386   8.671 -0.1235 -0.3020  0.5494
 1955TIP3    H130060   2.654   5.422   8.755 -0.9163  0.8988 -0.2194
 1955TIP3    H230061   2.778   5.400   8.672 -0.2584  0.7337  0.7991
 1956TIP3   OH230062   3.251   7.022   2.123  0.0586  0.3684  0.0002
 1956TIP3    H130063   3.203   6.972   2.188  0.2708  0.4976  0.2610
 1956TIP3    H230064   3.316   6.960   2.089 -0.2170  0.2262 -0.2745
 1957TIP3   OH230065   2.265   0.695   0.425  0.4187  0.2436 -0.1981
 1957TIP3    H130066   2.247   0.604   0.449 -0.3853  0.7335  1.1689
 1957TIP3    H230067   2.185   0.743   0.450  1.1203  1.4472 -0.1892
 1958TIP3   OH230068   6.242   5.201   8.970  0.1311 -0.3495 -0.4358
 1958TIP3    H130069   6.286   5.199   9.055  1.4437  0.0751 -1.0670
 1958TIP3    H230070   6.181   5.128   8.973 -0.2392 -0.0239  1.0565
 1959TIP3   OH230071   0.191   0.424   9.831  0.0667 -0.1570 -0.0335
 1959TIP3    H130072   0.276   0.410   9.789  0.7481  0.7858  0.9643
 1959TIP3    H230073   0.155   0.336   9.842  1.2335 -0.6334  0.1298
 1960TIP3   OH230074   6.030   0.286   2.160  0.5398 -0.3649 -0.3848
 1960TIP3    H130075   5.967   0.353   2.132  0.4683  0.3830  1.4379
 1960TIP3    H230076   6.007   0.267   2.250  1.5231 -1.7709 -0.3952
 1961TIP3   OH230077   0.621   1.130   8.569 -0.0083 -0.4674  0.0712
 1961TIP3    H130078   0.599   1.039   8.550 -0.4966 -0.0729 -1.3754
 1961TIP3    H230079   0.583   1.146   8.655 -3.5784 -0.5091 -1.3059
 1962TIP3   OH230080   1.746   0.694   9.863 -0.2125  0.1060 -0.0598
 1962TIP3    H130081   1.768   0.771   9.811 -1.5427  0.8646  0.4677
 1962TIP3    H230082   1.828   0.644   9.867  0.7450  1.6146 -0.1714
 1963TIP3   OH230083   3.656   3.704   6.897 -0.3594  0.2140  0.5769
 1963TIP3    H130084   3.644   3.795   6.926  0.3367  0.6070 -0.3165
 1963TIP3    H230085   3.567   3.674   6.876 -0.5805  0.7206  0.7590
 1964TIP3   OH230086   4.331   6.940   1.110 -0.1535 -0.2178  0.3389
 1964TIP3    H130087   4.385   7.006   1.066  1.0448  0.4367  2.6668
 1964TIP3    H230088   4.356   6.858   1.067  0.7183  0.4221 -0.4330
 1965TIP3   OH230089   4.756   0.824   6.333  0.6074 -0.3830 -0.1469
 1965TIP3    H130090   4.731   0.741   6.373 -1.8007 -0.0057 -0.7275
 1965TIP3    H230091   4.848   0.835   6.356  0.3656 -2.0814  1.9016
 1966TIP3   OH230092   0.210   3.968   7.243  0.1080 -0.2811  0.5148
 1966TIP3    H130093   0.208   4.038   7.308 -2.5205 -0.5211  0.8091
 1966TIP3    H230094   0.286   3.988   7.189 -0.2627  2.5510  0.8665
 1967TIP3   OH230095   7.640   2.948   9.233  0.8171  0.7538  0.1050
 1967TIP3    H130096   7.598   3.023   9.275  0.1656  1.5296 -1.8276
 1967TIP3    H230097   7.713   2.985   9.184  0.5764  0.1213 -0.7561
 1968TIP3   OH230098   4.206   5.655   7.759  0.5716  0.1046  0.0891
 1968TIP3    H130099   4.178   5.590   7.694  0.9937  0.6667 -0.6715
 1968TIP3    H230100   4.294   5.681   7.730 -0.1825  2.1713 -0.5449
 1969TIP3   OH230101   0.424   3.909   2.613 -0.1432  0.8974  0.2751
 1969TIP3    H130102   0.426   3.940   2.704 -2.6310 -0.3716  0.8568
 1969TIP3    H230103   0.334   3.877   2.601  1.0012 -2.0315 -1.5805
 1970TIP3   OH230104   5.027   0.802   6.407  0.6150 -0.5678  0.0424
 1970TIP3    H130105   5.016   0.721   6.357  1.3239 -1.4792  1.3099
 1970TIP3    H230106   5.045   0.773   6.496  1.8543  0.9667  0.3400
 1971TIP3   OH230107   3.418   0.544   8.905  0.6181 -1.2171  0.1736
 1971TIP3    H130108   3.480   0.602   8.861  0.2430  0.4053  1.6858
 1971TIP3    H230109   3.444   0.456   8.876  0.8256 -0.3462 -2.6638
 1972TIP3   OH230110   1.641   0.537   7.491  0.2500  0.3252 -0.6351
 1972TIP3    H130111   1.673   0.627   7.486  1.8512 -0.2637 -1.9639
 1972TIP3    H230112   1.709   0.490   7.540 -1.2659  0.0863  1.3417
 1973TIP3   OH230113   4.125   6.681   2.132 -0.1003 -0.4691 -0.4098
 1973TIP3    H130114   4.099   6.673   2.040 -0.8551  1.0202 -0.3532
 1973TIP3    H230115   4.044   6.676   2.181 -0.0705  1.7034 -0.0537
 1974TIP3   OH230116   6.811   7.199   7.222 -0.3910  0.3572  0.1073
 1974TIP3    H130117   6.781   7.141   7.153  1.1938 -0.3883 -0.0121
 1974TIP3    H230118   6.794   7.151   7.303  1.9058 -0.8593 -0.0390
 1975TIP3   OH230119   1.158   6.490   9.223 -0.4238  0.2974 -0.0190
 1975TIP3    H130120   1.185   6.534   9.142  0.9785 -0.3754  0.0548
 1975TIP3    H230121   1.063   6.482   9.215 -0.1391 -2.2873 -2.9369
 1976TIP3   OH230122   0.616   5.011   3.416 -0.8197 -0.0449  0.3464
 1976TIP3    H130123   0.706   5.031   3.442  0.1405 -1.4865 -1.6970
 1976TIP3    H230124   0.586   4.946   3.480  0.4952 -1.3979 -0.3553
 1977TIP3   OH230125   1.391   0.430   8.900  0.0205 -0.1250  0.2788
 1977TIP3    H130126   1.407   0.417   8.806  0.1881  2.3336 -0.1000
 1977TIP3    H230127   1.353   0.348   8.929 -0.4610 -0.8069 -2.0461
 1978TIP3   OH230128   0.943   3.296   1.545  0.2742 -0.0898  0.3146
 1978TIP3    H130129   0.847   3.298   1.553  0.3354 -0.9334  1.3832
 1978TIP3    H230130   0.965   3.382   1.507 -0.9044  0.0644 -0.0832
 1979TIP3   OH230131   0.037   3.289   9.828 -0.6624 -0.5792  0.1070
 1979TIP3    H130132   0.018   3.275   9.736 -0.0203 -1.0103  0.0337
 1979TIP3    H230133  -0.037   3.341   9.860  0.3233  1.8318 -1.2521
 1980TIP3   OH230134   1.491   1.910   6.652 -0.3207  0.0131  0.0983
 1980TIP3    H130135   1.451   1.982   6.700 -1.0473  0.8213 -1.6355
 1980TIP3    H230136   1.568   1.948   6.611 -1.0412  0.0051 -1.3272
 1981TIP3   OH230137   5.824   7.416   3.251 -0.0340 -0.2995 -0.1512
 1981TIP3    H130138   5.766   7.343   3.231  0.1160 -0.1506 -1.1522
 1981TIP3    H230139   5.780   7.463   3.322 -1.4861  0.1908 -1.3245
 1982TIP3   OH230140   3.280   1.283   1.092 -0.4609  0.0802  0.6340
 1982TIP3    H130141   3.224   1.360   1.104 -0.9740 -0.1925  0.0549
 1982TIP3    H230142   3.275   1.236   1.175 -0.3477  0.5377  0.9022
 1983TIP3   OH230143   3.714   7.095   8.321  0.0730 -0.4136 -0.5022
 1983TIP3    H130144   3.758   7.011   8.336  0.2673 -0.3589 -0.7697
 1983TIP3    H230145   3.778   7.147   8.272 -0.0572 -0.1176 -0.3615
 1984TIP3   OH230146   2.916   7.210   1.427 -0.7570  0.0436 -0.1178
 1984TIP3    H130147   2.875   7.268   1.362 -0.2149 -0.0747 -0.5805
 1984TIP3    H230148   2.843   7.169   1.473 -1.1476  1.3086  0.4210
 1985TIP3   OH230149   0.752   2.048   1.608 -0.4546 -0.1149  0.2532
 1985TIP3    H130150   0.808   2.004   1.544  1.0227  1.1282  0.6238
 1985TIP3    H230151   0.789   2.026   1.693  0.4636  1.9215  0.4432
 1986TIP3   OH230152   2.046   0.317   7.249  0.0234 -0.3957  0.4873
 1986TIP3    H130153   2.116   0.312   7.314  0.8777 -0.0543 -0.3817
 1986TIP3    H230154   2.026   0.410   7.243  0.9496 -0.2530 -0.7493
 1987TIP3   OH230155   0.454   6.479   9.432  0.3159 -0.2772 -0.6387
 1987TIP3    H130156   0.411   6.427   9.364 -2.3562 -1.2682  1.6294
 1987TIP3    H230157   0.545   6.484   9.404  0.0304 -3.3879 -2.6554
 1988TIP3   OH230158   0.297   5.530   0.597 -0.2078 -0.0757 -0.2688
 1988TIP3    H130159   0.375   5.578   0.624 -1.6076  2.7209 -0.7817
 1988TIP3    H230160   0.224   5.585   0.626 -1.9234 -1.2205 -2.1429
 1989TIP3   OH230161   6.833   1.037   0.121 -0.2502 -0.2630 -0.0385
 1989TIP3    H130162   6.876   0.953   0.109 -0.9107 -0.3045 -3.0082
 1989TIP3    H230163   6.741   1.016   0.134 -0.4762 -0.0356 -1.1553
 1990TIP3   OH230164   7.200   6.403   2.203  0.2731  0.1483 -0.4530
 1990TIP3    H130165   7.269   6.350   2.243  0.7827  1.3043  0.2535
 1990TIP3    H230166   7.226   6.410   2.111 -0.1752 -1.3760 -0.7242
 1991TIP3   OH230167   0.893   1.469   0.477 -0.1608 -0.3356 -0.3183
 1991TIP3    H130168   0.962   1.533   0.499 -0.3502 -0.5258  0.9381
 1991TIP3    H230169   0.815   1.522   0.464  0.1163 -0.1547 -1.3129
 1992TIP3   OH230170   0.059   6.842   9.145  0.0532 -0.1626  0.0108
 1992TIP3    H130171   0.152   6.836   9.170 -0.5955 -2.9656  2.3473
 1992TIP3    H230172   0.015   6.780   9.203 -3.0704 -0.2989 -2.2556
 1993TIP3   OH230173   0.651   0.657   9.839  0.2278  0.2973  0.5319
 1993TIP3    H130174   0.707   0.582   9.821 -1.6777 -1.0618 -0.1379
 1993TIP3    H230175   0.667   0.679   9.931  1.4004 -0.4183  0.5076
 1994TIP3   OH230176   0.842   7.405   1.107  0.1056  0.0740 -0.4982
 1994TIP3    H130177   0.845   7.356   1.024 -0.5668 -0.3366 -0.2897
 1994TIP3    H230178   0.849   7.497   1.081  0.5085 -0.0833 -0.9643
 1995TIP3   OH230179   0.604   1.398   1.574 -0.4140 -0.1549 -0.0684
 1995TIP3    H130180   0.520   1.395   1.620 -0.4595 -0.3602 -0.1604
 1995TIP3    H230181   0.670   1.397   1.643 -0.4827 -0.3737 -0.0033
 1996TIP3   OH230182   0.146   2.838   7.602 -0.4740  0.3387  0.3073
 1996TIP3    H130183   0.151   2.907   7.668  0.2909  0.5650  0.0257
 1996TIP3    H230184   0.154   2.757   7.651 -2.0877  0.3938  0.7253
 1997TIP3   OH230185   4.864   3.992   9.955 -0.0657 -0.2025  0.0721
 1997TIP3    H130186   4.903   3.926   9.898 -0.4307  0.0344 -0.4509
 1997TIP3    H230187   4.809   4.044   9.898  0.6632  0.9265  0.3644
 1998TIP3   OH230188   5.436   5.600   7.790  0.2631  0.2554 -0.0184
 1998TIP3    H130189   5.349   5.584   7.752  0.3821  0.4081 -0.3609
 1998TIP3    H230190   5.454   5.523   7.843  0.0514  0.0837 -0.1969
 1999TIP3   OH230191   6.033   6.517   8.138 -0.4014  0.8485 -0.3220
 1999TIP3    H130192   6.025   6.556   8.225 -1.7378 -0.1577  0.0360
 1999TIP3    H230193   6.030   6.423   8.154 -0.3905  0.6508 -1.4298
 2000TIP3   OH230194   3.792   5.603   9.750 -0.6858 -0.7356  0.3792
 2000TIP3    H130195   3.727   5.667   9.719  0.0062  0.7992  1.9011
 2000TIP3    H230196   3.799   5.620   9.844  0.5690 -2.1375  0.5709
 2001TIP3   OH230197   7.468   4.378   9.115  0.1553  0.0960 -0.0713
 2001TIP3    H130198   7.402   4.399   9.049 -0.2415 -1.0375 -0.0616
 2001TIP3    H230199   7.486   4.462   9.158  2.6948  1.5318 -3.5454
 2002TIP3   OH230200   4.590   0.352   7.449 -0.0341  0.2061 -0.1846
 2002TIP3    H130201   4.665   0.355   7.389  0.5541 -1.0707  0.4326
 2002TIP3    H230202   4.630   0.332   7.534 -0.9671  0.8258  0.4122
 2003TIP3   OH230203   7.153   5.586   9.883 -0.0386 -0.4479  0.7404
 2003TIP3    H130204   7.232   5.558   9.928  0.2121 -1.9890 -0.5804
 2003TIP3    H230205   7.183   5.623   9.801 -0.5964  0.8668  1.0949
 2004TIP3   OH230206   5.762   2.771   9.491  0.2838  0.4007  0.2784
 2004TIP3    H130207   5.852   2.800   9.479  0.1146  1.0440  0.5780
 2004TIP3    H230208   5.766   2.710   9.564  0.2995  1.2885  1.0302
 2005TIP3   OH230209   3.313   0.109   0.499 -0.1673 -0.0581  0.7504
 2005TIP3    H130210   3.240   0.169   0.488 -0.9190 -0.5730  2.5790
 2005TIP3    H230211   3.275   0.022   0.488  0.1741 -0.3218  1.5587
 2006TIP3   OH230212   3.550   0.899   6.820  0.8214  0.0185 -0.2143
 2006TIP3    H130213   3.519   0.898   6.730  1.7714  1.3734 -0.5956
 2006TIP3    H230214   3.506   0.973   6.860 -0.9762 -1.6216  1.0088
 2007TIP3   OH230215   4.132   0.240   9.360 -0.6091 -0.2066 -0.6462
 2007TIP3    H130216   4.134   0.330   9.391 -0.0528 -0.5878  0.4558
 2007TIP3    H230217   4.147   0.247   9.265 -0.6266  0.8544 -0.5799
 2008TIP3   OH230218   6.415   3.291   7.866  0.1636 -0.5535  0.5730
 2008TIP3    H130219   6.369   3.353   7.809  1.4046 -2.2592 -2.4897
 2008TIP3    H230220   6.346   3.234   7.900 -0.4151 -0.8248 -0.9824
 2009TIP3   OH230221   7.683   5.452   8.895  0.7204  0.2331  0.5965
 2009TIP3    H130222   7.694   5.546   8.884  0.6672  0.4756  2.2998
 2009TIP3    H230223   7.766   5.414   8.868  0.8158  0.7889  0.1046
 2010TIP3   OH230224   4.523   3.592   8.341  0.5339  0.2355 -0.2246
 2010TIP3    H130225   4.595   3.608   8.281 -1.7471  2.1998 -2.6877
 2010TIP3    H230226   4.445   3.588   8.286 -1.6053  0.8482  2.4948
 2011TIP3   OH230227   3.896   2.552   7.907 -0.1250  0.5508  0.8099
 2011TIP3    H130228   3.834   2.566   7.835  0.5985 -1.0877 -0.1989
 2011TIP3    H230229   3.982   2.567   7.867  0.2534  0.5999  1.6185
 2012TIP3   OH230230   6.654   3.253   8.527  0.6881 -0.1964 -0.0411
 2012TIP3    H130231   6.677   3.255   8.434  0.6211  1.0259 -0.0432
 2012TIP3    H230232   6.726   3.297   8.571 -0.2722  1.1673  0.2411
 2013TIP3   OH230233   0.044   0.607   7.879  0.2478  0.2995  0.2537
 2013TIP3    H130234   0.054   0.539   7.945  0.3313 -0.1140 -0.1814
 2013TIP3    H230235   0.133   0.632   7.856  0.2264  0.0296 -0.1255
 2014TIP3   OH230236   6.576   0.818   1.129 -0.1428  0.9782  0.1947
 2014TIP3    H130237   6.546   0.894   1.080  2.6520  1.0220 -1.6672
 2014TIP3    H230238   6.666   0.839   1.155  0.5226 -1.4133  0.1316
 2015TIP3   OH230239   3.124   3.311   9.867  0.5056 -0.0473 -0.1206
 2015TIP3    H130240   3.209   3.268   9.852 -0.9470 -2.7925 -1.2958
 2015TIP3    H230241   3.117   3.375   9.796  0.8848 -1.0442 -1.1009
 2016TIP3   OH230242   4.738   3.763   8.737 -0.9070  0.2323  0.2579
 2016TIP3    H130243   4.777   3.836   8.689 -0.9031  1.0819  1.5217
 2016TIP3    H230244   4.667   3.732   8.680 -1.5763  1.8862  0.1311
 2017TIP3   OH230245   4.455   5.165   8.843  0.5146 -0.3408  0.4110
 2017TIP3    H130246   4.392   5.097   8.819 -2.4040  1.4738  2.3133
 2017TIP3    H230247   4.463   5.219   8.764  0.6487 -1.2392 -0.2096
 2018TIP3   OH230248   4.365   5.309   8.165  0.2319  0.2029 -0.0589
 2018TIP3    H130249   4.351   5.215   8.176 -0.5423  0.3858  0.5989
 2018TIP3    H230250   4.402   5.338   8.248 -0.5417  0.6520  0.1459
 2019TIP3   OH230251   4.283   1.214   7.361  0.2900 -0.2296 -0.1098
 2019TIP3    H130252   4.377   1.229   7.352 -0.0688  0.6471 -3.8190
 2019TIP3    H230253   4.248   1.299   7.388  0.3643 -0.0889 -0.4640
 2020TIP3   OH230254   7.514   3.639   0.271 -0.2860  0.3195  0.3298
 2020TIP3    H130255   7.578   3.568   0.257  0.2749  0.6714  1.0553
 2020TIP3    H230256   7.497   3.673   0.184 -1.5670 -1.5671 -0.2086
 2021TIP3   OH230257   6.433   3.567   0.062 -0.1865  0.0545 -0.1514
 2021TIP3    H130258   6.453   3.595   0.151  1.1002  1.0320 -0.7088
 2021TIP3    H230259   6.480   3.629   0.006  1.5900 -2.3099 -1.4870
 2022TIP3   OH230260   5.615   5.977   8.251 -0.3735 -0.3992 -0.6255
 2022TIP3    H130261   5.527   5.988   8.218  0.1231 -2.0623 -2.6847
 2022TIP3    H230262   5.612   5.895   8.300 -0.6021  1.0112  1.8965
 2023TIP3   OH230263   6.666   1.214   2.050  0.0383  0.1354  0.4869
 2023TIP3    H130264   6.743   1.264   2.025 -0.1950  0.1561 -0.2442
 2023TIP3    H230265   6.650   1.237   2.141  1.7651 -1.0253  1.1165
 2024TIP3   OH230266   1.871   6.500   1.160 -0.7389 -0.2233  0.4154
 2024TIP3    H130267   1.961   6.510   1.130 -0.8082  1.1487  0.6009
 2024TIP3    H230268   1.833   6.435   1.102  0.6285 -1.5202  0.9265
 2025TIP3   OH230269   2.086   3.148   0.237 -0.2804 -0.2491 -0.9673
 2025TIP3    H130270   2.156   3.199   0.278 -0.6042 -1.0890  0.7047
 2025TIP3    H230271   2.130   3.101   0.166  0.7852 -0.4602 -0.1971
 2026TIP3   OH230272   5.017   7.030   0.990 -0.3159 -0.0992 -0.0965
 2026TIP3    H130273   5.020   6.989   0.903  0.4740  0.6014 -0.4128
 2026TIP3    H230274   4.932   7.075   0.992 -0.7430 -0.8876 -0.1372
 2027TIP3   OH230275   3.037   0.810   8.723 -0.0013  0.2192 -0.5294
 2027TIP3    H130276   3.084   0.787   8.803  0.8432  1.4297 -0.6385
 2027TIP3    H230277   3.102   0.858   8.671 -1.2857  1.8211 -0.7466
 2028TIP3   OH230278   5.633   2.486   0.232  1.0200  0.7832 -0.3651
 2028TIP3    H130279   5.670   2.463   0.317  1.7891 -0.9948 -1.1244
 2028TIP3    H230280   5.708   2.512   0.179  0.6069  1.3934 -0.6615
 2029TIP3   OH230281   6.435   3.729   0.308 -0.1978 -0.9409 -0.0668
 2029TIP3    H130282   6.379   3.673   0.362  0.7221 -0.8669  1.0065
 2029TIP3    H230283   6.470   3.793   0.369 -0.2713  0.0612 -1.0533
 2030TIP3   OH230284   0.698   6.040   0.189 -0.1905 -0.3712  0.1901
 2030TIP3    H130285   0.783   6.058   0.228  0.4829 -0.8722 -0.9783
 2030TIP3    H230286   0.670   5.958   0.229 -0.9910  0.6858  1.9027
 2031TIP3   OH230287   1.650   5.830   1.458  0.1224  0.7652  0.0409
 2031TIP3    H130288   1.655   5.905   1.517 -2.9940  1.5575 -0.5202
 2031TIP3    H230289   1.614   5.759   1.511 -0.1841  0.6929 -0.2587
 2032TIP3   OH230290   4.661   5.010   0.085 -0.3140  0.1968  0.0813
 2032TIP3    H130291   4.623   4.934   0.041  0.5369 -0.0014 -0.3378
 2032TIP3    H230292   4.645   5.083   0.024 -1.5267  0.4590  0.6841
 2033TIP3   OH230293   0.290   5.651   2.039 -0.0091 -0.1402 -0.1640
 2033TIP3    H130294   0.321   5.601   2.115 -0.9597 -3.5718 -1.8236
 2033TIP3    H230295   0.354   5.632   1.970 -0.5118  0.8299 -0.9232
 2034TIP3   OH230296   4.660   2.361   7.148 -0.3630 -0.1194  0.3810
 2034TIP3    H130297   4.749   2.378   7.180  0.4490  0.1305 -1.8319
 2034TIP3    H230298   4.620   2.448   7.139 -0.3687 -0.1450  0.1531
 2035TIP3   OH230299   5.981   5.562   9.555  0.5287  0.1560  0.0413
 2035TIP3    H130300   5.910   5.562   9.619  0.2039 -0.8012 -0.2967
 2035TIP3    H230301   5.988   5.653   9.527 -1.2641  0.1395 -0.6454
 2036TIP3   OH230302   7.320   7.445   7.397  0.3632  0.2730  0.3418
 2036TIP3    H130303   7.346   7.367   7.446 -1.0129  0.1727  0.9650
 2036TIP3    H230304   7.402   7.487   7.374  1.0970 -0.2050  1.9197
 2037TIP3   OH230305   5.369   0.835   9.180 -0.1513 -0.8855 -0.1697
 2037TIP3    H130306   5.377   0.888   9.101  0.7378  0.6805  0.9057
 2037TIP3    H230307   5.380   0.745   9.150  1.2127 -0.2603 -1.7174
 2038TIP3   OH230308  -0.008   1.398   8.237 -0.0478 -0.3421 -0.1642
 2038TIP3    H130309  -0.056   1.367   8.161 -1.8996 -0.0078  0.8102
 2038TIP3    H230310   0.079   1.419   8.204 -0.4575 -1.2543 -1.9387
 2039TIP3   OH230311   1.810   4.196   1.015  0.1439 -0.2470  0.4079
 2039TIP3    H130312   1.766   4.187   0.931  0.0427 -0.3125  0.4671
 2039TIP3    H230313   1.893   4.148   1.004 -0.3682 -1.2260  0.6993
 2040TIP3   OH230314   4.489   3.382   0.086  0.5208  0.4411  0.0040
 2040TIP3    H130315   4.409   3.335   0.063  1.2073 -0.5578 -0.3952
 2040TIP3    H230316   4.470   3.473   0.065 -1.1375  0.5294  1.5913
 2041TIP3   OH230317   6.835   5.832   9.263 -0.0552 -0.3023 -0.8027
 2041TIP3    H130318   6.900   5.775   9.304  0.6657 -0.5966 -2.2778
 2041TIP3    H230319   6.842   5.914   9.311  1.4925 -0.2999 -0.9737
 2042TIP3   OH230320   6.883   1.839   2.097  0.1974 -0.4721  0.4349
 2042TIP3    H130321   6.863   1.776   2.028 -0.9392 -0.4776  0.7530
 2042TIP3    H230322   6.798   1.872   2.126  0.6204 -0.7039  2.0609
 2043TIP3   OH230323   1.085   4.809   0.061  0.7729  0.1922 -0.6002
 2043TIP3    H130324   1.022   4.765   0.119  2.6918  0.2158  1.6411
 2043TIP3    H230325   1.067   4.902   0.073  0.3140  0.1785 -1.1117
 2044TIP3   OH230326   5.418   6.372   0.437 -0.0156 -0.0240  0.0880
 2044TIP3    H130327   5.410   6.375   0.341 -1.0505  1.6428  0.1753
 2044TIP3    H230328   5.505   6.336   0.452  0.4304  0.2671 -1.5084
 2045TIP3   OH230329   4.485   1.950   9.857 -0.0277 -0.0206  0.5897
 2045TIP3    H130330   4.577   1.976   9.848  1.1442 -2.3428  3.7600
 2045TIP3    H230331   4.436   2.032   9.856  2.3198  1.4785  0.9539
 2046TIP3   OH230332   0.257   0.153   8.794 -0.1972  0.3990 -0.0276
 2046TIP3    H130333   0.234   0.233   8.842 -0.6002 -0.1837  0.7701
 2046TIP3    H230334   0.237   0.174   8.703  0.8511  1.6222 -0.0011
 2047TIP3   OH230335   1.982   2.262   2.034 -0.0985  0.2652 -0.0621
 2047TIP3    H130336   1.985   2.172   2.002  0.0651 -0.3750  1.6071
 2047TIP3    H230337   2.073   2.292   2.030 -0.1053  0.2509 -0.3337
 2048TIP3   OH230338   0.204   5.679   9.286 -0.7250 -0.6415 -0.0656
 2048TIP3    H130339   0.209   5.642   9.197  2.4176  0.6311 -0.5429
 2048TIP3    H230340   0.239   5.609   9.342  0.4012 -0.2777 -0.2956
 2049TIP3   OH230341   5.805   0.783   8.171  0.6116 -0.4541 -0.1784
 2049TIP3    H130342   5.805   0.861   8.227  0.4152  0.0484 -0.8696
 2049TIP3    H230343   5.827   0.711   8.231  1.0982  0.1678  0.4145
 2050TIP3   OH230344   1.859   4.740   0.589 -0.1879  0.1620 -0.2985
 2050TIP3    H130345   1.793   4.804   0.615  1.3169  2.3184 -1.5300
 2050TIP3    H230346   1.862   4.678   0.662 -1.8956  1.3151  0.8144
 2051TIP3   OH230347   3.601   5.159   0.573  0.2624  0.1579  0.1647
 2051TIP3    H130348   3.660   5.088   0.600  0.5256 -0.3355 -1.6202
 2051TIP3    H230349   3.514   5.127   0.597  0.2510 -1.3321 -1.6045
 2052TIP3   OH230350   4.985   6.540   0.029  0.3595 -1.0153  0.2724
 2052TIP3    H130351   5.068   6.497   0.008 -0.8381 -3.8063  0.7581
 2052TIP3    H230352   4.975   6.527   0.123 -0.2866 -0.0570  0.3439
 2053TIP3   OH230353   1.179   5.710   2.529  0.6071  0.2478 -0.0898
 2053TIP3    H130354   1.234   5.767   2.583 -0.6316  1.2107  0.2156
 2053TIP3    H230355   1.213   5.722   2.440  0.8953  0.8399  0.0901
 2054TIP3   OH230356   0.269   0.933   9.234  0.5314  0.3240  0.0071
 2054TIP3    H130357   0.264   0.880   9.313  1.0101 -0.2926 -0.3678
 2054TIP3    H230358   0.190   0.909   9.184  0.8666 -0.2187 -0.2698
 2055TIP3   OH230359   4.079   3.628   7.967  0.2581 -0.2489 -0.0939
 2055TIP3    H130360   4.023   3.568   8.016 -0.8488 -1.4851 -2.7102
 2055TIP3    H230361   4.052   3.715   7.996  0.3144 -0.8827  2.0935
 2056TIP3   OH230362   6.903   2.971   1.985  0.5292  0.0398 -0.0503
 2056TIP3    H130363   6.863   2.941   1.903 -0.7661  1.2534  0.0867
 2056TIP3    H230364   6.986   2.924   1.991 -0.5827 -2.1374 -0.6863
 2057TIP3   OH230365   1.502   1.245   1.167  0.3558  0.3618 -0.0783
 2057TIP3    H130366   1.445   1.220   1.240  2.2469  0.9245  1.6875
 2057TIP3    H230367   1.552   1.166   1.148 -1.5990 -0.4627 -2.3519
 2058TIP3   OH230368   4.518   1.137   7.813 -0.4689 -0.2537  0.6538
 2058TIP3    H130369   4.525   1.221   7.767 -1.1172 -0.9396 -0.7815
 2058TIP3    H230370   4.595   1.087   7.783 -0.2385 -0.2784  1.2771
 2059TIP3   OH230371   2.941   5.261   8.791  0.0304 -1.0160  0.1005
 2059TIP3    H130372   2.899   5.225   8.869  0.8586 -1.5984  0.2903
 2059TIP3    H230373   2.977   5.345   8.819  1.0641 -1.6062  0.5913
 2060TIP3   OH230374   7.001   1.441   9.233  0.3029  0.1447  0.2388
 2060TIP3    H130375   7.005   1.518   9.290  0.6917  0.1402  0.2244
 2060TIP3    H230376   7.093   1.418   9.218  0.2304  0.6999 -1.1618
 2061TIP3   OH230377   0.033   5.537   6.941  0.1368  0.5895  0.4630
 2061TIP3    H130378   0.081   5.491   7.010  0.3480  0.0164 -0.0503
 2061TIP3    H230379   0.100   5.591   6.898  0.1205  0.5254  0.3575
 2062TIP3   OH230380   4.733   0.803   7.702  0.1248  0.0817 -0.3880
 2062TIP3    H130381   4.664   0.738   7.712 -1.1359  1.7267  4.2014
 2062TIP3    H230382   4.810   0.764   7.745 -0.6901  1.4007  2.5625
 2063TIP3   OH230383   6.966   0.491   8.288  0.0673  0.1166  0.5793
 2063TIP3    H130384   6.974   0.454   8.200  1.0334  0.3233  0.5708
 2063TIP3    H230385   6.899   0.437   8.331 -2.7986  1.9220 -1.2551
 2064TIP3   OH230386   5.105   6.326   0.743  0.0075 -0.0800 -0.1652
 2064TIP3    H130387   5.070   6.402   0.790 -1.0335  0.3208 -1.4971
 2064TIP3    H230388   5.155   6.278   0.808  0.0344  1.3390  0.9108
 2065TIP3   OH230389   0.384   1.758   9.972  0.5802  0.0300 -0.1560
 2065TIP3    H130390   0.345   1.837   9.933  1.5475  1.0332  0.8227
 2065TIP3    H230391   0.345   1.753  10.059  1.5503  0.2336  0.2990
 2066TIP3   OH230392   0.706   3.590   1.711  0.0743 -0.2982 -0.0953
 2066TIP3    H130393   0.696   3.514   1.653  1.4785 -2.5736  2.4703
 2066TIP3    H230394   0.800   3.604   1.717  0.0416 -0.7081  2.2639
 2067TIP3   OH230395   0.932   0.986   9.175 -0.1021 -0.3162 -0.2758
 2067TIP3    H130396   0.974   0.900   9.175 -0.5921 -0.5609 -0.3935
 2067TIP3    H230397   0.855   0.974   9.231  1.1817  0.7252  1.8406
 2068TIP3   OH230398   6.984   2.820   9.541 -0.4853  0.4142  0.6704
 2068TIP3    H130399   7.014   2.882   9.475  0.0802 -0.3225  0.2113
 2068TIP3    H230400   7.058   2.811   9.601 -0.6991  0.4666  0.9422
 2069TIP3   OH230401   6.693   6.449   0.002 -0.4795  0.1398 -0.3762
 2069TIP3    H130402   6.785   6.423   0.002 -0.1249  1.2314 -2.2200
 2069TIP3    H230403   6.655   6.402   0.076  1.7602  0.4048  1.0499
 2070TIP3   OH230404   1.077   0.875   7.916  0.6108 -0.4236  0.1483
 2070TIP3    H130405   1.113   0.952   7.873 -1.2527  0.2671 -0.3010
 2070TIP3    H230406   1.125   0.867   7.998  0.6121  1.4449  0.3629
 2071TIP3   OH230407   6.377   7.015   8.326  0.0937  0.0623  0.1225
 2071TIP3    H130408   6.327   7.075   8.380  2.5117  2.5878 -0.1826
 2071TIP3    H230409   6.463   7.011   8.369  0.2037 -2.7949 -0.2166
 2072TIP3   OH230410   2.407   6.209   1.249  0.1185 -0.0998 -0.3325
 2072TIP3    H130411   2.376   6.119   1.260 -0.1490  0.1471  1.0463
 2072TIP3    H230412   2.453   6.208   1.165 -1.3873 -1.1004 -1.1869
 2073TIP3   OH230413   1.845   0.897   1.946 -0.0702 -0.1331 -0.0334
 2073TIP3    H130414   1.788   0.973   1.931 -0.3248  0.3440  2.8531
 2073TIP3    H230415   1.890   0.916   2.028  0.0214 -3.0202  0.6875
 2074TIP3   OH230416   1.517   3.050   8.005  0.1294  0.0688 -0.3251
 2074TIP3    H130417   1.488   3.003   7.927  1.8406  1.1361 -1.6796
 2074TIP3    H230418   1.486   3.140   7.991 -0.6681  0.0064  0.8810
 2075TIP3   OH230419   7.343   3.146   0.907 -0.0022  0.9413 -0.5819
 2075TIP3    H130420   7.351   3.182   0.996  1.7838  0.8419 -0.6529
 2075TIP3    H230421   7.328   3.223   0.851  3.1185  1.6354 -0.6532
 2076TIP3   OH230422   7.186   4.302   8.168 -0.4718 -0.5550  0.3016
 2076TIP3    H130423   7.164   4.336   8.255 -1.3808  1.0303 -0.5179
 2076TIP3    H230424   7.257   4.359   8.137 -0.1221 -1.1376  0.0131
 2077TIP3   OH230425   0.741   5.247   0.181  0.6750 -0.1236  0.1098
 2077TIP3    H130426   0.648   5.226   0.194  0.1770  1.5966 -0.3719
 2077TIP3    H230427   0.775   5.263   0.269  0.1344  0.5981  0.2054
 2078TIP3   OH230428   6.832   5.497   2.830  0.0791 -0.6042  0.2705
 2078TIP3    H130429   6.742   5.516   2.804  0.2922 -0.4945 -0.4169
 2078TIP3    H230430   6.831   5.502   2.925 -0.3607  0.6996  0.2201
 2079TIP3   OH230431   3.874   7.628   2.311  0.4012 -0.1956 -0.2581
 2079TIP3    H130432   3.881   7.555   2.250  0.4273 -1.2203  0.9200
 2079TIP3    H230433   3.796   7.676   2.284  1.2188  0.2437 -1.9634
 2080TIP3   OH230434   0.292   6.775   8.032  0.0305 -0.3892 -0.0358
 2080TIP3    H130435   0.359   6.742   8.092  1.7305 -0.5842 -1.9269
 2080TIP3    H230436   0.305   6.870   8.032 -0.8674 -0.2590  0.8966
 2081TIP3   OH230437   2.752   2.683   8.469 -0.2989 -0.4795  0.3480
 2081TIP3    H130438   2.777   2.590   8.461  1.4947  0.1294 -2.3520
 2081TIP3    H230439   2.758   2.717   8.380 -0.4646  2.3706  1.3432
 2082TIP3   OH230440   5.876   6.214   0.100  0.5219 -0.0985  0.2572
 2082TIP3    H130441   5.901   6.305   0.111  1.4732 -0.3411  0.1844
 2082TIP3    H230442   5.958   6.165   0.105  0.3562 -0.7439 -2.0110
 2083TIP3   OH230443   2.426   1.500   9.059  0.2195  0.0058 -0.2984
 2083TIP3    H130444   2.383   1.578   9.096  0.4829  0.9910 -1.9970
 2083TIP3    H230445   2.409   1.505   8.965  2.3652 -0.6590 -0.7665
 2084TIP3   OH230446   3.796   0.215   6.728  0.0782 -0.1049  0.1904
 2084TIP3    H130447   3.856   0.283   6.756 -0.5877 -0.1255  1.7769
 2084TIP3    H230448   3.713   0.236   6.771 -0.0728 -2.0666  0.9869
 2085TIP3   OH230449   1.637   5.212   0.662  0.3290  0.1240 -0.4989
 2085TIP3    H130450   1.698   5.239   0.593  0.4869 -0.3795 -0.5575
 2085TIP3    H230451   1.662   5.266   0.738  1.4449 -0.6964 -0.2520
 2086TIP3   OH230452   7.077   2.841   1.241 -0.0574  0.1081 -0.0230
 2086TIP3    H130453   7.064   2.936   1.244  0.5848  0.1889  0.5706
 2086TIP3    H230454   7.171   2.830   1.226  0.5386 -0.3783  3.1723
 2087TIP3   OH230455   0.335   5.305   2.426 -0.5149 -0.1473 -0.2435
 2087TIP3    H130456   0.413   5.250   2.436  0.1380  0.3707 -2.0245
 2087TIP3    H230457   0.274   5.252   2.375 -1.6336 -0.7833  1.6542
 2088TIP3   OH230458   0.501   2.917   0.910  0.5920 -0.2898  0.9105
 2088TIP3    H130459   0.505   2.834   0.862  1.6101  1.0039 -1.4702
 2088TIP3    H230460   0.565   2.907   0.980  1.7927 -1.0741 -0.2284
 2089TIP3   OH230461   0.290   4.443   1.498  0.2338  0.5298 -0.1995
 2089TIP3    H130462   0.383   4.438   1.520  0.5730  1.4901 -1.3073
 2089TIP3    H230463   0.285   4.508   1.428 -0.9647 -1.2044 -1.8346
 2090TIP3   OH230464   1.151   3.733   8.679 -0.5066 -0.0217  0.2618
 2090TIP3    H130465   1.198   3.649   8.675  0.5072  0.4975  0.8803
 2090TIP3    H230466   1.151   3.756   8.772 -1.1608  0.4637  0.1451
 2091TIP3   OH230467   0.075   6.290   8.644 -0.7037 -0.8709 -0.2108
 2091TIP3    H130468   0.089   6.349   8.569  0.9670 -0.4874  0.3557
 2091TIP3    H230469   0.133   6.216   8.627 -0.6446 -0.9900  0.4963
 2092TIP3   OH230470   1.426   5.130   8.724  0.6924 -0.6485 -0.4136
 2092TIP3    H130471   1.477   5.058   8.760 -0.2525 -0.4601  1.3875
 2092TIP3    H230472   1.359   5.087   8.670 -0.6647 -1.2569  1.6567
 2093TIP3   OH230473   1.946   3.105   0.734 -0.5232  0.0963 -0.5270
 2093TIP3    H130474   1.972   3.104   0.826 -0.5500  1.3095 -0.4953
 2093TIP3    H230475   1.971   3.018   0.701  1.2054  0.3058  0.1528
 2094TIP3   OH230476   3.937   1.132   9.275  0.0009 -0.2093  0.1151
 2094TIP3    H130477   3.888   1.081   9.340  0.5192  1.2864  1.7538
 2094TIP3    H230478   4.027   1.103   9.285  0.4175  1.3709  1.5299
 2095TIP3   OH230479   1.045   0.040   8.513 -0.7531 -0.3973 -0.0296
 2095TIP3    H130480   1.058   0.068   8.604  1.4594  1.8579 -0.9581
 2095TIP3    H230481   1.075  -0.051   8.512 -0.4167 -0.3296  1.3849
 2096TIP3   OH230482   0.676   3.897   2.058  0.2130 -0.5003 -0.0640
 2096TIP3    H130483   0.692   3.829   1.992 -0.8382  1.0216 -1.9719
 2096TIP3    H230484   0.583   3.889   2.078  0.1460  0.1793 -0.0907
 2097TIP3   OH230485   0.468   1.679   0.729  0.1650  0.3229 -0.1216
 2097TIP3    H130486   0.466   1.608   0.665  3.0571  0.1025 -0.0621
 2097TIP3    H230487   0.450   1.636   0.813 -0.4506  0.0931 -0.3623
 2098TIP3   OH230488   2.410   4.006   9.711  0.6320 -0.7533 -0.5561
 2098TIP3    H130489   2.370   3.938   9.764  0.3711 -0.6829 -0.6590
 2098TIP3    H230490   2.336   4.052   9.670  0.8309 -0.9132 -1.1106
 2099TIP3   OH230491   0.862   3.604   0.502 -0.1747 -0.0431  0.1289
 2099TIP3    H130492   0.779   3.644   0.475 -0.5290 -0.7181  0.1909
 2099TIP3    H230493   0.877   3.638   0.590 -1.7687 -1.9164  1.2237
 2100TIP3   OH230494   6.272   6.628   1.612  0.0213 -0.7868  0.1986
 2100TIP3    H130495   6.180   6.607   1.599  0.0114 -1.6188  1.4546
 2100TIP3    H230496   6.273   6.721   1.634 -0.2301 -0.0935 -2.3869
 2101TIP3   OH230497   6.698   0.285   1.611 -0.0661  0.0481 -0.4726
 2101TIP3    H130498   6.759   0.258   1.680 -1.1638  1.3719  1.0915
 2101TIP3    H230499   6.753   0.320   1.542  0.9645  1.7514  1.1505
 2102TIP3   OH230500   0.542   2.302   8.748  0.4641 -0.2031  0.0133
 2102TIP3    H130501   0.461   2.344   8.718 -0.1877 -0.4961  1.2998
 2102TIP3    H230502   0.599   2.303   8.671 -0.2787  1.1858 -0.5652
 2103TIP3   OH230503   6.798   1.249   9.245  0.6741  0.3655  0.4853
 2103TIP3    H130504   6.877   1.303   9.252 -0.5630  3.0381 -3.2588
 2103TIP3    H230505   6.731   1.298   9.291  0.0093  1.0560 -1.1552
 2104TIP3   OH230506   2.576   4.261   0.932 -0.0024 -0.3664  0.1047
 2104TIP3    H130507   2.645   4.197   0.914 -0.7205 -1.2370  0.3783
 2104TIP3    H230508   2.613   4.344   0.903  0.3764 -1.1212 -1.6979
 2105TIP3   OH230509   0.751   6.281   9.586 -0.2190 -0.7148  0.1060
 2105TIP3    H130510   0.815   6.228   9.539  1.8833  1.1663  0.6785
 2105TIP3    H230511   0.666   6.244   9.561  1.0524 -3.6076 -0.3309
 2106TIP3   OH230512   3.719   2.490   1.920 -0.4312 -0.0209 -0.5239
 2106TIP3    H130513   3.672   2.561   1.963 -0.8246 -0.8571  0.4661
 2106TIP3    H230514   3.661   2.414   1.927  0.8743 -1.0006  0.4418
 2107TIP3   OH230515   6.492   1.202   8.439  0.4507 -0.1515  0.5775
 2107TIP3    H130516   6.459   1.240   8.520 -0.2351  0.0213  0.2264
 2107TIP3    H230517   6.497   1.277   8.379  0.9100 -0.2867  0.4487
 2108TIP3   OH230518   1.641   4.754   1.717  0.6279 -0.5252 -0.4001
 2108TIP3    H130519   1.598   4.813   1.655 -1.8103  0.1252  1.7299
 2108TIP3    H230520   1.734   4.761   1.696 -0.0329 -0.1136 -3.7031
 2109TIP3   OH230521   6.469   6.407   1.868  0.3991 -0.3676  0.0365
 2109TIP3    H130522   6.393   6.410   1.926 -1.4998  0.1018 -2.2650
 2109TIP3    H230523   6.516   6.328   1.892  0.9904  0.8973  3.5599
 2110TIP3   OH230524   0.871   4.234   1.389  0.4459 -0.4292 -0.7212
 2110TIP3    H130525   0.825   4.150   1.396  0.5799 -0.3772  1.3006
 2110TIP3    H230526   0.944   4.216   1.330  1.1945 -2.1081  0.6224
 2111TIP3   OH230527   6.365   3.503   0.472  0.0229 -0.1789 -0.4086
 2111TIP3    H130528   6.362   3.553   0.553  1.2069 -0.5479 -0.1310
 2111TIP3    H230529   6.289   3.445   0.477 -0.6795  0.7282 -0.1913
 2112TIP3   OH230530   1.042   5.453   2.020 -0.6359  0.1720  0.2788
 2112TIP3    H130531   1.033   5.506   2.099  2.1456  1.4922 -0.1672
 2112TIP3    H230532   1.076   5.369   2.051  0.2290  0.6078  0.5634
 2113TIP3   OH230533   6.829   2.094   8.916  0.2755  0.1561 -0.3087
 2113TIP3    H130534   6.817   2.138   8.832  0.0272 -0.6195 -0.6954
 2113TIP3    H230535   6.871   2.159   8.972  1.8696  0.2104 -1.4950
 2114TIP3   OH230536   6.181   0.018   8.524  0.4028 -0.0407  0.1917
 2114TIP3    H130537   6.153  -0.056   8.578 -2.8900  0.0220 -1.1788
 2114TIP3    H230538   6.122   0.089   8.549  0.7627  0.8651 -1.4013
 2115TIP3   OH230539   1.920   3.544   7.900  0.7181  0.0104 -0.0440
 2115TIP3    H130540   1.919   3.507   7.812 -1.5177  3.0048 -1.4425
 2115TIP3    H230541   1.849   3.499   7.946 -1.2316  1.6258 -1.3550
 2116TIP3   OH230542   4.958   5.313   8.610 -0.6982 -0.4612  0.1809
 2116TIP3    H130543   5.000   5.366   8.679 -2.3475  0.9198  0.1685
 2116TIP3    H230544   5.020   5.241   8.595 -0.3929 -1.0044  3.3256
 2117TIP3   OH230545   0.654   0.676   0.942  0.1678  0.7188 -0.3499
 2117TIP3    H130546   0.687   0.624   0.868  0.6215  0.0270  0.3288
 2117TIP3    H230547   0.667   0.620   1.018  0.2497  1.6603  0.3428
 2118TIP3   OH230548   0.292   3.821   0.541 -0.4768  0.1693  0.2933
 2118TIP3    H130549   0.216   3.766   0.562 -0.0041 -0.2840  0.8387
 2118TIP3    H230550   0.255   3.909   0.530 -1.0290  0.0266  0.9402
 2119TIP3   OH230551   4.446   0.580   2.175  0.1880 -0.2195  0.0351
 2119TIP3    H130552   4.535   0.591   2.208  0.2698 -1.4729  0.3007
 2119TIP3    H230553   4.391   0.617   2.243  0.3974 -2.0912  1.3080
 2120TIP3   OH230554   5.071   5.681   8.542 -0.7256  0.2399  0.0596
 2120TIP3    H130555   4.987   5.649   8.576 -0.8488  0.3754 -0.1165
 2120TIP3    H230556   5.070   5.775   8.560 -1.5233  0.6379 -1.8056
 2121TIP3   OH230557   6.517   5.228   7.742 -0.4629  0.3938 -0.7025
 2121TIP3    H130558   6.511   5.135   7.718 -0.6034  0.6252 -1.5864
 2121TIP3    H230559   6.590   5.232   7.803 -2.2034 -0.7425  1.5874
 2122TIP3   OH230560   4.914   7.229   9.386 -0.2481 -0.2635 -0.4330
 2122TIP3    H130561   4.935   7.282   9.309 -3.1119  1.5632 -0.0828
 2122TIP3    H230562   4.859   7.158   9.351 -0.0401 -0.4930 -0.2962
 2123TIP3   OH230563   1.488   2.987   8.977  0.4698 -0.4250  0.2116
 2123TIP3    H130564   1.466   2.996   9.070  0.9843  0.0203  0.2983
 2123TIP3    H230565   1.433   2.916   8.946  2.1314 -2.3686  1.4893
 2124TIP3   OH230566   1.951   4.049   6.820 -0.9200 -0.1945  1.0930
 2124TIP3    H130567   2.024   4.079   6.765  0.1241 -0.7612  2.1179
 2124TIP3    H230568   1.883   4.115   6.807 -0.0882  0.5580  0.3940
 2125TIP3   OH230569   5.798   6.972   8.833  0.2009 -0.7662  0.3177
 2125TIP3    H130570   5.778   6.900   8.773 -1.6788 -0.1824  0.1879
 2125TIP3    H230571   5.714   6.996   8.871  1.1353 -0.1344  2.0933
 2126TIP3   OH230572   6.094   7.372   8.137 -0.4490 -0.2710  0.5329
 2126TIP3    H130573   6.101   7.441   8.203 -1.2358  0.4323 -0.0939
 2126TIP3    H230574   6.004   7.340   8.145 -0.0050 -1.4706  1.0324
 2127TIP3   OH230575   2.783   5.779   7.651  0.4834 -0.1876  0.2657
 2127TIP3    H130576   2.700   5.827   7.647  1.1426  0.9344 -0.4125
 2127TIP3    H230577   2.759   5.689   7.630 -0.5359  0.1526 -0.1228
 2128TIP3   OH230578   7.366   1.610   9.694 -0.0954 -0.2386 -0.6603
 2128TIP3    H130579   7.271   1.606   9.703 -0.3901  1.6447 -2.2390
 2128TIP3    H230580   7.394   1.681   9.751  0.2178 -0.1004 -0.9757
 2129TIP3   OH230581   6.380   2.540   0.212  0.0404 -0.0199  0.2995
 2129TIP3    H130582   6.347   2.587   0.135 -0.2719 -1.0921 -0.2337
 2129TIP3    H230583   6.457   2.494   0.179  0.9673  0.9201  1.0738
 2130TIP3   OH230584   0.615   0.781   8.041 -0.0654  0.0195  0.1270
 2130TIP3    H130585   0.695   0.803   7.993  0.3597 -0.7052  0.4845
 2130TIP3    H230586   0.607   0.849   8.108  0.3255  0.0251  0.1706
 2131TIP3   OH230587   6.402   6.446   2.412 -0.4788 -0.1995  0.5214
 2131TIP3    H130588   6.454   6.526   2.424 -0.7898 -0.1542  1.6176
 2131TIP3    H230589   6.408   6.400   2.496 -1.1280 -0.8417  0.2247
 2132TIP3   OH230590   5.886   0.151   1.694  0.2234  0.0159 -0.3257
 2132TIP3    H130591   5.976   0.130   1.668  0.6723  1.4548 -0.0339
 2132TIP3    H230592   5.845   0.183   1.614  0.2188  0.1471 -0.2702
 2133TIP3   OH230593   6.008   1.649   0.589 -0.0996  0.3655 -0.4790
 2133TIP3    H130594   5.919   1.680   0.574 -0.2770  0.6368  0.9762
 2133TIP3    H230595   5.999   1.554   0.599 -0.1643  0.3442 -0.7331
 2134TIP3   OH230596   0.502   6.871   6.513 -0.4713 -0.0329 -0.3429
 2134TIP3    H130597   0.490   6.845   6.604  0.1007 -1.4258 -0.6504
 2134TIP3    H230598   0.438   6.819   6.464  1.4696 -1.8287 -1.0961
 2135TIP3   OH230599   5.350   2.817   7.631  0.2648  0.5621  0.1955
 2135TIP3    H130600   5.339   2.722   7.628 -3.0594  0.8223 -0.9760
 2135TIP3    H230601   5.411   2.837   7.561 -1.3423 -0.5979 -1.6551
 2136TIP3   OH230602   1.181   1.229   0.922  0.2324  0.3965 -0.1042
 2136TIP3    H130603   1.273   1.244   0.899  1.1060 -1.9300  1.5124
 2136TIP3    H230604   1.173   1.134   0.927 -2.3986  0.5246 -0.5500
 2137TIP3   OH230605   3.864   1.537   2.567  0.5729  0.6404 -0.0187
 2137TIP3    H130606   3.955   1.533   2.537  0.3592  1.5590 -0.8422
 2137TIP3    H230607   3.869   1.581   2.652  0.9275  0.3349  0.1230
 2138TIP3   OH230608   2.927   0.493   7.321  0.5717 -0.1253 -0.3238
 2138TIP3    H130609   2.936   0.458   7.232 -3.0879 -2.0163 -0.1375
 2138TIP3    H230610   2.931   0.416   7.378 -3.3825  0.0552  0.4775
 2139TIP3   OH230611   1.697   6.229   7.224  0.1544 -0.0261 -0.0791
 2139TIP3    H130612   1.698   6.200   7.132 -0.7566 -1.0683  0.2150
 2139TIP3    H230613   1.605   6.221   7.250  0.3380  0.6809  0.7987
 2140TIP3   OH230614   2.328   2.888   0.348 -0.3710 -0.2448  0.7490
 2140TIP3    H130615   2.347   2.857   0.259 -1.8904  0.0035  0.3263
 2140TIP3    H230616   2.335   2.809   0.402  0.9097 -0.3348  0.4887
 2141TIP3   OH230617   5.827   2.930   7.191 -0.3057  0.2273  0.3177
 2141TIP3    H130618   5.905   2.886   7.155 -0.5034  0.2918 -0.1991
 2141TIP3    H230619   5.762   2.925   7.121 -0.7088  0.3387  0.6786
 2142TIP3   OH230620   6.911   4.939   7.392 -0.2602 -0.0592  0.2100
 2142TIP3    H130621   6.925   4.855   7.347 -1.0925 -0.3114  0.4105
 2142TIP3    H230622   6.989   4.990   7.371  0.2226 -0.8537  0.0150
 2143TIP3   OH230623   0.896   0.537   2.620  0.1293 -0.0847 -0.1717
 2143TIP3    H130624   0.882   0.523   2.714 -0.0452  1.6825  0.1059
 2143TIP3    H230625   0.808   0.534   2.582  0.0330  0.7519 -0.0268
 2144TIP3   OH230626   0.796   0.704   9.217 -0.4809 -0.1368  0.0552
 2144TIP3    H130627   0.865   0.650   9.256 -0.3300  0.3096  0.4082
 2144TIP3    H230628   0.749   0.741   9.292 -1.8287 -1.3257 -0.1452
 2145TIP3   OH230629   4.072   3.131   9.792 -0.1347  0.3928 -0.6973
 2145TIP3    H130630   3.982   3.149   9.765  0.3896  1.2982 -1.8869
 2145TIP3    H230631   4.078   3.036   9.792 -0.7221  0.3370 -1.8922
 2146TIP3   OH230632   5.841   5.757   7.448 -0.2542  0.5075 -0.7458
 2146TIP3    H130633   5.794   5.766   7.366 -2.3418  2.4731  0.5310
 2146TIP3    H230634   5.777   5.718   7.508  0.3070  1.4886  0.5566
 2147TIP3   OH230635   7.488   1.226   1.164 -0.4130  0.1407  0.2271
 2147TIP3    H130636   7.487   1.132   1.185  0.8348  0.3969  1.5454
 2147TIP3    H230637   7.558   1.235   1.100 -0.2913  0.2146  0.3694
 2148TIP3   OH230638   1.564   3.567   9.727  0.4765  0.1781  0.1826
 2148TIP3    H130639   1.616   3.518   9.791 -0.1489 -2.5064 -1.2042
 2148TIP3    H230640   1.613   3.558   9.645 -1.9603 -2.4393 -1.1766
 2149TIP3   OH230641   6.881   6.833   2.535  0.0486  0.3981  0.0534
 2149TIP3    H130642   6.963   6.847   2.487  1.3569 -0.0572  2.0336
 2149TIP3    H230643   6.908   6.823   2.626 -2.3618  1.5732  0.9811
 2150TIP3   OH230644   0.493   2.079   1.135 -0.1773 -0.1481 -0.3661
 2150TIP3    H130645   0.535   2.136   1.072 -0.2921  0.7070  0.3109
 2150TIP3    H230646   0.406   2.063   1.099  0.2687 -0.8974 -1.1474
 2151TIP3   OH230647   2.881   5.441   9.354  0.5839  0.0739  0.0530
 2151TIP3    H130648   2.870   5.483   9.439  1.5609  1.0495 -0.2774
 2151TIP3    H230649   2.839   5.356   9.363  1.0951 -0.0257  1.6626
 2152TIP3   OH230650   5.510   0.435   0.410 -0.4994  0.1996 -0.1680
 2152TIP3    H130651   5.416   0.427   0.394 -1.0372  0.5522  2.3642
 2152TIP3    H230652   5.540   0.344   0.421 -0.2729  0.0090 -1.9537
 2153TIP3   OH230653   7.656   2.276   9.524  0.6065 -0.0804 -0.4480
 2153TIP3    H130654   7.628   2.265   9.433  0.2314 -0.4163 -0.2970
 2153TIP3    H230655   7.735   2.328   9.519  0.0282  0.7718 -0.8996
 2154TIP3   OH230656   1.986   6.583   2.520  0.3181  0.1172 -0.5494
 2154TIP3    H130657   2.074   6.548   2.532  0.9336  2.0736  1.3182
 2154TIP3    H230658   1.939   6.557   2.599 -0.0736  0.9461 -0.4927
 2155TIP3   OH230659   2.023   3.462   1.796  0.1220 -0.0053 -0.4731
 2155TIP3    H130660   2.063   3.516   1.729 -0.7508  1.6632  0.2751
 2155TIP3    H230661   1.949   3.514   1.827 -0.4010 -1.3871  0.7210
 2156TIP3   OH230662   1.225   1.615   2.646  0.1693 -0.2048 -0.3093
 2156TIP3    H130663   1.305   1.566   2.661  0.9645  0.0483 -3.1670
 2156TIP3    H230664   1.250   1.684   2.584 -1.6104  1.8512  1.1094
 2157TIP3   OH230665   4.421   0.275   7.174  0.6486 -0.4648 -0.0345
 2157TIP3    H130666   4.458   0.348   7.125  0.8748  0.7060  1.8041
 2157TIP3    H230667   4.493   0.214   7.184  1.4933  0.7264  1.4982
 2158TIP3   OH230668   5.272   3.827   7.217 -0.4049  0.1000 -0.4389
 2158TIP3    H130669   5.358   3.861   7.194  0.5963 -2.0961 -0.2700
 2158TIP3    H230670   5.253   3.762   7.149 -1.3582 -0.3032  0.1892
 2159TIP3   OH230671   3.545   4.068   0.425 -0.4381 -0.3077 -0.4289
 2159TIP3    H130672   3.624   4.122   0.423  0.8446 -1.9370  1.8238
 2159TIP3    H230673   3.544   4.024   0.340  0.3734  0.6703 -0.9690
 2160TIP3   OH230674   3.355   3.174   8.886  0.2094  0.5298 -0.3583
 2160TIP3    H130675   3.318   3.149   8.971  0.2744 -0.1915 -0.5356
 2160TIP3    H230676   3.282   3.164   8.825  0.0453  1.4621 -0.3261
 2161TIP3   OH230677   4.982   2.140   1.670  0.2461  0.2765 -0.3775
 2161TIP3    H130678   5.024   2.225   1.682  2.3828 -0.4185 -2.2181
 2161TIP3    H230679   4.918   2.154   1.601  1.5731  0.1501 -1.6753
 2162TIP3   OH230680   2.466   0.938   1.729 -0.4912 -0.3114  0.4047
 2162TIP3    H130681   2.437   0.984   1.650 -1.4314 -1.4275  0.0735
 2162TIP3    H230682   2.385   0.905   1.768  0.0455 -0.5187  1.3681
 2163TIP3   OH230683   1.688   7.556   1.615 -0.0789  0.2766 -0.2419
 2163TIP3    H130684   1.633   7.521   1.685 -0.6599 -1.0104 -1.2943
 2163TIP3    H230685   1.762   7.596   1.661 -0.3946 -0.6073  1.1110
 2164TIP3   OH230686   2.647   2.563   8.854  0.1702 -0.0772  0.9708
 2164TIP3    H130687   2.738   2.547   8.876  0.4588  1.3975  0.9341
 2164TIP3    H230688   2.610   2.475   8.839  1.7740 -0.6345  0.1236
 2165TIP3   OH230689   3.195   7.670   0.819  0.3005 -0.0811  0.1446
 2165TIP3    H130690   3.260   7.645   0.884  0.7601 -1.4141 -0.7782
 2165TIP3    H230691   3.202   7.603   0.751 -1.1928  0.4309 -0.5644
 2166TIP3   OH230692   3.987   1.391   9.318 -0.0286  0.0763  0.1766
 2166TIP3    H130693   4.069   1.354   9.284  0.2640  0.5604  0.3456
 2166TIP3    H230694   3.929   1.315   9.327  0.2422 -0.2079 -0.3826
 2167TIP3   OH230695   3.665   2.887   8.322 -0.1442  0.1876  0.1566
 2167TIP3    H130696   3.634   2.930   8.243 -2.1898 -2.0706 -0.4077
 2167TIP3    H230697   3.754   2.920   8.335  0.0562  1.0374 -2.7432
 2168TIP3   OH230698   3.649   6.472   0.196  0.3627  0.0382 -0.5580
 2168TIP3    H130699   3.590   6.539   0.163  0.8553  0.9660  0.3987
 2168TIP3    H230700   3.630   6.466   0.290  0.6604 -0.8141 -0.5393
 2169TIP3   OH230701   7.466   0.958   8.749  0.1137  0.4431  0.0101
 2169TIP3    H130702   7.456   1.053   8.756  0.2743  0.5276 -0.7767
 2169TIP3    H230703   7.381   0.927   8.717  0.1614  0.3600 -0.0390
 2170TIP3   OH230704   4.901   1.909   1.081  0.3740  0.2585  0.3988
 2170TIP3    H130705   4.927   1.817   1.075  0.2027  0.2571 -0.3943
 2170TIP3    H230706   4.976   1.953   1.120  1.3306  0.1387 -1.2237
 2171TIP3   OH230707   6.480   6.719   2.504 -0.0507  0.0016 -0.2920
 2171TIP3    H130708   6.424   6.739   2.578 -1.2743  0.7038 -1.3696
 2171TIP3    H230709   6.524   6.801   2.484  0.7512 -0.3363  0.0127
 2172TIP3   OH230710   7.454   4.510   2.332 -0.3397  0.2362 -0.4132
 2172TIP3    H130711   7.397   4.433   2.336 -0.5986  0.4590  0.8287
 2172TIP3    H230712   7.400   4.577   2.290  0.4197 -0.6394 -2.9756
 2173TIP3   OH230713   0.191   1.127   9.697  0.5212 -0.2509  0.3543
 2173TIP3    H130714   0.195   1.102   9.789 -0.3478 -1.8834 -0.0081
 2173TIP3    H230715   0.161   1.218   9.698  2.7448  0.5260  1.7134
 2174TIP3   OH230716   2.896   2.548   0.700 -0.3630 -0.0172  0.3893
 2174TIP3    H130717   2.858   2.460   0.706 -0.8851  0.0607 -1.2887
 2174TIP3    H230718   2.910   2.574   0.791  0.8467 -2.2607  0.9383
 2175TIP3   OH230719   7.139   2.052   0.588 -0.0187 -0.3217 -0.1708
 2175TIP3    H130720   7.234   2.041   0.577  0.3397  1.3405  0.8102
 2175TIP3    H230721   7.124   2.145   0.574 -1.1026 -0.0783  2.1146
 2176TIP3   OH230722   0.561   2.039   3.175  0.4052  0.2668  0.3408
 2176TIP3    H130723   0.483   2.091   3.154  1.1034  0.8069 -1.0976
 2176TIP3    H230724   0.604   2.089   3.244  0.8496  1.4435 -0.7385
 2177TIP3   OH230725   7.323   0.911   1.538  0.3284 -0.2383  0.4845
 2177TIP3    H130726   7.350   0.962   1.615  0.6056  0.2763  0.0504
 2177TIP3    H230727   7.399   0.859   1.515  0.7225  0.6506 -0.2813
 2178TIP3   OH230728   5.052   0.604   2.004 -0.1429  0.3740  0.1050
 2178TIP3    H130729   5.047   0.597   2.099  0.0255  0.6715  0.1365
 2178TIP3    H230730   5.063   0.514   1.974 -2.3424  0.0173  0.2249
 2179TIP3   OH230731   1.006   1.535   1.864  0.2880  0.1471 -0.1745
 2179TIP3    H130732   1.080   1.575   1.818 -0.9046  0.5206 -1.8573
 2179TIP3    H230733   0.972   1.605   1.920  2.4966 -0.6482  2.4261
 2180TIP3   OH230734   4.099   1.406   0.915  0.2183 -0.0661 -0.1767
 2180TIP3    H130735   4.163   1.347   0.956 -0.5471 -0.0018  1.1600
 2180TIP3    H230736   4.151   1.479   0.881  0.8474  0.1056  1.1161
 2181TIP3   OH230737   5.222   0.691   7.674  0.1890  0.2117  0.1002
 2181TIP3    H130738   5.186   0.602   7.675  0.6184 -0.0231 -1.7184
 2181TIP3    H230739   5.155   0.744   7.719 -0.3341 -0.9221  0.7033
 2182TIP3   OH230740   7.634   4.491   7.140  0.1337 -0.6784  0.1331
 2182TIP3    H130741   7.586   4.422   7.094  1.4377 -1.5058 -0.0657
 2182TIP3    H230742   7.605   4.572   7.099  0.3689 -1.3039 -1.3333
 2183TIP3   OH230743   7.095   4.291   3.053  0.2547 -0.6580  0.3923
 2183TIP3    H130744   7.152   4.284   3.130 -0.3193 -1.0850  0.7839
 2183TIP3    H230745   7.148   4.339   2.989 -0.0673  1.8669  1.8588
 2184TIP3   OH230746   6.798   5.974   9.827 -0.1700  0.1236  0.5010
 2184TIP3    H130747   6.807   5.885   9.792 -1.5750 -0.0542  0.5455
 2184TIP3    H230748   6.746   6.021   9.763  2.1010  1.5087 -0.4417
 2185TIP3   OH230749   3.332   0.394   0.997 -0.0511 -0.7019  0.2524
 2185TIP3    H130750   3.306   0.312   1.038 -3.5469 -0.6739 -1.5401
 2185TIP3    H230751   3.314   0.461   1.063  0.6216 -1.1581  0.9088
 2186TIP3   OH230752   2.729   3.876   7.738 -0.1684 -0.0145 -0.8974
 2186TIP3    H130753   2.763   3.843   7.821 -1.8712  1.1456  0.3390
 2186TIP3    H230754   2.804   3.875   7.679  0.6567 -2.7668  0.0217
 2187TIP3   OH230755   4.567   2.960   7.617  0.2952 -0.1248 -0.5408
 2187TIP3    H130756   4.615   3.004   7.547  0.1953  0.6241 -0.1517
 2187TIP3    H230757   4.538   2.877   7.578  0.0482  0.3773 -1.4539
 2188TIP3   OH230758   4.037   3.171   9.069 -0.4999 -0.0031 -0.7113
 2188TIP3    H130759   4.078   3.092   9.104 -1.8959 -0.3538  0.2145
 2188TIP3    H230760   3.962   3.140   9.020 -0.7181  0.7254 -0.8594
 2189TIP3   OH230761   2.912   0.337   8.901 -0.0350 -0.3597 -0.0729
 2189TIP3    H130762   2.893   0.414   8.955 -1.3974 -0.4879 -0.3407
 2189TIP3    H230763   3.002   0.350   8.872  1.5199 -1.1761  3.7483
 2190TIP3   OH230764   0.288   6.802   7.550  0.3052  0.7274 -0.2771
 2190TIP3    H130765   0.365   6.746   7.564  0.9365  1.5052 -0.5903
 2190TIP3    H230766   0.322   6.891   7.551 -0.5390  1.0688 -0.8060
 2191TIP3   OH230767   5.235   4.865   9.307 -0.0521 -0.1672 -0.1417
 2191TIP3    H130768   5.244   4.785   9.357  1.5955 -0.8459 -1.4272
 2191TIP3    H230769   5.324   4.886   9.279 -0.7815  0.5990 -2.0837
 2192TIP3   OH230770   1.760   0.866   9.098  0.0658  0.2219  0.7385
 2192TIP3    H130771   1.707   0.940   9.068 -1.2766 -0.4949  1.2155
 2192TIP3    H230772   1.795   0.895   9.182 -0.1779  0.4416  0.7687
 2193TIP3   OH230773   0.021   1.626   9.545 -0.1390  0.2916  0.4255
 2193TIP3    H130774  -0.010   1.540   9.572  1.2920 -0.4322 -0.1456
 2193TIP3    H230775  -0.003   1.633   9.453 -0.9754  0.8660  0.6722
 2194TIP3   OH230776   5.526   2.775   7.412  0.1945  0.9893 -0.0079
 2194TIP3    H130777   5.496   2.829   7.339  2.5358 -0.0513 -1.8975
 2194TIP3    H230778   5.607   2.817   7.441  0.9034 -0.2621 -0.0871
 2195TIP3   OH230779   1.550   5.011   1.504 -0.1896 -0.1835  0.1674
 2195TIP3    H130780   1.467   5.018   1.458 -0.2672 -0.1068  0.3178
 2195TIP3    H230781   1.613   5.056   1.447  0.0147 -1.3830 -0.5888
 2196TIP3   OH230782   7.575   5.282   2.095 -0.1347  0.2718  0.4046
 2196TIP3    H130783   7.551   5.307   2.184 -0.7150 -0.4488  0.4627
 2196TIP3    H230784   7.566   5.363   2.044 -0.6412  0.4916  0.8347
 2197TIP3   OH230785   7.599   3.424   7.263  0.1104  0.4702  0.5196
 2197TIP3    H130786   7.621   3.422   7.170  1.4275  0.2127  0.8107
 2197TIP3    H230787   7.515   3.380   7.269  0.0952  0.3333 -0.5293
 2198TIP3   OH230788   7.393   7.045   2.496  0.3434 -0.5832  0.7131
 2198TIP3    H130789   7.377   7.064   2.404  1.5019  0.0307  0.6214
 2198TIP3    H230790   7.420   7.129   2.534 -0.7855 -0.6616  1.7832
 2199TIP3   OH230791   2.572   6.895   8.993 -0.0837 -0.0163  0.3012
 2199TIP3    H130792   2.545   6.807   9.017 -0.1168 -0.8198 -2.3803
 2199TIP3    H230793   2.491   6.942   8.976 -0.0287  0.1510  0.4955
 2200TIP3   OH230794   3.439   3.445   0.774 -0.0622  0.2487 -0.2112
 2200TIP3    H130795   3.350   3.431   0.743  0.5226 -0.5294 -1.6367
 2200TIP3    H230796   3.469   3.522   0.726  0.1233  0.3522  0.0667
 2201TIP3   OH230797   5.048   2.909   9.385 -0.1818  0.7426  0.5249
 2201TIP3    H130798   4.978   2.849   9.410 -0.4537  0.8521  0.0533
 2201TIP3    H230799   5.119   2.852   9.357 -0.1640  0.6326  0.7931
 2202TIP3   OH230800   0.004   4.759   1.211  0.0341  0.2430  0.0127
 2202TIP3    H130801  -0.044   4.744   1.293  0.2724 -0.1647  0.0812
 2202TIP3    H230802  -0.017   4.849   1.187 -0.4043  0.2139  0.2813
 2203TIP3   OH230803   2.298   4.253   0.035 -0.0208  0.0162  0.1045
 2203TIP3    H130804   2.278   4.161   0.051  0.3370  0.1411  1.4838
 2203TIP3    H230805   2.363   4.252  -0.035  0.6417 -0.8477  0.7036
 2204TIP3   OH230806   4.057   0.404   2.184  0.0354  0.0766  0.3890
 2204TIP3    H130807   3.967   0.396   2.215  0.3245  1.0510  1.5918
 2204TIP3    H230808   4.095   0.316   2.196 -0.5781 -0.1773  0.4752
 2205TIP3   OH230809   6.786   0.564   8.024  0.0688 -0.6575  0.2784
 2205TIP3    H130810   6.878   0.557   7.998  0.0255 -0.2748  0.0151
 2205TIP3    H230811   6.762   0.476   8.052  0.2428 -0.9798 -0.5603
 2206TIP3   OH230812   6.620   1.381   1.437  0.2244 -0.3778  0.1429
 2206TIP3    H130813   6.691   1.432   1.398 -0.1749 -0.4608 -0.7287
 2206TIP3    H230814   6.558   1.447   1.469  1.2730 -0.2767  2.0909
 2207TIP3   OH230815   4.713   5.070   8.931  0.4097  0.1710  0.3460
 2207TIP3    H130816   4.741   5.161   8.937  1.3822 -0.1663  1.1887
 2207TIP3    H230817   4.621   5.075   8.905 -0.4059  1.5137  3.0885
 2208TIP3   OH230818   4.703   1.850   2.127  0.1675 -0.2364 -0.3448
 2208TIP3    H130819   4.701   1.801   2.209 -1.1279 -2.1929 -1.4807
 2208TIP3    H230820   4.751   1.794   2.066  0.0756  0.6349 -1.2466
 2209TIP3   OH230821   7.529   0.037   0.806 -0.4596  0.0348  0.3657
 2209TIP3    H130822   7.556   0.127   0.787  1.0544 -0.6155 -0.7912
 2209TIP3    H230823   7.582   0.011   0.881  0.2692 -0.3911 -0.2835
 2210TIP3   OH230824   1.112   5.923   1.264  0.4202  0.4036  0.1344
 2210TIP3    H130825   1.082   5.999   1.214  0.0208  0.6151  0.6913
 2210TIP3    H230826   1.166   5.874   1.202  0.2146  0.8429 -0.4011
 2211TIP3   OH230827   4.836   6.598   0.905 -0.6267 -0.0161  0.2957
 2211TIP3    H130828   4.778   6.572   0.976  0.2981 -2.7563  0.1426
 2211TIP3    H230829   4.793   6.564   0.826 -0.2517  0.5153 -0.1414
 2212TIP3   OH230830   7.093   7.343   1.331 -0.0775  0.4091 -0.0130
 2212TIP3    H130831   7.042   7.334   1.251  1.9164 -1.3719 -1.1932
 2212TIP3    H230832   7.063   7.272   1.387  3.0153 -2.7686 -1.9734
 2213TIP3   OH230833   3.756   0.963   8.304 -0.3795  0.1428  1.2781
 2213TIP3    H130834   3.704   0.973   8.224  0.4490  0.8113  0.8022
 2213TIP3    H230835   3.692   0.941   8.372 -1.6227  2.9788  1.1605
 2214TIP3   OH230836   6.889   1.382   8.977 -0.4483  0.2495  0.0130
 2214TIP3    H130837   6.910   1.362   9.068 -0.0982 -1.2958 -0.3924
 2214TIP3    H230838   6.848   1.303   8.943 -3.2562  1.7260 -0.4071
 2215TIP3   OH230839   6.851   3.065   0.473 -0.6413 -0.2664  0.6154
 2215TIP3    H130840   6.807   2.995   0.425  1.6556 -2.0474  0.9247
 2215TIP3    H230841   6.795   3.141   0.461 -2.6226 -1.8355 -0.7877
 2216TIP3   OH230842   6.469   3.817   6.692 -0.5601  0.3317 -0.0173
 2216TIP3    H130843   6.431   3.871   6.622 -1.6687 -1.9679 -1.2977
 2216TIP3    H230844   6.404   3.820   6.762 -1.3890 -0.5764 -0.7219
 2217TIP3   OH230845   5.687   4.065   7.723  0.1184 -0.2990 -0.0138
 2217TIP3    H130846   5.670   4.052   7.630  0.2383 -0.9017  0.0473
 2217TIP3    H230847   5.601   4.082   7.762 -0.0200 -0.7491 -0.1225
 2218TIP3   OH230848   7.272   0.597   1.895  0.4255 -0.3300 -0.4991
 2218TIP3    H130849   7.249   0.548   1.974  1.6786  1.0224  0.7472
 2218TIP3    H230850   7.308   0.679   1.927  1.4034  0.0643 -2.4731
 2219TIP3   OH230851   7.235   6.000   9.090 -0.4925  0.0524  0.3131
 2219TIP3    H130852   7.272   6.042   9.168 -1.8457 -0.8781  1.4877
 2219TIP3    H230853   7.142   6.022   9.092 -0.5367  0.0930 -1.1076
 2220TIP3   OH230854   7.472   3.033   0.386 -0.3483 -0.3962 -0.1417
 2220TIP3    H130855   7.449   3.071   0.471  0.2915  1.8693 -0.9127
 2220TIP3    H230856   7.388   3.003   0.350 -1.4370  2.9254 -0.6799
 2221TIP3   OH230857   2.425   1.127   8.300 -0.3860  0.2044  0.4390
 2221TIP3    H130858   2.447   1.126   8.393  0.1901 -1.4006  0.3255
 2221TIP3    H230859   2.366   1.053   8.289  0.8054 -0.6203 -0.7168
 2222TIP3   OH230860   7.509   5.041   1.844  0.1121  0.1219  0.7927
 2222TIP3    H130861   7.541   5.024   1.755 -0.4476  1.0224  0.4002
 2222TIP3    H230862   7.420   5.006   1.845  0.0383  0.3090  0.9230
 2223TIP3   OH230863   4.087   7.266   0.687  0.3101  0.5847  0.3152
 2223TIP3    H130864   4.043   7.199   0.634 -0.6665 -1.1952  3.1733
 2223TIP3    H230865   4.027   7.339   0.687  0.7556  1.0271 -1.7028
 2224TIP3   OH230866   0.594   5.761   1.753 -0.2278  0.3209  0.6074
 2224TIP3    H130867   0.685   5.755   1.780 -0.2014  0.6189  0.5899
 2224TIP3    H230868   0.545   5.770   1.835 -0.1204  1.5491  0.5550
 2225TIP3   OH230869   7.144   6.646   9.789  0.1306  0.2487  0.3127
 2225TIP3    H130870   7.121   6.732   9.753  1.0786 -0.5617 -2.4924
 2225TIP3    H230871   7.231   6.657   9.826  0.4469  0.4231 -0.4627
 2226TIP3   OH230872   7.479   7.589   9.026 -0.6686 -0.7053  0.4200
 2226TIP3    H130873   7.466   7.657   8.961  0.7474 -0.3399  0.4887
 2226TIP3    H230874   7.552   7.537   8.993 -0.6485 -1.1813  1.1796
 2227TIP3   OH230875   0.762   3.922   8.256 -0.2555 -0.7119  0.3953
 2227TIP3    H130876   0.802   3.838   8.234 -1.5398 -1.4278  0.7161
 2227TIP3    H230877   0.836   3.982   8.266  0.6328 -1.5481 -0.8407
 2228TIP3   OH230878   2.318   1.699   8.578 -0.2641  0.4188  0.0416
 2228TIP3    H130879   2.256   1.729   8.512 -1.7887  0.6223  1.4892
 2228TIP3    H230880   2.365   1.778   8.605 -0.1294  0.4531 -0.2824
 2229TIP3   OH230881   1.828   6.383   1.593 -0.8271 -0.0499 -0.0623
 2229TIP3    H130882   1.776   6.312   1.555 -2.1370  1.0912 -0.4779
 2229TIP3    H230883   1.825   6.452   1.526  2.0225 -0.2468 -0.5337
 2230TIP3   OH230884   7.600   6.986   9.333  0.0171 -0.2872  0.2150
 2230TIP3    H130885   7.664   6.952   9.395 -0.9981  0.3828  1.6708
 2230TIP3    H230886   7.651   7.046   9.277  0.6944  0.1346  1.2561
 2231TIP3   OH230887   7.563   2.609  -0.004  0.6548 -0.0169  0.4155
 2231TIP3    H130888   7.627   2.559   0.046 -0.2982 -0.3261  1.3631
 2231TIP3    H230889   7.492   2.627   0.058 -0.0956  0.4731 -0.5495
 2232TIP3   OH230890   1.370   1.974   9.467 -0.0204 -0.2688  0.5387
 2232TIP3    H130891   1.279   1.988   9.441 -0.8333 -0.8369  2.8468
 2232TIP3    H230892   1.387   1.882   9.447 -0.0708 -0.2672  0.4874
 2233TIP3   OH230893   7.267   0.392   1.633 -0.0395  0.4494  0.1958
 2233TIP3    H130894   7.356   0.355   1.631 -0.7646 -1.3671 -0.2670
 2233TIP3    H230895   7.261   0.435   1.719  1.9634  2.4872 -0.5878
 2234TIP3   OH230896   7.306   2.442   0.038 -0.5849 -0.4609 -0.1209
 2234TIP3    H130897   7.252   2.450  -0.041 -0.0719  0.1109 -0.4157
 2234TIP3    H230898   7.389   2.484   0.016 -0.6746  0.3386  0.9482
 2235TIP3   OH230899   6.755   6.652   1.987 -0.2412 -0.3885 -0.1985
 2235TIP3    H130900   6.827   6.588   1.983 -0.1152 -0.4078  1.7097
 2235TIP3    H230901   6.798   6.733   2.013 -0.4810  0.4198 -2.1380
 2236TIP3   OH230902   7.082   2.723   8.102 -0.2914  0.0993 -0.2133
 2236TIP3    H130903   7.130   2.676   8.035  0.3435 -0.0504  0.3371
 2236TIP3    H230904   7.020   2.659   8.137  0.3130 -0.2310  0.2750
 2237TIP3   OH230905   0.932   7.373   8.437  0.2913 -0.1049  0.1276
 2237TIP3    H130906   0.904   7.416   8.518 -1.7701 -1.0391 -0.0216
 2237TIP3    H230907   0.923   7.279   8.456  1.2810 -0.3829 -0.6889
 2238TIP3   OH230908   3.187   6.586   8.162  0.1771 -0.1444  0.2812
 2238TIP3    H130909   3.136   6.514   8.126  0.0554 -0.6581  1.4436
 2238TIP3    H230910   3.154   6.664   8.116 -0.8583 -0.6140  0.1985
 2239TIP3   OH230911   6.146   6.931   2.978  0.3704 -0.2062  0.1919
 2239TIP3    H130912   6.183   6.882   3.052  0.1208 -0.6546  0.0276
 2239TIP3    H230913   6.051   6.918   2.986  0.4073 -1.9290 -1.2996
 2240TIP3   OH230914   2.471   4.574  10.023  0.3152 -0.0317  0.3175
 2240TIP3    H130915   2.550   4.521  10.017  1.2618  1.4156 -0.7674
 2240TIP3    H230916   2.451   4.598   9.933 -1.5557 -0.5947  0.5403
 2241TIP3   OH230917   3.831   6.202   7.253  0.2093 -0.1515 -1.0298
 2241TIP3    H130918   3.860   6.228   7.165  0.8851 -2.8479 -1.6960
 2241TIP3    H230919   3.797   6.114   7.242  0.1151 -0.4858  1.3962
 2242TIP3   OH230920   7.247   4.162   8.598  0.1069 -0.0982  0.2533
 2242TIP3    H130921   7.236   4.069   8.617  0.7434 -0.1385  0.4372
 2242TIP3    H230922   7.323   4.167   8.540 -0.3219  0.2502 -0.2862
 2243TIP3   OH230923   2.178   5.619   6.647  0.1834  0.1146 -0.2779
 2243TIP3    H130924   2.218   5.599   6.562 -0.3406 -0.9055 -0.2994
 2243TIP3    H230925   2.186   5.714   6.656  1.1354  0.1110 -1.0158
 2244TIP3   OH230926   1.115   3.448   0.445  0.6925  0.5094  0.0130
 2244TIP3    H130927   1.031   3.487   0.469  0.9273  1.4067 -0.5783
 2244TIP3    H230928   1.094   3.387   0.374  0.4368  0.1416  0.3995
 2245TIP3   OH230929   7.401   3.207   9.707 -0.0612  0.2322 -0.1395
 2245TIP3    H130930   7.361   3.191   9.792 -0.4357  0.7582 -0.2122
 2245TIP3    H230931   7.403   3.303   9.698  0.1066  0.1877 -0.6577
 2246TIP3   OH230932   2.135   6.831   7.553  0.7550 -0.3310  0.3306
 2246TIP3    H130933   2.072   6.800   7.488 -1.5310  2.2923  1.0944
 2246TIP3    H230934   2.094   6.811   7.637  0.3646  2.2691  0.8377
 2247TIP3   OH230935   5.122   0.712   6.645  0.3037 -0.0014 -0.2430
 2247TIP3    H130936   5.195   0.773   6.633 -0.6979  1.0171 -1.3956
 2247TIP3    H230937   5.086   0.735   6.731  1.2045 -0.3937  0.2544
 2248TIP3   OH230938   6.842   2.660   1.872  0.4954 -0.2073 -0.2255
 2248TIP3    H130939   6.778   2.663   1.800 -0.9710 -0.1538  1.0318
 2248TIP3    H230940   6.826   2.740   1.921  1.2070 -0.4405  0.3985
 2249TIP3   OH230941   3.612   7.479   3.076 -0.0034 -0.3601  0.0239
 2249TIP3    H130942   3.520   7.502   3.085 -0.2144 -0.7797 -0.9615
 2249TIP3    H230943   3.623   7.458   2.983  0.9989 -0.6753  0.1995
 2250TIP3   OH230944   0.933   2.402   8.643  0.3649 -0.5691 -0.1631
 2250TIP3    H130945   0.974   2.319   8.618  0.3935 -1.3789  2.2385
 2250TIP3    H230946   0.845   2.398   8.605  0.5768 -1.4099 -0.5997
 2251TIP3   OH230947   6.610   1.513   0.119 -0.0478 -0.5877 -0.1374
 2251TIP3    H130948   6.554   1.495   0.194  0.2887 -0.4097  0.1582
 2251TIP3    H230949   6.652   1.428   0.100  0.4363 -0.4620  0.3488
 2252TIP3   OH230950   5.563   1.007   9.413 -0.4747 -0.0618  0.7235
 2252TIP3    H130951   5.567   0.995   9.508 -0.9271 -0.0943  0.7423
 2252TIP3    H230952   5.639   0.960   9.380  0.4413  1.0498  1.1647
 2253TIP3   OH230953   3.176   5.688   9.687  0.3278 -0.4301 -0.3305
 2253TIP3    H130954   3.268   5.705   9.667  0.6798 -1.2149  0.5038
 2253TIP3    H230955   3.174   5.595   9.713 -0.3313  0.0534  1.5415
 2254TIP3   OH230956   4.803   4.274   7.763 -0.0611  0.8158  0.5531
 2254TIP3    H130957   4.802   4.299   7.856  1.9607  1.4124  0.4415
 2254TIP3    H230958   4.895   4.265   7.741 -0.5048  0.7707 -1.4541
 2255TIP3   OH230959   4.626   7.518   2.845  0.2082 -0.8634  0.4627
 2255TIP3    H130960   4.631   7.445   2.907  1.6878  0.1696  1.6342
 2255TIP3    H230961   4.665   7.592   2.891 -0.9618  0.6182 -0.8032
 2256TIP3   OH230962   2.262   2.839   9.564  0.2112  0.2010  0.2294
 2256TIP3    H130963   2.174   2.859   9.594 -0.3282 -1.7895  0.1377
 2256TIP3    H230964   2.288   2.915   9.511  0.5978  3.1866  4.2130
 2257TIP3   OH230965   0.242   2.166   1.880 -0.1211  0.1487 -0.6860
 2257TIP3    H130966   0.261   2.085   1.833 -1.3805 -1.0612  0.7722
 2257TIP3    H230967   0.167   2.204   1.834  1.2359  1.2215 -2.1403
 2258TIP3   OH230968   4.655   1.484   2.766  0.3614 -0.2858  0.2185
 2258TIP3    H130969   4.679   1.549   2.832  0.2819 -0.2921  0.2534
 2258TIP3    H230970   4.645   1.402   2.815 -1.8541  0.1192  0.5823
 2259TIP3   OH230971   2.101   1.427   8.737  0.2646 -0.2723  0.5949
 2259TIP3    H130972   2.126   1.387   8.653 -0.8432 -0.6100  0.4007
 2259TIP3    H230973   2.052   1.358   8.782 -2.2691  1.0198 -0.0227
 2260TIP3   OH230974   0.404   6.319   0.647  0.3198  0.4599 -0.8797
 2260TIP3    H130975   0.355   6.277   0.718  2.4613 -0.8220 -0.0974
 2260TIP3    H230976   0.446   6.394   0.689  1.6682 -0.3566 -0.7219
 2261TIP3   OH230977   2.064   4.341   0.351 -0.0028  0.3521 -0.4070
 2261TIP3    H130978   1.979   4.297   0.357  0.7252 -0.8973  1.7965
 2261TIP3    H230979   2.128   4.272   0.367  1.5057  1.2121 -2.3222
 2262TIP3   OH230980   6.812   7.677   8.409 -0.1298  0.2412 -0.1827
 2262TIP3    H130981   6.766   7.596   8.428  1.7547 -0.8020  0.1465
 2262TIP3    H230982   6.796   7.692   8.315 -0.7701 -0.3086 -0.1686
 2263TIP3   OH230983   0.476   2.497   1.887  0.5395  0.0298  0.1870
 2263TIP3    H130984   0.510   2.519   1.974 -0.0077  0.7743  0.2266
 2263TIP3    H230985   0.517   2.414   1.866  2.5002  0.9422  0.1657
 2264TIP3   OH230986   1.740   0.805   9.470  0.4227  0.3755  0.2545
 2264TIP3    H130987   1.775   0.793   9.559  1.8935 -0.3475 -0.3899
 2264TIP3    H230988   1.815   0.832   9.418 -0.3201  0.3204 -0.8728
 2265TIP3   OH230989   4.040   3.079   0.580 -0.0994  0.4266 -0.2027
 2265TIP3    H130990   4.033   3.161   0.532  0.1180  0.2963 -0.4588
 2265TIP3    H230991   4.082   3.018   0.519  1.6410  0.6958  0.6428
 2266TIP3   OH230992   3.204   3.347   0.659 -0.1345 -0.6249  0.5221
 2266TIP3    H130993   3.118   3.376   0.630 -1.1382 -1.4059  2.5546
 2266TIP3    H230994   3.230   3.281   0.595 -2.4341 -2.5828  1.4795
 2267TIP3   OH230995   4.295   1.215   0.958  0.7902 -0.0466 -0.8763
 2267TIP3    H130996   4.344   1.180   1.032 -0.6588  1.3288  0.8222
 2267TIP3    H230997   4.234   1.145   0.934  1.5870 -0.6752 -1.1199
 2268TIP3   OH230998   0.755   6.020   0.997  0.0198 -0.3776  0.6535
 2268TIP3    H130999   0.680   6.052   0.947  0.8488 -0.8567 -0.9478
 2268TIP3    H231000   0.758   6.077   1.074 -1.2758  0.4037  0.1611
 2269TIP3   OH231001   7.409   3.880   8.570  0.3800 -0.1351  0.4540
 2269TIP3    H131002   7.451   3.941   8.631  1.3981  1.1266 -1.4226
 2269TIP3    H231003   7.315   3.886   8.591  0.4802  1.8835  0.5292
 2270TIP3   OH231004   4.831   5.945   9.118  0.2208 -0.2164 -0.0271
 2270TIP3    H131005   4.817   5.933   9.211 -0.7430  0.2084 -0.1124
 2270TIP3    H231006   4.876   5.864   9.090 -0.2050 -0.6932  0.6451
 2271TIP3   OH231007   0.744   2.105   9.285 -0.6368  0.1337 -0.2784
 2271TIP3    H131008   0.821   2.150   9.250 -1.4001  2.4496  0.8051
 2271TIP3    H231009   0.780   2.030   9.333  0.8205  0.3896 -0.9201
 2272TIP3   OH231010   6.447   4.760   0.145 -0.0867 -0.1112  0.3843
 2272TIP3    H131011   6.541   4.768   0.127 -0.4764  2.0864 -1.0984
 2272TIP3    H231012   6.408   4.745   0.059 -1.2277  0.6435  0.7534
 2273TIP3   OH231013   3.620   3.185   7.204  0.3222 -0.0217 -0.3382
 2273TIP3    H131014   3.618   3.090   7.212 -1.4949  0.0655  0.6289
 2273TIP3    H231015   3.611   3.201   7.110  3.3118 -0.7850 -0.8651
 2274TIP3   OH231016   1.159   7.607   2.437 -0.1664  0.7816  0.0115
 2274TIP3    H131017   1.204   7.691   2.423  0.9596 -0.0070 -1.3034
 2274TIP3    H231018   1.073   7.620   2.399  0.1632  1.2014 -0.6097
 2275TIP3   OH231019   0.600   3.307   8.006 -0.8146  0.5956  0.1111
 2275TIP3    H131020   0.686   3.270   8.025 -1.5579 -1.1091  0.3948
 2275TIP3    H231021   0.618   3.389   7.961  0.9485  0.0204 -0.3119
 2276TIP3   OH231022  -0.102   7.136   1.580 -0.8859  0.0366  0.0470
 2276TIP3    H131023  -0.189   7.098   1.566 -0.9516 -0.6624  2.0094
 2276TIP3    H231024  -0.046   7.060   1.596 -0.1641  0.5562 -0.0002
 2277TIP3   OH231025   4.654   0.573   2.621 -0.0544  0.2353 -0.3184
 2277TIP3    H131026   4.653   0.589   2.716  0.6224  0.8399 -0.4066
 2277TIP3    H231027   4.725   0.511   2.607 -0.5606 -0.3437 -0.3649
 2278TIP3   OH231028   1.917   7.166   2.072  0.5645 -0.0819  0.2656
 2278TIP3    H131029   2.008   7.144   2.049  0.9513  0.5521  1.1039
 2278TIP3    H231030   1.896   7.108   2.145  0.1017 -0.5932 -0.2660
 2279TIP3   OH231031   2.449   2.797   3.385  0.0454 -0.0057  0.6016
 2279TIP3    H131032   2.367   2.827   3.424 -0.7141 -0.8998 -0.2526
 2279TIP3    H231033   2.458   2.851   3.306  1.1975  1.2838  1.5545
 2280TIP3   OH231034   0.640   2.426   0.562  0.2087  0.4879 -0.5081
 2280TIP3    H131035   0.708   2.480   0.521 -0.2948  2.5011  1.1375
 2280TIP3    H231036   0.665   2.423   0.654 -0.6610 -0.7983 -0.2914
 2281TIP3   OH231037   3.152   4.585   8.958 -0.1912 -0.1453 -0.0995
 2281TIP3    H131038   3.195   4.641   9.022 -1.2675  1.0030 -0.3310
 2281TIP3    H231039   3.059   4.594   8.978 -0.4956 -0.3325 -1.3632
 2282TIP3   OH231040   4.882   1.367   1.264  0.0639 -0.2844  0.0182
 2282TIP3    H131041   4.855   1.357   1.173  2.6663  1.1427 -1.0136
 2282TIP3    H231042   4.801   1.358   1.315 -1.6041 -0.1817 -2.4817
 2283TIP3   OH231043   3.964   3.765   0.105 -0.4037 -0.3249 -0.0516
 2283TIP3    H131044   3.952   3.806   0.020 -0.8071 -1.1827 -0.4284
 2283TIP3    H231045   3.931   3.676   0.093  0.8360 -0.9048  0.6026
 2284TIP3   OH231046   6.318   3.063   8.961 -0.1652  0.0741 -0.0264
 2284TIP3    H131047   6.233   3.032   8.932  0.4187 -1.2584 -0.3898
 2284TIP3    H231048   6.360   2.986   8.999  0.4821  0.9519  1.1098
 2285TIP3   OH231049   1.970   5.913   1.984  0.0696  0.2181 -0.1050
 2285TIP3    H131050   1.942   5.958   2.064 -0.7093  0.4829 -0.5147
 2285TIP3    H231051   2.048   5.961   1.956  0.9556 -0.5075  1.0386
 2286TIP3   OH231052   5.830   0.472   1.517 -0.8290 -0.3818  0.0776
 2286TIP3    H131053   5.781   0.553   1.528 -2.0212 -0.9600 -0.6435
 2286TIP3    H231054   5.889   0.468   1.592 -2.4638 -0.0110  1.4518
 2287TIP3   OH231055   7.180   0.326   8.572  0.4146 -0.1087  0.0234
 2287TIP3    H131056   7.256   0.383   8.564  0.1023  0.2688 -0.3576
 2287TIP3    H231057   7.162   0.297   8.482  1.3756 -1.8991  0.3690
 2288TIP3   OH231058   4.170   1.071   1.680 -0.2833  0.0808  0.4976
 2288TIP3    H131059   4.201   1.161   1.674 -0.8805  0.2290 -0.4910
 2288TIP3    H231060   4.078   1.074   1.655  0.1440 -1.0458 -1.4534
 2289TIP3   OH231061   2.265   1.327   8.142 -0.0176  0.1149  1.1330
 2289TIP3    H131062   2.305   1.257   8.193 -1.6128 -1.4999  0.2591
 2289TIP3    H231063   2.283   1.406   8.193  2.0299 -0.8484  2.0406
 2290TIP3   OH231064   1.543   7.196   0.071  0.4034  0.1988 -0.2227
 2290TIP3    H131065   1.543   7.275   0.018  5.1481  1.6171  1.4289
 2290TIP3    H231066   1.589   7.131   0.019 -0.7439 -0.5517 -0.3414
 2291TIP3   OH231067   6.556   4.569   0.543 -0.3089 -0.0136 -0.8100
 2291TIP3    H131068   6.490   4.561   0.473  1.0904 -3.0838 -1.9590
 2291TIP3    H231069   6.635   4.599   0.498 -0.4491  2.2786  0.3252
 2292TIP3   OH231070   2.504   7.115   7.996  0.1514  0.1785 -0.6347
 2292TIP3    H131071   2.473   7.028   8.024 -1.8633  0.6416 -1.2592
 2292TIP3    H231072   2.536   7.156   8.077 -0.4547 -0.5281 -0.0206
 2293TIP3   OH231073   1.847   4.105   2.037  0.3432 -0.0239 -0.2770
 2293TIP3    H131074   1.901   4.179   2.065  0.3788  0.5591 -1.7989
 2293TIP3    H231075   1.804   4.075   2.117  2.0703  0.1807  0.7901
 2294TIP3   OH231076   1.770   7.504   2.308 -0.3009  0.9746  0.0507
 2294TIP3    H131077   1.864   7.493   2.299 -0.4744  0.1124 -0.8765
 2294TIP3    H231078   1.738   7.514   2.218 -1.4535 -2.0004  0.0193
 2295TIP3   OH231079   6.866   1.733   0.933  0.8153 -0.2595  0.1522
 2295TIP3    H131080   6.817   1.670   0.880 -0.8469  0.3349  0.9009
 2295TIP3    H231081   6.851   1.817   0.890  2.2136 -0.2084 -0.2858
 2296TIP3   OH231082   4.396   4.561   7.175  0.7591 -0.0170 -0.3081
 2296TIP3    H131083   4.380   4.655   7.164  1.3066 -0.0769 -1.8294
 2296TIP3    H231084   4.492   4.553   7.176  0.7168 -0.5544 -0.1440
 2297TIP3   OH231085   1.230   0.773   9.881 -0.2064  0.4900  0.1971
 2297TIP3    H131086   1.316   0.736   9.857 -0.4249  1.3084 -2.1623
 2297TIP3    H231087   1.210   0.833   9.809 -2.8422  0.2014  0.6124
 2298TIP3   OH231088   7.273   1.582   8.202  0.2723 -0.2026  0.2294
 2298TIP3    H131089   7.196   1.609   8.153  1.4752  2.7255 -0.2375
 2298TIP3    H231090   7.345   1.633   8.164  1.3260  2.2472  4.8130
 2299TIP3   OH231091   3.237   4.159   8.293  0.1203 -0.0034 -0.1893
 2299TIP3    H131092   3.273   4.070   8.295  0.2348  0.0246 -0.8515
 2299TIP3    H231093   3.195   4.166   8.208  0.5241  0.7404 -0.3312
 2300TIP3   OH231094   5.215   3.223   0.576 -0.0525  0.2143  0.2066
 2300TIP3    H131095   5.153   3.150   0.573 -0.0328  0.1923  0.3239
 2300TIP3    H231096   5.166   3.297   0.540 -0.4354  0.4021  1.0839
 2301TIP3   OH231097   4.465   2.282   9.232 -0.7305  0.3950 -0.1653
 2301TIP3    H131098   4.447   2.333   9.311  0.6141 -0.1760  0.5490
 2301TIP3    H231099   4.412   2.202   9.242 -0.1023  0.0446  0.4823
 2302TIP3   OH231100   3.144   0.076   8.533 -0.2557  0.1504  0.1855
 2302TIP3    H131101   3.209   0.145   8.546  0.0499 -0.0591 -0.2375
 2302TIP3    H231102   3.060   0.121   8.544 -0.0784  0.7216 -0.7087
 2303TIP3   OH231103   6.641   5.025   7.335  0.0982 -0.3549 -0.4630
 2303TIP3    H131104   6.630   4.992   7.246 -0.4598 -0.1529 -0.4784
 2303TIP3    H231105   6.726   4.992   7.364 -0.1962 -1.3253 -0.6779
 2304TIP3   OH231106   2.833   1.297   8.277  0.4481  0.5236  0.0169
 2304TIP3    H131107   2.894   1.229   8.247  1.5567  0.5662  2.0012
 2304TIP3    H231108   2.833   1.289   8.372 -1.5173  1.5517  0.1590
 2305TIP3   OH231109   6.494   4.041   1.998  0.3731 -0.0964 -0.1684
 2305TIP3    H131110   6.526   4.058   1.909 -0.2292  0.0254 -0.3629
 2305TIP3    H231111   6.426   4.108   2.012 -0.2121 -0.7251  0.0239
 2306TIP3   OH231112   4.674   7.666   8.361 -0.2800  0.0930  0.5578
 2306TIP3    H131113   4.646   7.598   8.422 -2.5820 -0.1149 -0.6223
 2306TIP3    H231114   4.769   7.656   8.356 -0.4468 -2.4224  1.1670
 2307TIP3   OH231115   2.043   1.052   1.763  0.2599 -0.8210 -0.6391
 2307TIP3    H131116   2.106   0.994   1.804  0.7023 -0.2731 -0.5339
 2307TIP3    H231117   2.005   1.102   1.835 -1.3320 -2.1066 -0.5231
 2308TIP3   OH231118   1.146   1.743   1.250 -0.8497 -0.1448 -0.0154
 2308TIP3    H131119   1.107   1.738   1.337 -1.7027 -0.9829 -0.4238
 2308TIP3    H231120   1.074   1.773   1.193 -1.4489 -3.1526 -1.0386
 2309TIP3   OH231121   4.043   0.741   9.074 -0.3310  0.0604  0.0801
 2309TIP3    H131122   4.089   0.775   8.996  1.7841 -0.7100  0.9046
 2309TIP3    H231123   3.954   0.723   9.044  0.1065  0.8521 -1.8583
 2310TIP3   OH231124   1.919   6.572   8.843 -0.8547  0.4346 -0.1150
 2310TIP3    H131125   1.856   6.645   8.844 -0.6752  0.5938  0.5704
 2310TIP3    H231126   1.947   6.564   8.934 -1.8561 -1.3645  0.0761
 2311TIP3   OH231127   3.707   1.803   9.019  0.3664 -0.2711 -0.1041
 2311TIP3    H131128   3.630   1.776   8.970 -0.3228 -1.9727  1.7765
 2311TIP3    H231129   3.713   1.740   9.091  2.8862  0.4710  0.4375
 2312TIP3   OH231130   3.067   2.885   7.225 -0.2290  0.0193  0.0025
 2312TIP3    H131131   2.979   2.846   7.222  0.4334 -1.8408  2.2889
 2312TIP3    H231132   3.058   2.967   7.176 -2.4975 -1.4572 -2.3472
 2313TIP3   OH231133   6.699   6.622   8.660  0.0347  0.1739  0.3172
 2313TIP3    H131134   6.668   6.709   8.632 -0.2689  0.1658  0.6249
 2313TIP3    H231135   6.749   6.590   8.585 -0.0811  0.4989  0.0944
 2314TIP3   OH231136   4.537   1.536   2.081  0.2865 -0.5229 -0.0259
 2314TIP3    H131137   4.564   1.569   1.995 -1.2755 -1.5386 -0.9808
 2314TIP3    H231138   4.525   1.442   2.066  0.3348 -0.7677  1.4125
 2315TIP3   OH231139   7.033   7.072   1.023 -0.1556 -0.2999 -0.3602
 2315TIP3    H131140   6.981   7.058   1.103  0.2250 -0.4281 -0.1345
 2315TIP3    H231141   6.979   7.033   0.953 -0.4766 -0.2139 -0.1635
 2316TIP3   OH231142   3.036   2.200   0.711  0.4510 -0.2278 -0.9018
 2316TIP3    H131143   3.075   2.245   0.637 -0.9794  0.4427 -1.2632
 2316TIP3    H231144   2.943   2.220   0.706  0.3162 -0.1610  1.0717
 2317TIP3   OH231145   7.682   7.008   0.921 -0.2813  0.1219 -0.4095
 2317TIP3    H131146   7.629   6.929   0.911  1.0433 -0.7129 -1.0632
 2317TIP3    H231147   7.738   6.991   0.997 -1.6509  1.4387  0.9662
 2318TIP3   OH231148   3.821   1.205   8.580 -0.3852 -0.0116  0.0472
 2318TIP3    H131149   3.907   1.190   8.542 -0.1785  1.7325 -0.2532
 2318TIP3    H231150   3.776   1.260   8.516 -1.9800 -1.3765 -0.0948
 2319TIP3   OH231151   0.969   3.624   7.402  0.0832 -0.2498  0.4438
 2319TIP3    H131152   1.001   3.688   7.465 -1.0075  0.4310  0.3378
 2319TIP3    H231153   0.921   3.560   7.456 -0.2051 -0.0845  0.3836
 2320TIP3   OH231154   1.591   2.213   2.794 -0.1903  0.1575 -0.3962
 2320TIP3    H131155   1.611   2.209   2.888 -0.8318 -1.4159 -0.2876
 2320TIP3    H231156   1.666   2.170   2.752 -1.1657 -1.7101 -0.3388
 2321TIP3   OH231157   3.467   1.573   9.025 -0.0413  0.4385 -0.2575
 2321TIP3    H131158   3.522   1.515   8.972  1.2303  1.1020  0.3017
 2321TIP3    H231159   3.399   1.515   9.060  0.2890 -0.3963 -0.9600
 2322TIP3   OH231160   1.497   5.233   7.735 -0.1031  0.2846 -0.3836
 2322TIP3    H131161   1.499   5.326   7.711  1.3403  0.1809 -0.7686
 2322TIP3    H231162   1.588   5.205   7.728 -0.4971 -1.1274 -0.1085
 2323TIP3   OH231163   0.892   6.718   8.180  0.1576 -0.4374  0.0421
 2323TIP3    H131164   0.956   6.649   8.162  0.0505 -0.3341 -0.7874
 2323TIP3    H231165   0.911   6.746   8.269  0.7225 -0.9893  0.1018
 2324TIP3   OH231166   2.543   2.070   7.577 -0.0043  0.3749  0.4720
 2324TIP3    H131167   2.571   2.005   7.641  0.1292 -0.0818 -0.0351
 2324TIP3    H231168   2.610   2.138   7.581  1.3756 -0.8073 -0.8792
 2325TIP3   OH231169   1.013   0.996   6.800 -0.4395 -0.2158  0.2712
 2325TIP3    H131170   1.056   1.057   6.860  1.4836 -0.0417 -1.2218
 2325TIP3    H231171   0.983   1.051   6.728 -0.7738 -0.7301  0.0169
 2326TIP3   OH231172   7.048   5.604   7.685 -0.7602  0.4051  0.0649
 2326TIP3    H131173   6.966   5.595   7.638  0.2103 -0.7979 -1.4869
 2326TIP3    H231174   7.082   5.689   7.658 -1.4797  0.9299  0.7504
 2327TIP3   OH231175   5.220   1.956   0.600 -0.4414 -0.0238  0.0873
 2327TIP3    H131176   5.187   1.960   0.510  0.0005 -0.4022 -0.0970
 2327TIP3    H231177   5.146   1.985   0.654 -0.8937 -0.3361 -0.3542
 2328TIP3   OH231178   5.431   0.618   9.020  0.0326 -0.0895  0.4127
 2328TIP3    H131179   5.399   0.567   8.945 -1.9694 -0.3262  1.3683
 2328TIP3    H231180   5.522   0.638   8.998 -0.7338  0.6372 -2.4965
 2329TIP3   OH231181   3.988   2.401   2.397 -0.5885 -0.3050 -0.6651
 2329TIP3    H131182   4.039   2.471   2.437 -0.6947  0.1505 -1.3124
 2329TIP3    H231183   3.957   2.349   2.471 -0.6335  0.4107 -0.1683
 2330TIP3   OH231184   4.183   1.491   9.766 -0.4051 -0.4777 -0.0995
 2330TIP3    H131185   4.262   1.542   9.783  0.2886 -1.4004 -0.4672
 2330TIP3    H231186   4.114   1.556   9.754  0.2175  0.3306  0.6249
 2331TIP3   OH231187   4.400   6.840   7.364  0.2897  0.3532  0.0729
 2331TIP3    H131188   4.435   6.810   7.448 -0.1979 -1.5186 -0.3477
 2331TIP3    H231189   4.328   6.899   7.387 -1.1023 -1.6351  1.0268
 2332TIP3   OH231190   6.341   1.034   0.437 -0.4898  0.0825 -0.0151
 2332TIP3    H131191   6.252   1.069   0.430 -0.2195  0.7619 -0.1320
 2332TIP3    H231192   6.397   1.106   0.410  0.1747  0.1121  1.3459
 2333TIP3   OH231193   0.819   2.584   2.763  0.2768  0.1688 -0.2338
 2333TIP3    H131194   0.758   2.535   2.818  0.2156 -0.6708 -1.0364
 2333TIP3    H231195   0.856   2.650   2.822  0.1365 -0.6351  0.7864
 2334TIP3   OH231196   1.418   2.362   7.879  0.3041 -0.5194 -0.1690
 2334TIP3    H131197   1.407   2.312   7.960 -0.3404  0.9726  0.7093
 2334TIP3    H231198   1.490   2.423   7.898  0.3370 -0.3431 -0.8195
 2335TIP3   OH231199   5.332   6.512   1.006  0.4643 -0.3910 -0.4554
 2335TIP3    H131200   5.238   6.529   0.999  0.4555 -0.1800  0.0931
 2335TIP3    H231201   5.357   6.476   0.921  0.1238  0.6985 -1.0307
 2336TIP3   OH231202   2.182   2.996   1.885  0.0103 -0.6145 -0.0619
 2336TIP3    H131203   2.247   2.926   1.878 -0.8154 -1.4074 -0.0349
 2336TIP3    H231204   2.209   3.047   1.962 -1.0411 -2.7255  1.8302
 2337TIP3   OH231205   5.562   6.414   7.495 -0.7988 -0.5403 -0.3189
 2337TIP3    H131206   5.580   6.339   7.439  1.5807 -0.5710  0.3959
 2337TIP3    H231207   5.552   6.376   7.583  1.0953  0.0012  0.1575
 2338TIP3   OH231208   2.489   7.539   0.625  0.7386  0.3381 -0.0335
 2338TIP3    H131209   2.476   7.476   0.554  0.2569  1.4346 -0.9414
 2338TIP3    H231210   2.481   7.487   0.705  1.0718 -0.8805 -0.7736
 2339TIP3   OH231211   3.820   6.501   9.217  0.3524 -0.8260  0.4720
 2339TIP3    H131212   3.771   6.528   9.139  0.4205 -1.3878  0.2324
 2339TIP3    H231213   3.837   6.583   9.264 -2.1680 -0.7641  1.4019
 2340TIP3   OH231214   3.391   0.225   9.598  0.5562 -0.2335 -0.6752
 2340TIP3    H131215   3.442   0.300   9.569  1.7873 -0.5340  0.5740
 2340TIP3    H231216   3.423   0.207   9.687 -0.6655 -1.3921 -0.4300
 2341TIP3   OH231217   1.861   0.996   9.329  0.3487 -0.0489  0.0514
 2341TIP3    H131218   1.913   1.076   9.320 -0.9383  0.5934 -2.8074
 2341TIP3    H231219   1.777   1.025   9.365 -0.0763 -0.1003 -0.8709
 2342TIP3   OH231220   3.080   7.529   8.002 -0.2845  0.0148 -0.2525
 2342TIP3    H131221   3.084   7.616   7.962  0.8550 -0.4119 -1.1162
 2342TIP3    H231222   2.988   7.519   8.028 -0.8354  0.7434 -1.7883
 2343TIP3   OH231223   0.460   0.971   2.625 -0.0179 -0.3002 -0.3621
 2343TIP3    H131224   0.469   0.879   2.600 -0.9371 -0.1417 -1.3487
 2343TIP3    H231225   0.378   0.999   2.584 -1.8476 -0.0736  3.1275
 2344TIP3   OH231226   6.757   6.738   9.912  0.0833  0.0216 -0.2924
 2344TIP3    H131227   6.831   6.765   9.966  1.1833 -0.1992 -1.6134
 2344TIP3    H231228   6.740   6.648   9.937 -0.7460  0.5294  1.0707
 2345TIP3   OH231229   6.277   3.142   8.402  0.0920 -0.0210  0.2167
 2345TIP3    H131230   6.278   3.085   8.325  0.6694  0.5965 -0.2358
 2345TIP3    H231231   6.260   3.082   8.475 -0.2763 -0.6383 -0.3569
 2346TIP3   OH231232   1.326   0.718   8.384  0.2338 -0.6784  0.6132
 2346TIP3    H131233   1.331   0.624   8.400  3.5661 -0.2132  3.1283
 2346TIP3    H231234   1.351   0.728   8.292  0.1861 -2.1791  0.4162
 2347TIP3   OH231235   7.449   4.438   8.165  0.3493 -0.1926 -0.1403
 2347TIP3    H131236   7.513   4.430   8.094  0.5073  0.7920 -0.1282
 2347TIP3    H231237   7.468   4.523   8.204  1.0055 -1.1707  1.8129
 2348TIP3   OH231238   4.113   0.972   8.126 -0.0548 -0.3481 -0.3558
 2348TIP3    H131239   4.109   0.954   8.033 -0.0051 -2.6068  0.0258
 2348TIP3    H231240   4.199   1.012   8.139 -0.0719  0.0005 -1.2740
 2349TIP3   OH231241   1.644   2.038   0.872  0.2273  0.4226 -0.2127
 2349TIP3    H131242   1.676   2.128   0.861 -0.8620  0.7771 -0.6093
 2349TIP3    H231243   1.715   1.993   0.917  1.4804  1.0506 -1.4841
 2350TIP3   OH231244   6.865   3.634   1.776 -0.0916 -0.6601  0.0663
 2350TIP3    H131245   6.849   3.631   1.870 -0.5956 -0.6000 -0.0158
 2350TIP3    H231246   6.825   3.715   1.746  1.7107  0.2889  0.0848
 2351TIP3   OH231247   1.636   1.706   0.746 -0.2305  0.0647 -0.1552
 2351TIP3    H131248   1.604   1.773   0.806 -3.5024 -0.6033 -0.9475
 2351TIP3    H231249   1.622   1.743   0.659  3.3808  0.5551 -0.6848
 2352TIP3   OH231250   0.603   6.768   0.837 -0.6138  0.0016  0.0180
 2352TIP3    H131251   0.679   6.762   0.894  0.2051 -0.3201 -1.0892
 2352TIP3    H231252   0.550   6.838   0.876  0.9130  1.1951  0.0298
 2353TIP3   OH231253   6.083   3.393   8.962  0.5368 -0.3702  0.2242
 2353TIP3    H131254   6.150   3.356   9.020  1.4198 -2.0473 -1.7609
 2353TIP3    H231255   6.126   3.401   8.877 -0.5595  2.5381 -0.1987
 2354TIP3   OH231256   0.472   5.130   2.572 -0.4709  0.2159 -0.6748
 2354TIP3    H131257   0.419   5.155   2.648 -0.0670 -1.7991  0.3561
 2354TIP3    H231258   0.435   5.046   2.544  2.2853 -1.4362  0.2917
 2355TIP3   OH231259   6.444   2.443   0.661  0.1440 -0.3266  0.0348
 2355TIP3    H131260   6.511   2.497   0.619  1.0303 -1.1411  0.3823
 2355TIP3    H231261   6.403   2.395   0.590 -0.1798  0.2716 -0.1944
 2356TIP3   OH231262   6.266   2.297   8.575  0.0108  0.5828 -0.0055
 2356TIP3    H131263   6.284   2.369   8.515  1.4011 -0.0574 -0.3793
 2356TIP3    H231264   6.288   2.218   8.526  1.4865  0.0515  1.4326
 2357TIP3   OH231265   1.728   5.089   1.322 -0.0182  0.1207 -0.5959
 2357TIP3    H131266   1.719   5.095   1.227  1.1641  0.7804 -0.6790
 2357TIP3    H231267   1.792   5.019   1.335  0.2432  0.4189 -0.2958
 2358TIP3   OH231268   2.023   2.694   1.739 -0.3190  0.1613  0.3112
 2358TIP3    H131269   1.960   2.656   1.678 -1.3758 -0.4547  1.7269
 2358TIP3    H231270   2.079   2.749   1.685 -3.1411  2.1622 -0.7879
 2359TIP3   OH231271   3.046  -0.007   9.583  0.5117 -0.6909  0.4710
 2359TIP3    H131272   2.966   0.023   9.626  0.4088 -0.8760  0.4092
 2359TIP3    H231273   3.030  -0.099   9.562  1.0420 -0.9453  1.1543
 2360TIP3   OH231274   2.920   3.095   2.499  0.1213  0.0827  0.0813
 2360TIP3    H131275   2.835   3.107   2.541  0.1562  0.4234  0.0625
 2360TIP3    H231276   2.902   3.097   2.405  0.2790  1.2217  0.0651
 2361TIP3   OH231277   3.265   2.774   0.461  0.5432 -0.4666 -0.5029
 2361TIP3    H131278   3.312   2.834   0.520  0.0571 -0.0608 -0.5250
 2361TIP3    H231279   3.228   2.708   0.519 -0.2322  0.1280 -0.3022
 2362TIP3   OH231280   7.005   0.682   9.371 -0.0019 -0.6055  0.3877
 2362TIP3    H131281   7.008   0.652   9.461  0.7210  1.1939  1.0083
 2362TIP3    H231282   7.033   0.773   9.375 -2.5190  0.3383 -1.3077
 2363TIP3   OH231283   6.226   2.567   7.829  0.4927  0.5024 -0.3446
 2363TIP3    H131284   6.282   2.618   7.771  1.1792 -0.4214 -0.5179
 2363TIP3    H231285   6.213   2.484   7.783  3.5387 -1.4939  2.0126
 2364TIP3   OH231286   4.700   0.518   8.197  0.4647 -0.1345  0.2852
 2364TIP3    H131287   4.755   0.528   8.276  0.5608 -1.2054  0.3773
 2364TIP3    H231288   4.634   0.586   8.205  0.4933 -0.2053  1.2826
 2365TIP3   OH231289   6.783   1.058   0.485 -0.0402  0.0299  0.0241
 2365TIP3    H131290   6.868   1.084   0.450  0.6516  0.5744  1.9378
 2365TIP3    H231291   6.756   1.133   0.539  0.0957 -1.5724  2.4846
 2366TIP3   OH231292   3.002   7.664   7.495  0.1320 -0.0661  0.0171
 2366TIP3    H131293   3.076   7.671   7.435  0.2518  0.5670  0.2335
 2366TIP3    H231294   3.041   7.635   7.578 -0.1501 -1.8588 -0.4340
 2367TIP3   OH231295   2.076   1.378   1.452  0.1336  0.0945  0.2929
 2367TIP3    H131296   2.041   1.297   1.416  0.3235 -0.7032  1.8371
 2367TIP3    H231297   2.050   1.446   1.389 -1.8445 -0.8393  0.0453
 2368TIP3   OH231298   2.960   1.566   9.124 -0.0970 -0.4956  0.4084
 2368TIP3    H131299   3.031   1.625   9.151  0.2680 -1.0105  0.5961
 2368TIP3    H231300   3.003   1.502   9.068 -0.8103  0.4506 -1.3007
 2369TIP3   OH231301   1.549   3.117   2.308  0.3679  0.5694  0.1044
 2369TIP3    H131302   1.581   3.048   2.366 -0.5216  0.4341  0.4513
 2369TIP3    H231303   1.620   3.130   2.245  1.6972  1.2499  1.6661
 2370TIP3   OH231304   3.202   5.088   0.417 -0.3310 -0.1554  1.0212
 2370TIP3    H131305   3.142   5.051   0.352  1.5816 -1.5795 -0.0756
 2370TIP3    H231306   3.250   5.156   0.369 -0.7437  0.6515  1.7414
 2371TIP3   OH231307   0.947   7.185   0.619  0.1172  0.3681 -0.1039
 2371TIP3    H131308   0.979   7.238   0.546 -1.9256  1.0703 -0.5454
 2371TIP3    H231309   0.890   7.120   0.579 -0.4498  0.2948  0.7848
 2372TIP3   OH231310   2.860   0.566   8.173  1.0549 -0.9215 -0.0537
 2372TIP3    H131311   2.886   0.497   8.233  0.6164 -1.3264 -0.3233
 2372TIP3    H231312   2.765   0.561   8.170  1.0601 -0.7733 -0.6185
 2373TIP3   OH231313   0.919   4.169   8.306 -0.1600  0.2101  0.1431
 2373TIP3    H131314   0.854   4.200   8.368 -0.0098  0.0728  0.3707
 2373TIP3    H231315   0.985   4.239   8.303 -1.2877  1.2732 -1.5857
 2374TIP3   OH231316   5.915   5.411   9.053 -0.0380  0.6089  0.2861
 2374TIP3    H131317   5.820   5.420   9.059 -0.5517 -2.5912 -0.9565
 2374TIP3    H231318   5.943   5.391   9.142 -0.3515  2.3778  0.8179
 2375TIP3   OH231319   1.164   6.044   7.357 -0.4320  0.0827 -0.2802
 2375TIP3    H131320   1.259   6.035   7.372 -0.4946 -0.4686 -0.2010
 2375TIP3    H231321   1.125   6.025   7.442 -0.5267  2.3951  0.2616
 2376TIP3   OH231322   3.556   6.327   8.806  0.0248  0.3647  0.0729
 2376TIP3    H131323   3.540   6.237   8.836  1.2926  0.2995  0.6010
 2376TIP3    H231324   3.611   6.316   8.728 -0.6067  0.6623 -0.4293
 2377TIP3   OH231325   1.921   3.481   7.623 -0.0559 -0.8132  0.6635
 2377TIP3    H131326   1.935   3.512   7.533 -1.6015  0.1097  0.6922
 2377TIP3    H231327   1.828   3.456   7.625 -0.2968  0.1000  2.2420
 2378TIP3   OH231328   2.150   5.611   9.766 -0.1280  0.4336 -0.3117
 2378TIP3    H131329   2.207   5.534   9.756 -0.3274  0.0803  1.0850
 2378TIP3    H231330   2.210   5.685   9.759  0.3526  0.0937  0.1142
 2379TIP3   OH231331   6.942   4.339   1.178  0.2464 -0.2594  0.0032
 2379TIP3    H131332   7.031   4.315   1.205  1.2194  1.3002 -1.5875
 2379TIP3    H231333   6.932   4.298   1.092 -0.5818 -0.3763  0.1493
 2380TIP3   OH231334   6.734   6.130   1.866  0.3347  0.0398  0.6103
 2380TIP3    H131335   6.768   6.203   1.919 -1.0065  0.7695  0.5140
 2380TIP3    H231336   6.640   6.130   1.884  0.1342 -0.8856 -0.3730
 2381TIP3   OH231337   3.442   6.507   9.631 -0.1670 -0.6219  0.3688
 2381TIP3    H131338   3.430   6.600   9.611  0.8447  0.2254  3.2393
 2381TIP3    H231339   3.523   6.483   9.587  0.5026  0.3790  1.0066
 2382TIP3   OH231340   4.346   7.666   2.154 -0.2631 -0.3854 -0.1062
 2382TIP3    H131341   4.292   7.733   2.196  0.8815  1.1097 -0.9277
 2382TIP3    H231342   4.384   7.710   2.078  2.4393 -1.2165  0.6473
 2383TIP3   OH231343   5.718   3.468   8.381  0.5156  0.1535 -0.3611
 2383TIP3    H131344   5.628   3.454   8.411  1.3086 -0.9196  1.7195
 2383TIP3    H231345   5.712   3.467   8.286 -2.0997  3.1634 -0.4144
 2384TIP3   OH231346   1.693   5.720   7.257 -0.3220 -0.4058  0.2365
 2384TIP3    H131347   1.762   5.739   7.194 -0.4320 -1.4312 -0.2048
 2384TIP3    H231348   1.641   5.801   7.261  0.8665  0.3756  0.5641
 2385TIP3   OH231349   5.288   4.750   8.252  0.1503  0.7973  0.1061
 2385TIP3    H131350   5.349   4.681   8.228  0.9582  1.2913  0.6944
 2385TIP3    H231351   5.283   4.746   8.348 -1.8887 -0.1866  0.0212
 2386TIP3   OH231352   4.530   0.835   9.134  0.0478  0.2972  0.2129
 2386TIP3    H131353   4.447   0.791   9.116  0.7469 -1.5633  1.2420
 2386TIP3    H231354   4.588   0.765   9.164  1.8327  1.6401  0.0522
 2387TIP3   OH231355   5.264   3.231   6.839  0.0699  0.9387  0.0846
 2387TIP3    H131356   5.234   3.321   6.822 -1.8380  0.2481 -0.5118
 2387TIP3    H231357   5.189   3.188   6.880  0.8183 -0.4822  0.0388
 2388TIP3   OH231358   0.230   2.738   8.499  0.0845  0.7275  0.2432
 2388TIP3    H131359   0.242   2.660   8.553  0.9679  0.2045 -0.6650
 2388TIP3    H231360   0.288   2.724   8.424 -0.3259  1.9091 -0.3190
 2389TIP3   OH231361   2.045   1.496   1.144  0.1253 -0.3731  0.7596
 2389TIP3    H131362   2.017   1.554   1.073  0.1721 -2.2376 -0.8372
 2389TIP3    H231363   1.965   1.453   1.173  0.6062 -2.6545 -1.0252
 2390TIP3   OH231364   6.223   7.310   1.644 -0.2872 -0.2099 -0.1926
 2390TIP3    H131365   6.232   7.260   1.564  0.3332  0.3560 -0.4899
 2390TIP3    H231366   6.160   7.379   1.623  0.0919  0.1137 -0.2954
 2391TIP3   OH231367   7.121   3.092   0.609  0.3760  0.1791  0.3267
 2391TIP3    H131368   7.030   3.081   0.581  0.8096 -0.1960 -1.0387
 2391TIP3    H231369   7.131   3.032   0.682 -0.0841 -0.9116 -0.4775
 2392TIP3   OH231370   4.762   6.558   8.845  0.2374  0.4422 -0.3402
 2392TIP3    H131371   4.816   6.501   8.900  1.9097  0.1973 -2.1087
 2392TIP3    H231372   4.774   6.645   8.882  0.5425  0.1517  0.2579
 2393TIP3   OH231373   5.859   5.407   7.973 -0.4913 -0.5118 -0.4068
 2393TIP3    H131374   5.936   5.352   7.987 -1.0131 -1.1934 -0.1657
 2393TIP3    H231375   5.892   5.497   7.981 -0.0869 -0.7986  1.6262
 2394TIP3   OH231376   4.102   0.393   1.300 -0.0379  0.2158  0.0507
 2394TIP3    H131377   4.019   0.356   1.271 -0.7194  0.7356  1.2328
 2394TIP3    H231378   4.128   0.453   1.230 -1.3970  1.1154  0.2807
 2395TIP3   OH231379   5.294   4.916   7.687  0.3311 -0.4043  0.3168
 2395TIP3    H131380   5.376   4.904   7.735  1.8878  0.7608 -1.9030
 2395TIP3    H231381   5.299   4.854   7.614  1.3690  2.5410 -2.3425
 2396TIP3   OH231382   0.940   6.565   2.099 -0.6773  0.0257  0.7128
 2396TIP3    H131383   0.869   6.571   2.163 -0.7752 -0.1846  0.6228
 2396TIP3    H231384   1.019   6.584   2.150 -0.7796  0.0906  0.8488
 2397TIP3   OH231385   1.794   5.134   9.453  0.4969  0.6760 -0.1846
 2397TIP3    H131386   1.860   5.171   9.395  0.2396 -0.4476 -1.2391
 2397TIP3    H231387   1.796   5.190   9.531  0.9598  2.1244 -1.1961
 2398TIP3   OH231388   7.488   2.515   2.472 -0.0918  0.1375 -0.6940
 2398TIP3    H131389   7.535   2.508   2.555 -1.8458  1.5567  0.4917
 2398TIP3    H231390   7.555   2.542   2.409  0.5985  3.2235  1.1534
 2399TIP3   OH231391   5.322   2.058   7.708  0.4613 -0.0114 -0.6859
 2399TIP3    H131392   5.246   2.001   7.699  0.6165 -0.2243 -0.6502
 2399TIP3    H231393   5.314   2.095   7.796  0.5422 -0.2375 -0.5847
 2400TIP3   OH231394   5.881   3.555   7.636  0.5425  0.1650  0.2474
 2400TIP3    H131395   5.799   3.601   7.616  0.2331 -0.9135 -1.0891
 2400TIP3    H231396   5.870   3.524   7.725 -1.2120 -1.3374 -0.4294
 2401TIP3   OH231397   0.969   7.094   2.539  0.3841  0.6837  0.2730
 2401TIP3    H131398   0.925   7.168   2.496 -1.0231  1.2275  2.4529
 2401TIP3    H231399   0.900   7.028   2.548  1.1716 -0.2022 -0.0519
 2402TIP3   OH231400   6.044   3.264   1.100  0.1469 -0.0855  0.9658
 2402TIP3    H131401   6.022   3.315   1.178  0.4927  1.9919 -0.2109
 2402TIP3    H231402   6.140   3.267   1.095  0.1143  0.0748  0.3128
 2403TIP3   OH231403   2.125   1.877   1.613  0.5319  0.1120 -0.0438
 2403TIP3    H131404   2.169   1.876   1.699  3.8648  0.2295 -1.5837
 2403TIP3    H231405   2.167   1.949   1.566 -0.5356 -0.5581 -2.1318
 2404TIP3   OH231406   1.465   5.514   7.702  0.2503  0.2956  0.2717
 2404TIP3    H131407   1.419   5.561   7.632  0.1535  0.4492  0.4378
 2404TIP3    H231408   1.551   5.557   7.707  0.2804  0.2428  0.2042
 2405TIP3   OH231409   3.039   3.498   8.502 -0.4506  0.0915 -0.1964
 2405TIP3    H131410   2.948   3.511   8.474 -0.7718 -1.7611 -0.1141
 2405TIP3    H231411   3.090   3.519   8.424 -1.1578 -1.8845 -1.2654
 2406TIP3   OH231412   3.732   2.098   8.078  0.0452 -0.0106 -0.3252
 2406TIP3    H131413   3.822   2.066   8.077  0.1988  0.3491  0.5642
 2406TIP3    H231414   3.721   2.140   7.993  1.1108  0.9604 -0.0189
 2407TIP3   OH231415   2.480   5.597   7.944 -0.1277  0.0867 -0.1332
 2407TIP3    H131416   2.454   5.622   8.033 -0.4604  2.7632 -0.9054
 2407TIP3    H231417   2.575   5.583   7.951 -0.4447 -2.0130  1.0453
 2408TIP3   OH231418   3.369   6.167   0.600 -0.7837  0.1376  0.3538
 2408TIP3    H131419   3.427   6.155   0.675 -1.0236  0.9884  0.6852
 2408TIP3    H231420   3.301   6.101   0.611  0.3151 -1.1518 -0.2572
 2409TIP3   OH231421   5.329   1.218   2.533  0.2453 -1.2040  0.0471
 2409TIP3    H131422   5.334   1.186   2.623  0.2668 -0.4244  0.3325
 2409TIP3    H231423   5.246   1.185   2.501 -0.7272  0.1689  1.0297
 2410TIP3   OH231424   6.308   4.969   9.782  0.2107 -0.0470  0.2890
 2410TIP3    H131425   6.377   4.995   9.844  0.4994  0.1503 -0.1072
 2410TIP3    H231426   6.309   4.874   9.785  1.6647 -0.1147 -0.9364
 2411TIP3   OH231427   4.119   0.447   1.909  0.5808  0.1650 -0.0491
 2411TIP3    H131428   4.044   0.485   1.955  1.0300  0.9077  0.0961
 2411TIP3    H231429   4.129   0.360   1.948  0.3925  0.4347  0.6285
 2412TIP3   OH231430   7.120   5.619   2.097  0.0988  0.2660  0.2737
 2412TIP3    H131431   7.185   5.604   2.165  0.4272  2.4871  0.5118
 2412TIP3    H231432   7.168   5.663   2.026 -0.9451  1.1655  0.0990
 2413TIP3   OH231433   0.615   6.538   6.901  0.3382 -0.7480  0.3867
 2413TIP3    H131434   0.700   6.582   6.903  0.1245 -0.3464  2.2067
 2413TIP3    H231435   0.594   6.530   6.808  1.7066  0.4370 -0.0540
 2414TIP3   OH231436   7.635   1.758   2.356 -0.1882 -0.0648 -0.6074
 2414TIP3    H131437   7.668   1.809   2.282 -0.2320  0.6493 -0.1392
 2414TIP3    H231438   7.540   1.774   2.355  0.0131  1.4040  0.6704
 2415TIP3   OH231439   4.155   6.188   7.345  0.5726 -0.4393 -0.0766
 2415TIP3    H131440   4.097   6.198   7.420  1.7550  0.4172  0.7657
 2415TIP3    H231441   4.139   6.099   7.314  0.6087 -1.1033  1.6825
 2416TIP3   OH231442   0.696   1.634   0.459  0.5244  0.7775  0.5399
 2416TIP3    H131443   0.662   1.717   0.493  0.7247  0.4789  1.4841
 2416TIP3    H231444   0.628   1.570   0.479  0.2447  0.7548 -0.4435
 2417TIP3   OH231445   6.230   4.253   7.850  0.1817 -0.1543 -0.3296
 2417TIP3    H131446   6.162   4.186   7.847  0.3778 -0.3688 -0.0453
 2417TIP3    H231447   6.183   4.333   7.874 -0.3483  0.2212 -2.4677
 2418TIP3   OH231448   1.639   3.515   1.723  0.2295  0.0636 -0.1826
 2418TIP3    H131449   1.677   3.529   1.809 -0.0702  2.3004 -0.3494
 2418TIP3    H231450   1.683   3.578   1.666  0.2045 -1.1481 -1.6197
 2419TIP3   OH231451   0.287   6.444   2.331  0.4472  0.3579 -0.1122
 2419TIP3    H131452   0.364   6.398   2.365 -0.4663 -0.0304  1.6087
 2419TIP3    H231453   0.213   6.390   2.360 -0.5079  1.0031 -1.2440
 2420TIP3   OH231454   0.471   3.193   2.487 -0.0337 -0.0280 -0.2433
 2420TIP3    H131455   0.454   3.287   2.498  1.7736  0.2869  0.1764
 2420TIP3    H231456   0.512   3.166   2.569  1.8495 -0.5507 -1.2798
 2421TIP3   OH231457   0.758   3.033   1.842  1.0271 -0.7545  0.1144
 2421TIP3    H131458   0.687   2.970   1.857  1.4217 -1.1430  0.3813
 2421TIP3    H231459   0.716   3.107   1.799  0.1993 -0.3808  1.5099
 2422TIP3   OH231460   1.152   6.413   8.524 -0.1709  0.4002  0.2141
 2422TIP3    H131461   1.092   6.355   8.476 -0.7226  0.4419  0.8360
 2422TIP3    H231462   1.202   6.457   8.455 -1.2799  0.8098 -0.3691
 2423TIP3   OH231463   4.810   0.770   2.325 -1.0735 -0.1403 -0.0528
 2423TIP3    H131464   4.783   0.782   2.416 -0.2653 -0.3215  0.2188
 2423TIP3    H231465   4.905   0.786   2.325 -0.9087 -1.0426 -0.6953
 2424TIP3   OH231466   6.753   2.151   1.149  0.4239 -0.1270  0.1475
 2424TIP3    H131467   6.786   2.240   1.132  3.1766 -0.9865  0.5826
 2424TIP3    H231468   6.716   2.123   1.065 -1.0549  1.5973  0.1626
 2425TIP3   OH231469   0.251   5.747   9.727  0.0921 -0.1092 -0.4554
 2425TIP3    H131470   0.202   5.680   9.776 -0.7783  1.3198  0.7170
 2425TIP3    H231471   0.329   5.763   9.781 -0.1809  0.4836 -0.2281
 2426TIP3   OH231472   5.275   7.124   2.125 -0.2155 -0.4144  0.1994
 2426TIP3    H131473   5.289   7.213   2.156 -2.0424  0.1436 -0.4252
 2426TIP3    H231474   5.250   7.075   2.203 -3.7195  0.7297 -0.0488
 2427TIP3   OH231475   5.515   5.043   8.259  0.0960  0.5411  0.4877
 2427TIP3    H131476   5.595   5.050   8.311  0.9358  1.0454 -0.8144
 2427TIP3    H231477   5.475   5.130   8.264  0.4129  0.7250 -0.0420
 2428TIP3   OH231478   2.430   6.620   2.763 -0.0548  0.2493  0.0491
 2428TIP3    H131479   2.518   6.599   2.792 -0.3643  0.8854  1.5229
 2428TIP3    H231480   2.414   6.709   2.795 -1.3039  0.0746 -0.0241
 2429TIP3   OH231481   4.095   6.484   0.629 -0.0948 -0.1775  0.1914
 2429TIP3    H131482   4.005   6.453   0.625 -0.6863  1.2516  1.6062
 2429TIP3    H231483   4.103   6.524   0.715  1.7467  0.2094 -0.1175
 2430TIP3   OH231484   6.067   2.531   9.079  0.2108  0.1923  0.2054
 2430TIP3    H131485   6.075   2.498   8.990  1.9884  0.0756  0.3763
 2430TIP3    H231486   5.974   2.523   9.100 -0.2155  0.1746 -1.6042
 2431TIP3   OH231487   6.833   2.964   8.631 -0.9836 -0.8510  0.5806
 2431TIP3    H131488   6.752   2.925   8.600 -0.5533 -1.8375  0.6728
 2431TIP3    H231489   6.875   2.999   8.552 -1.0531 -1.1675  0.4039
 2432TIP3   OH231490   1.500   3.620   2.397  0.0005  0.2276 -0.3286
 2432TIP3    H131491   1.580   3.672   2.400  1.1837 -1.5120 -0.2882
 2432TIP3    H231492   1.518   3.545   2.453 -0.6442 -1.5529 -2.3835
 2433TIP3   OH231493   5.119   3.157   7.841 -0.1752  0.2950  0.1387
 2433TIP3    H131494   5.199   3.161   7.893 -1.2945  1.0848  1.8715
 2433TIP3    H231495   5.097   3.248   7.824 -1.4719  0.1323  0.8991
 2434TIP3   OH231496   5.474   2.635   9.043  0.3337 -0.3764  0.0240
 2434TIP3    H131497   5.520   2.637   9.127  0.4475 -0.5429 -0.0352
 2434TIP3    H231498   5.449   2.544   9.031 -0.0630 -0.2786  0.0814
 2435TIP3   OH231499   6.446   2.920   1.396  0.3815  0.4191  0.1896
 2435TIP3    H131500   6.412   2.981   1.461  2.4355 -1.1481  2.9644
 2435TIP3    H231501   6.398   2.839   1.411  1.1363 -0.0646  0.0791
 2436TIP3   OH231502   0.464   7.682   1.051 -0.1833  0.2361  0.3228
 2436TIP3    H131503   0.437   7.592   1.030  1.9341 -0.2171 -0.8012
 2436TIP3    H231504   0.408   7.737   0.997 -0.8019 -0.4770  0.2201
 2437TIP3   OH231505   4.682   6.657   1.133 -0.0076  0.2228 -0.3903
 2437TIP3    H131506   4.749   6.647   1.201  0.4741  0.4095 -0.8294
 2437TIP3    H231507   4.697   6.744   1.098 -1.9552  1.2200  1.0521
 2438TIP3   OH231508  -0.012   5.852   8.640 -0.4981  0.1650  0.1283
 2438TIP3    H131509  -0.039   5.766   8.608 -1.3670 -0.1664  1.6390
 2438TIP3    H231510  -0.069   5.914   8.594 -0.5983 -0.1576 -0.1796
 2439TIP3   OH231511   1.779   6.515   7.713  0.4739  0.1273 -0.6935
 2439TIP3    H131512   1.783   6.576   7.786  0.9780  0.2539 -0.8170
 2439TIP3    H231513   1.732   6.562   7.644 -2.3329 -0.9062  0.3704
 2440TIP3   OH231514   1.470   2.781   8.550 -0.0234 -0.4157 -0.0338
 2440TIP3    H131515   1.445   2.714   8.487 -2.5847  0.0697  0.3371
 2440TIP3    H231516   1.509   2.733   8.622 -0.2597 -1.3395 -0.5058
 2441TIP3   OH231517   5.395   6.923   8.102 -0.1609  0.1906  0.2238
 2441TIP3    H131518   5.480   6.878   8.105 -0.1647  0.1930  0.3872
 2441TIP3    H231519   5.344   6.874   8.038 -0.4176 -0.4747  0.9273
 2442TIP3   OH231520   5.245   6.921   9.418 -0.3248 -0.2279  0.2669
 2442TIP3    H131521   5.300   6.994   9.390  1.7504 -1.7402  0.2501
 2442TIP3    H231522   5.184   6.960   9.481  0.4667  1.5797 -0.0343
 2443TIP3   OH231523   7.556   6.451   1.706 -0.3704  0.2804  0.1648
 2443TIP3    H131524   7.596   6.375   1.748  0.9508  1.4027  1.0688
 2443TIP3    H231525   7.466   6.452   1.739 -0.5896 -1.2142 -0.3503
 2444TIP3   OH231526   2.314   4.096   8.267 -0.0072 -0.0890 -1.1172
 2444TIP3    H131527   2.268   4.180   8.277 -2.2842 -1.1210 -2.0900
 2444TIP3    H231528   2.404   4.120   8.245  0.5098  2.0854  2.5109
 2445TIP3   OH231529   5.315   3.217   8.090  0.2055 -0.0380 -0.0855
 2445TIP3    H131530   5.381   3.152   8.114  1.8420  1.7441  0.5174
 2445TIP3    H231531   5.256   3.219   8.165  0.7839 -0.0598  0.3805
 2446TIP3   OH231532   0.571   4.470   9.190 -0.0459 -0.4995 -1.0265
 2446TIP3    H131533   0.570   4.487   9.096 -0.2550 -1.6767 -1.2492
 2446TIP3    H231534   0.576   4.375   9.198  1.2985 -0.3659  0.1700
 2447TIP3   OH231535   3.056   1.207   2.018  0.0529  0.6691 -0.5322
 2447TIP3    H131536   3.080   1.289   2.062  0.7214  0.1875  0.0317
 2447TIP3    H231537   3.003   1.234   1.944 -0.3937  1.5611  0.0975
 2448TIP3   OH231538   3.437   6.628   1.310 -0.1005 -0.1187  0.1777
 2448TIP3    H131539   3.527   6.658   1.301 -0.0220 -0.4881 -0.2678
 2448TIP3    H231540   3.415   6.646   1.402  0.5135 -0.2711  0.3587
 2449TIP3   OH231541   0.656   1.838   2.592  0.0561  0.3720 -0.5115
 2449TIP3    H131542   0.646   1.745   2.614 -0.0638  0.7697  1.2613
 2449TIP3    H231543   0.746   1.845   2.560  1.1177  0.1034  2.1755
 2450TIP3   OH231544   2.292   5.329   7.944  0.1463 -0.1318  0.3715
 2450TIP3    H131545   2.209   5.289   7.918  0.1606  0.2609 -0.3004
 2450TIP3    H231546   2.328   5.366   7.863  2.1603 -2.3816  0.1128
 2451TIP3   OH231547   0.094   3.332   7.916 -0.5923  0.3022 -0.0924
 2451TIP3    H131548   0.091   3.424   7.890  1.5380 -0.0173 -1.8279
 2451TIP3    H231549   0.188   3.311   7.918 -1.0272 -1.8780  0.0618
 2452TIP3   OH231550   6.133   1.702   8.839  0.1276  0.2620  0.4885
 2452TIP3    H131551   6.218   1.683   8.879 -0.7824 -0.2454  2.3215
 2452TIP3    H231552   6.084   1.746   8.909 -0.9843  0.9116 -0.6673
 2453TIP3   OH231553   3.161   4.580   9.287  0.3670 -0.4721  1.2935
 2453TIP3    H131554   3.158   4.574   9.383  2.2253 -1.2145  1.3555
 2453TIP3    H231555   3.198   4.496   9.259 -2.2731 -1.2309 -0.2926
 2454TIP3   OH231556   2.033   5.386   8.493 -0.4035 -0.1052 -0.3585
 2454TIP3    H131557   2.114   5.353   8.532  0.9169 -0.0032 -2.8249
 2454TIP3    H231558   1.988   5.429   8.566  3.2519  2.6977  0.5677
 2455TIP3   OH231559   4.178   7.566   8.006 -0.0052  0.2266  0.5907
 2455TIP3    H131560   4.165   7.492   7.946 -1.1346  1.2241 -0.4568
 2455TIP3    H231561   4.246   7.537   8.066  0.7755 -1.0235 -0.8405
 2456TIP3   OH231562   6.224   0.801   7.308 -0.2994 -0.2887 -0.3064
 2456TIP3    H131563   6.207   0.720   7.259  0.5001 -0.1171 -0.8806
 2456TIP3    H231564   6.304   0.837   7.269 -0.1455  0.3170  0.5428
 2457TIP3   OH231565   0.080   7.518   7.363  0.3275 -0.9523 -0.0030
 2457TIP3    H131566  -0.009   7.553   7.364  0.5577 -0.2068  2.4048
 2457TIP3    H231567   0.135   7.593   7.388  1.1682 -2.2420  2.2907
 2458TIP3   OH231568   5.653   1.279   1.688  0.0072  0.1760 -0.0610
 2458TIP3    H131569   5.714   1.206   1.701  1.7063  1.3469 -1.0362
 2458TIP3    H231570   5.577   1.240   1.647  0.3088 -1.2523  0.6719
 2459TIP3   OH231571   4.146   2.217   1.626 -0.0351  0.5311  0.5401
 2459TIP3    H131572   4.078   2.284   1.626  1.0905  1.7436  1.7063
 2459TIP3    H231573   4.175   2.213   1.717  3.0740  1.8192 -0.2782
 2460TIP3   OH231574   4.979   6.808   9.851 -0.4489  0.4278 -0.0368
 2460TIP3    H131575   4.886   6.828   9.838 -0.5189  0.3106  0.2835
 2460TIP3    H231576   4.982   6.761   9.934 -0.1951 -0.2599 -0.4267
 2461TIP3   OH231577   6.373   6.639   8.721  0.1559 -0.4593 -0.4486
 2461TIP3    H131578   6.457   6.679   8.698  0.0061 -0.4332 -0.9713
 2461TIP3    H231579   6.396   6.554   8.757  0.5308  0.3878  1.4373
 2462TIP3   OH231580   7.454   0.406   6.960 -0.5414  0.3159  0.1089
 2462TIP3    H131581   7.511   0.468   7.006  0.1425 -0.0327 -0.2535
 2462TIP3    H231582   7.444   0.332   7.021  1.0314 -0.5157 -0.5809
 2463TIP3   OH231583   4.613   2.527   7.683  0.3240  0.1664  0.1077
 2463TIP3    H131584   4.630   2.434   7.700  0.4683  0.2288  0.3152
 2463TIP3    H231585   4.696   2.571   7.706  0.6197  0.2280 -1.0155
 2464TIP3   OH231586   0.530   6.895   2.218 -0.0906 -0.0600  0.7505
 2464TIP3    H131587   0.447   6.849   2.233 -0.1206 -0.7313 -1.1501
 2464TIP3    H231588   0.514   6.984   2.249 -2.6796  0.7628 -2.3215
 2465TIP3   OH231589   3.962   0.726   1.239  0.0270 -0.0726 -0.2683
 2465TIP3    H131590   3.951   0.757   1.150  1.6307 -0.3606 -0.5966
 2465TIP3    H231591   3.929   0.636   1.237 -2.2510  0.6854  0.0753
 2466TIP3   OH231592   0.515   0.568   0.511 -0.0084 -0.0010 -0.3198
 2466TIP3    H131593   0.491   0.482   0.476 -1.0124  0.0142  0.2719
 2466TIP3    H231594   0.608   0.576   0.493 -0.0977 -0.8038 -1.2411
 2467TIP3   OH231595   6.918   2.415   9.277 -0.3392  0.1183 -0.4345
 2467TIP3    H131596   6.886   2.497   9.312 -0.7992  0.0505 -0.6904
 2467TIP3    H231597   6.931   2.359   9.354  1.9761  1.0913 -0.0339
 2468TIP3   OH231598   3.701   7.464   7.649  0.5036 -0.3014  0.2387
 2468TIP3    H131599   3.752   7.544   7.655 -1.0223  0.7861 -0.5410
 2468TIP3    H231600   3.694   7.433   7.739 -0.0110  1.2053  0.7412
 2469TIP3   OH231601   7.451   0.475   8.476  0.2216 -0.1271  0.0010
 2469TIP3    H131602   7.439   0.540   8.407 -1.2433 -0.8909 -0.5000
 2469TIP3    H231603   7.443   0.525   8.557  0.0389  0.4596 -0.3735
 2470TIP3   OH231604   6.405   0.305   9.855  0.1484 -0.0199  0.7870
 2470TIP3    H131605   6.346   0.309   9.780  0.5299 -1.3091  0.3918
 2470TIP3    H231606   6.358   0.256   9.921  0.4430 -0.3205  0.7781
 2471TIP3   OH231607   1.037   2.096   1.408  0.4125 -0.7435  0.0054
 2471TIP3    H131608   0.979   2.020   1.405  0.5040 -0.7870 -1.0831
 2471TIP3    H231609   0.977   2.172   1.412  0.2709 -0.8000 -0.8294
 2472TIP3   OH231610   0.221   7.325   6.712 -0.2705 -0.0778  0.2145
 2472TIP3    H131611   0.292   7.266   6.686 -0.1359 -0.4191  1.3096
 2472TIP3    H231612   0.157   7.268   6.755 -1.0328  0.2950 -0.3892
 2473TIP3   OH231613   3.904   2.037   0.600 -0.1799  0.1760  0.1476
 2473TIP3    H131614   3.864   1.971   0.544 -1.8291  0.7074  0.6461
 2473TIP3    H231615   3.851   2.116   0.588  1.5351  1.3633 -0.1846
 2474TIP3   OH231616   6.325   2.131   6.952  0.0974  0.3123 -0.6504
 2474TIP3    H131617   6.291   2.051   6.991 -0.3264  1.5067  1.6031
 2474TIP3    H231618   6.420   2.126   6.965 -0.0556  0.8105  0.8945
 2475TIP3   OH231619   4.461   0.272   9.143 -0.0030 -0.1797  0.0289
 2475TIP3    H131620   4.427   0.328   9.073  0.4304  0.4860  0.3365
 2475TIP3    H231621   4.466   0.185   9.104  1.1294  0.3496 -1.0843
 2476TIP3   OH231622   1.629   5.512   9.422  0.1549  0.1576  0.0708
 2476TIP3    H131623   1.608   5.499   9.514  1.6340  2.1364  0.7442
 2476TIP3    H231624   1.706   5.568   9.422 -0.1864  0.7602 -2.3790
 2477TIP3   OH231625   0.387   1.016   0.783 -0.0237 -0.1279  0.0343
 2477TIP3    H131626   0.388   0.992   0.875  0.6541  0.4690  0.1905
 2477TIP3    H231627   0.370   0.934   0.737  2.2623 -0.9854  0.5507
 2478TIP3   OH231628   0.427   6.857   8.796 -0.4053 -0.1168  0.0391
 2478TIP3    H131629   0.518   6.838   8.818  0.1171  2.6478  0.7130
 2478TIP3    H231630   0.428   6.874   8.702 -0.2124 -0.1158  0.0393
 2479TIP3   OH231631   7.547   0.226   7.842  0.1834 -0.5108 -0.8736
 2479TIP3    H131632   7.587   0.246   7.757 -0.3191  1.1803 -0.7556
 2479TIP3    H231633   7.601   0.272   7.906  0.6508 -1.9004 -0.2274
 2480TIP3   OH231634   0.913   1.697   9.266 -0.0291 -0.4452 -0.6266
 2480TIP3    H131635   0.869   1.676   9.183 -0.7222  0.2843 -0.4603
 2480TIP3    H231636   0.854   1.663   9.333 -0.8080  1.2631 -0.3738
 2481TIP3   OH231637   0.100   4.400   0.944  0.4477  0.1858 -0.0766
 2481TIP3    H131638   0.018   4.392   0.895  0.6082  3.6024 -1.1693
 2481TIP3    H231639   0.104   4.320   0.997 -2.4191 -1.1685 -1.6453
 2482TIP3   OH231640   3.960   1.389   2.803  0.5131 -0.9230  0.0701
 2482TIP3    H131641   3.904   1.357   2.732  1.0745 -1.1608 -0.2824
 2482TIP3    H231642   3.926   1.476   2.824  0.9598 -0.3973 -1.2199
 2483TIP3   OH231643   0.543   7.315   1.275 -0.4323  0.2324  0.2629
 2483TIP3    H131644   0.601   7.347   1.205 -1.7959  2.3589 -0.0073
 2483TIP3    H231645   0.462   7.292   1.230  0.2832 -3.4201  0.5324
 2484TIP3   OH231646   5.588   1.042   8.947  0.0147 -0.0347  0.1025
 2484TIP3    H131647   5.570   1.132   8.974 -2.4246 -0.5069  0.3102
 2484TIP3    H231648   5.618   1.050   8.857  1.2374  1.0704  0.5820
 2485TIP3   OH231649   5.707   6.051   9.986  0.1316  0.7271 -0.1318
 2485TIP3    H131650   5.654   6.082   9.913  1.0175  2.7453  0.0073
 2485TIP3    H231651   5.774   6.119   9.998  2.2486 -1.2878  0.2341
 2486TIP3   OH231652   4.629   7.138   8.144  0.1973  0.2254  0.9451
 2486TIP3    H131653   4.682   7.091   8.208 -1.1820 -0.0886  1.9198
 2486TIP3    H231654   4.660   7.229   8.149  2.4431 -0.3854 -0.4890
 2487TIP3   OH231655   6.297   3.866   8.660 -0.0785  0.3745  0.1129
 2487TIP3    H131656   6.316   3.780   8.623 -0.6442  0.6975 -0.9925
 2487TIP3    H231657   6.315   3.927   8.588  2.3602  1.4115  1.4953
 2488TIP3   OH231658   4.474   7.115   6.642  0.3727  0.0603 -0.4072
 2488TIP3    H131659   4.559   7.113   6.687  0.5965  0.3177 -0.8082
 2488TIP3    H231660   4.490   7.169   6.564 -0.3015  0.5830 -0.1948
 2489TIP3   OH231661   1.740   7.622   2.963  0.3859  0.4453  0.2881
 2489TIP3    H131662   1.810   7.567   2.928 -0.3224  0.0255 -0.5155
 2489TIP3    H231663   1.714   7.578   3.045 -0.5104 -0.7418 -0.5942
 2490TIP3   OH231664   1.218   2.720   7.058  0.2171  0.0891  0.6399
 2490TIP3    H131665   1.249   2.808   7.082  0.5759  0.5545 -1.3999
 2490TIP3    H231666   1.296   2.665   7.066  0.5485  0.4137 -0.2842
 2491TIP3   OH231667   2.014   5.659   1.728 -0.3118  0.0499 -0.1338
 2491TIP3    H131668   1.926   5.690   1.751  0.3304  1.4153  0.5842
 2491TIP3    H231669   2.023   5.576   1.774 -0.9752  0.2171  0.3215
 2492TIP3   OH231670   7.050   4.657   8.285  0.2611 -0.0876  0.1047
 2492TIP3    H131671   7.113   4.642   8.355  1.0167 -0.4310 -0.6336
 2492TIP3    H231672   7.068   4.746   8.255 -0.0072  0.0297  0.2862
 2493TIP3   OH231673   7.581   1.076   9.031 -1.2877 -0.0861  0.0307
 2493TIP3    H131674   7.531   1.072   8.950 -0.4228  0.6090 -0.5607
 2493TIP3    H231675   7.526   1.127   9.091 -0.6762  1.9985 -1.0969
 2494TIP3   OH231676   0.968   5.212   9.097 -0.3730  0.0271 -0.1393
 2494TIP3    H131677   0.973   5.157   9.019  0.0548  1.6488 -1.3065
 2494TIP3    H231678   1.008   5.295   9.070 -1.6554  1.1659  1.3297
 2495TIP3   OH231679   6.837   2.608   7.373 -0.0020  0.2083  0.8242
 2495TIP3    H131680   6.879   2.582   7.291 -0.1209  2.3301  0.0212
 2495TIP3    H231681   6.876   2.552   7.440 -0.8240 -2.4799 -0.8074
 2496TIP3   OH231682   0.466   1.014   9.448  0.2531 -0.8752 -0.5569
 2496TIP3    H131683   0.430   1.094   9.486  3.0674  0.6921 -0.8716
 2496TIP3    H231684   0.439   1.018   9.356 -1.6330 -1.6318 -0.0936
 2497TIP3   OH231685   6.788   3.949   9.958 -0.1850  0.0648  0.0044
 2497TIP3    H131686   6.818   4.040   9.962  1.6727 -0.4765 -0.6648
 2497TIP3    H231687   6.844   3.902  10.020 -2.5024 -0.3528  1.9588
 2498TIP3   OH231688   7.401   5.657   1.906  0.0642 -0.1060 -0.1745
 2498TIP3    H131689   7.319   5.628   1.867  0.9935  0.5563 -2.7936
 2498TIP3    H231690   7.430   5.729   1.850  2.1946  0.0032  0.9795
 2499TIP3   OH231691   1.173   0.572   7.005 -0.4517 -0.2888  0.2347
 2499TIP3    H131692   1.080   0.558   6.988 -0.7575  0.2793  1.2725
 2499TIP3    H231693   1.176   0.598   7.098  0.8397 -1.2179  0.4752
 2500TIP3   OH231694   0.026   3.621   9.026 -0.0202  0.6859  0.2489
 2500TIP3    H131695   0.069   3.547   9.070 -1.1905 -0.5526 -0.6266
 2500TIP3    H231696   0.064   3.698   9.067  1.6191 -0.3841  0.8469
 2501TIP3   OH231697   4.693   3.021   8.713 -0.3211 -0.4820  0.2663
 2501TIP3    H131698   4.718   3.068   8.793  0.8719  0.7203 -0.7727
 2501TIP3    H231699   4.621   3.072   8.677 -0.9128 -1.0704  0.5970
 2502TIP3   OH231700   7.263   6.181   8.074  0.0197  0.6620 -0.4498
 2502TIP3    H131701   7.346   6.160   8.032 -0.2075  0.1860 -0.6632
 2502TIP3    H231702   7.213   6.227   8.007 -0.1403  0.3696 -0.5312
 2503TIP3   OH231703   6.381   2.726   7.632  0.2506  0.8967  0.2900
 2503TIP3    H131704   6.437   2.692   7.562  1.3706  1.7074  0.7606
 2503TIP3    H231705   6.321   2.786   7.588  1.6639  2.2454  0.1295
 2504TIP3   OH231706   6.663   5.563   1.463  0.0164 -0.6900  0.0788
 2504TIP3    H131707   6.627   5.545   1.550 -0.9453  2.2817  0.3989
 2504TIP3    H231708   6.671   5.658   1.459  1.8175 -0.8463 -2.4324
 2505TIP3   OH231709   6.696   4.287   0.631  0.4851 -0.4368 -0.4609
 2505TIP3    H131710   6.771   4.252   0.583  0.2399  0.8112 -1.8060
 2505TIP3    H231711   6.628   4.300   0.565 -0.3435  0.0531  0.4504
 2506TIP3   OH231712   3.669   5.287   9.401  0.4220  0.6256 -0.0844
 2506TIP3    H131713   3.718   5.358   9.442  1.0070  0.9100 -1.2363
 2506TIP3    H231714   3.668   5.309   9.308 -0.4098 -0.2749 -0.3054
 2507TIP3   OH231715   7.439   3.194   1.613 -0.4866 -0.3807 -0.1555
 2507TIP3    H131716   7.514   3.245   1.643 -1.1115  0.2440  0.3716
 2507TIP3    H231717   7.377   3.259   1.579 -0.2848 -0.9775 -1.7601
 2508TIP3   OH231718   6.523   0.719   9.953  0.3562 -0.3070  0.0082
 2508TIP3    H131719   6.515   0.679  10.040  0.5139 -0.6000 -0.1106
 2508TIP3    H231720   6.441   0.696   9.909  0.6445 -0.9009 -0.2239
 2509TIP3   OH231721   4.263   1.132   0.263 -0.3340  0.9968 -0.0204
 2509TIP3    H131722   4.350   1.156   0.231  0.1462  0.7122  1.0314
 2509TIP3    H231723   4.234   1.208   0.314  0.0921  0.3944  1.1564
 2510TIP3   OH231724   1.451   4.658   0.528  0.7849  0.8331  0.2297
 2510TIP3    H131725   1.523   4.609   0.486 -0.9612 -2.0131  0.2685
 2510TIP3    H231726   1.387   4.671   0.458 -1.3164 -2.2763  1.3749
 2511TIP3   OH231727   1.730   0.433   1.943  0.0083 -0.4648 -0.0104
 2511TIP3    H131728   1.682   0.506   1.983  0.3746 -0.1374 -0.1539
 2511TIP3    H231729   1.810   0.426   1.995  0.4433 -0.1002 -0.6177
 2512TIP3   OH231730   4.089   7.566   2.455 -0.3586 -0.0566 -0.0823
 2512TIP3    H131731   4.021   7.597   2.396 -0.5979 -0.0802  0.1756
 2512TIP3    H231732   4.109   7.642   2.511 -1.5335 -0.5649  1.0982
 2513TIP3   OH231733   6.176   2.894   7.227  0.0622  0.1410 -0.1064
 2513TIP3    H131734   6.271   2.890   7.224  0.2744  2.4652  1.1168
 2513TIP3    H231735   6.147   2.841   7.153  2.3426  0.5978 -1.4044
 2514TIP3   OH231736   4.423   2.507   9.436 -0.2339 -0.0098 -0.2374
 2514TIP3    H131737   4.328   2.503   9.424  0.0709 -0.0031 -3.1776
 2514TIP3    H231738   4.442   2.435   9.497 -2.0068 -0.6789 -0.4071
 2515TIP3   OH231739   0.892   4.094   7.394  0.2397  0.0739  0.0555
 2515TIP3    H131740   0.931   4.110   7.479  1.3030 -0.2798 -0.3535
 2515TIP3    H231741   0.826   4.163   7.385 -1.4011 -1.1249  2.0403
 2516TIP3   OH231742   1.318   1.058   2.416  0.2328  0.0709  0.6389
 2516TIP3    H131743   1.287   0.973   2.448 -0.5577 -0.0871 -0.4730
 2516TIP3    H231744   1.240   1.099   2.378  0.7438  1.0319  0.5867
 2517TIP3   OH231745   2.626   0.349   2.900 -0.1049 -0.4465 -0.0004
 2517TIP3    H131746   2.618   0.438   2.936  1.6409  0.6571 -2.0945
 2517TIP3    H231747   2.545   0.336   2.851  0.0004  0.3665 -0.4129
 2518TIP3   OH231748   2.477   4.384   9.244 -0.5588 -0.5008  0.4256
 2518TIP3    H131749   2.478   4.314   9.178  1.7304 -0.0213 -0.1631
 2518TIP3    H231750   2.408   4.359   9.305 -1.6504 -1.8240 -1.2599
 2519TIP3   OH231751   2.529   3.641   0.083  0.0104 -0.0225 -0.2145
 2519TIP3    H131752   2.505   3.548   0.089 -0.2952 -0.0271 -1.2638
 2519TIP3    H231753   2.452   3.687   0.117  0.4134 -0.1565  0.9184
 2520TIP3   OH231754   7.017   6.308   0.813 -0.8072 -0.2178  0.3463
 2520TIP3    H131755   7.099   6.350   0.838 -0.0722 -1.1997 -0.3670
 2520TIP3    H231756   7.023   6.295   0.718 -2.3370  0.8436  0.0547
 2521TIP3   OH231757   0.874   4.324   0.957  0.4814 -0.1096  0.7989
 2521TIP3    H131758   0.843   4.348   1.044 -1.4850  0.6740 -0.0706
 2521TIP3    H231759   0.847   4.233   0.946  1.1281 -0.3549  1.1454
 2522TIP3   OH231760   7.084   7.156   7.770 -0.2739  0.3616  0.0644
 2522TIP3    H131761   7.054   7.086   7.829 -0.6896 -1.0287 -1.7152
 2522TIP3    H231762   7.044   7.135   7.686  1.4260  1.4909 -1.0828
 2523TIP3   OH231763   3.887   4.266   7.283 -0.2035 -0.6894  0.3603
 2523TIP3    H131764   3.948   4.336   7.306  0.3559 -1.3051  0.7661
 2523TIP3    H231765   3.834   4.253   7.361 -0.8776 -0.1455  0.0035
 2524TIP3   OH231766   5.682   6.264   8.387 -0.0994 -0.3513 -0.1904
 2524TIP3    H131767   5.666   6.183   8.338  0.3811 -0.8113  0.3982
 2524TIP3    H231768   5.728   6.235   8.466 -1.7409  0.2552  1.0306
 2525TIP3   OH231769   7.571   1.558   7.059  0.5194 -0.5047  0.3131
 2525TIP3    H131770   7.492   1.581   7.011  0.4132 -1.9513 -0.2772
 2525TIP3    H231771   7.628   1.635   7.051  0.0712 -0.3002 -1.2305
 2526TIP3   OH231772   5.743   1.162   0.809 -0.0736  0.5773  0.2983
 2526TIP3    H131773   5.666   1.180   0.754  0.7667  0.9114 -0.7952
 2526TIP3    H231774   5.724   1.207   0.892 -1.5236 -0.2342  0.4579
 2527TIP3   OH231775   1.768   7.526   8.493  0.4192  0.1439 -0.4940
 2527TIP3    H131776   1.710   7.537   8.568  0.3399  0.8762 -0.6581
 2527TIP3    H231777   1.801   7.436   8.501 -2.0198 -0.9054 -1.2787
 2528TIP3   OH231778   7.396   5.060   7.632  0.7838  0.3903  0.0099
 2528TIP3    H131779   7.422   5.023   7.716  0.3047  1.9232  0.8633
 2528TIP3    H231780   7.300   5.058   7.633  0.7778  0.0844 -0.6592
 2529TIP3   OH231781   3.375   1.189   0.129 -0.1510 -0.1353 -0.1780
 2529TIP3    H131782   3.424   1.187   0.212 -1.6337 -0.9578  0.7262
 2529TIP3    H231783   3.298   1.136   0.146 -1.0773  0.6437 -1.7431
 2530TIP3   OH231784   2.319   5.452   2.391 -0.6840  0.2865 -0.1507
 2530TIP3    H131785   2.300   5.364   2.423  1.5626 -0.1101  0.2738
 2530TIP3    H231786   2.345   5.501   2.469 -0.3601  0.8515 -0.6061
 2531TIP3   OH231787   1.017   6.849   9.690 -0.4128 -0.0169 -0.2819
 2531TIP3    H131788   0.983   6.896   9.766 -0.2472 -0.6910  0.2240
 2531TIP3    H231789   1.012   6.912   9.618 -3.0025 -0.1445 -0.3315
 2532TIP3   OH231790   1.565   6.036   2.049  0.0132  0.2638 -0.0469
 2532TIP3    H131791   1.591   6.107   2.107 -0.0395 -0.0534  0.3748
 2532TIP3    H231792   1.635   6.030   1.984  0.2145  0.4385  0.1548
 2533TIP3   OH231793   7.535   7.569   0.042  0.0560 -0.2174 -0.5023
 2533TIP3    H131794   7.521   7.587   0.135  0.7094 -0.7508 -0.2837
 2533TIP3    H231795   7.448   7.548   0.008 -0.1964  0.0239 -0.0189
 2534TIP3   OH231796   5.783   6.741   7.828 -0.0568  0.2231 -0.2138
 2534TIP3    H131797   5.838   6.670   7.794  0.9538  0.4242  0.9453
 2534TIP3    H231798   5.694   6.705   7.825  0.0911 -0.1264 -2.0585
 2535TIP3   OH231799   2.054   0.942   3.147  0.0276 -0.1967 -0.5810
 2535TIP3    H131800   2.080   0.978   3.062 -1.4542  2.2871 -0.0922
 2535TIP3    H231801   2.101   0.995   3.211 -0.2232 -0.8596  0.1683
 2536TIP3   OH231802   2.174   0.412   0.423  0.5242 -0.0408 -0.5079
 2536TIP3    H131803   2.125   0.333   0.448  0.9633 -0.4226 -0.8456
 2536TIP3    H231804   2.263   0.381   0.407  0.5840  0.4419 -1.1325
 2537TIP3   OH231805   3.000   1.484   1.597 -0.0394 -0.5067 -0.0087
 2537TIP3    H131806   2.974   1.398   1.563  0.1777 -0.4114 -0.4273
 2537TIP3    H231807   3.077   1.508   1.546  1.8070 -1.4244  2.2060
 2538TIP3   OH231808   1.371   4.697   8.580 -0.5011  0.5847 -0.2719
 2538TIP3    H131809   1.323   4.772   8.542  0.5994  0.7851 -1.3286
 2538TIP3    H231810   1.454   4.696   8.533  1.2329  1.1991  2.5599
 2539TIP3   OH231811   5.903   2.405   8.483 -0.7742 -0.6093 -0.3798
 2539TIP3    H131812   5.949   2.338   8.534  0.7959  0.6822 -0.0067
 2539TIP3    H231813   5.926   2.386   8.392  0.5713  0.0441 -0.1927
 2540TIP3   OH231814   2.784   6.531   9.764  0.1070  0.1825  0.1029
 2540TIP3    H131815   2.698   6.499   9.737 -0.0463  1.6271 -1.2536
 2540TIP3    H231816   2.765   6.602   9.827  0.2155  1.3762 -1.1623
 2541TIP3   OH231817   5.120   1.909   7.908 -0.5217 -0.0688 -0.2574
 2541TIP3    H131818   5.151   1.998   7.927 -0.3157 -0.4704  1.3913
 2541TIP3    H231819   5.097   1.912   7.815  1.5457  1.0928 -0.8010
 2542TIP3   OH231820   0.495   6.716   8.216 -0.3139 -0.0213 -0.5028
 2542TIP3    H131821   0.550   6.638   8.226  1.6490  1.2327 -0.9208
 2542TIP3    H231822   0.472   6.740   8.306  0.7185  0.0178 -0.2383
 2543TIP3   OH231823   0.362   1.484   9.364  0.1629 -0.0509  0.2357
 2543TIP3    H131824   0.446   1.439   9.377  0.4306  0.7937  1.6061
 2543TIP3    H231825   0.321   1.437   9.292  0.7039 -2.0993  1.1812
 2544TIP3   OH231826   5.077   0.609   0.200  0.0767 -0.6951 -0.1585
 2544TIP3    H131827   5.001   0.619   0.257 -0.3479 -1.6682 -0.5348
 2544TIP3    H231828   5.076   0.687   0.144 -0.8861 -0.8951 -0.4378
 2545TIP3   OH231829   4.315   2.909   8.087 -0.1894 -0.1731  0.4417
 2545TIP3    H131830   4.219   2.907   8.080 -0.2339  1.2394  0.3572
 2545TIP3    H231831   4.334   2.992   8.130  1.0160 -0.2439  0.0734
 2546TIP3   OH231832   3.824   0.620   0.726 -0.1419  0.5229  0.1012
 2546TIP3    H131833   3.824   0.618   0.630  0.5703  0.0448  0.0994
 2546TIP3    H231834   3.783   0.537   0.751 -0.9435  0.9454  0.2209
 2547TIP3   OH231835   0.817   3.263   2.527  0.2461  0.1281  0.4188
 2547TIP3    H131836   0.783   3.345   2.491  0.9561  1.6470  2.9410
 2547TIP3    H231837   0.911   3.265   2.506 -0.1811 -1.6035 -2.1254
 2548TIP3   OH231838   0.808   1.119   8.859  0.3070 -0.5337  0.3577
 2548TIP3    H131839   0.718   1.139   8.832  1.0674  1.0236 -1.2672
 2548TIP3    H231840   0.841   1.060   8.790  1.0620  0.3503 -0.0667
 2549TIP3   OH231841   0.315   1.848   1.481 -0.7885  0.5392  0.6750
 2549TIP3    H131842   0.374   1.922   1.468 -0.1707  0.0412  0.5709
 2549TIP3    H231843   0.283   1.827   1.393  0.1294 -0.1917  0.5036
 2550TIP3   OH231844   5.985   1.525   7.560 -0.5581  0.5499  0.8562
 2550TIP3    H131845   6.056   1.568   7.608 -0.2531 -1.6030  2.4570
 2550TIP3    H231846   6.029   1.472   7.494 -0.5782 -1.2348  2.2206
 2551TIP3   OH231847   0.193   3.411   9.166 -0.4291  0.4310 -0.4879
 2551TIP3    H131848   0.246   3.351   9.114  0.4276  0.7705 -0.0254
 2551TIP3    H231849   0.253   3.444   9.233 -1.2625  0.7215  0.1331
 2552TIP3   OH231850   0.805   4.513   0.740  0.1602  0.2515  0.1625
 2552TIP3    H131851   0.894   4.538   0.717 -0.0785  1.5191  0.5617
 2552TIP3    H231852   0.815   4.435   0.794  1.0586  0.7045  0.6681
 2553TIP3   OH231853   3.734   6.723   0.849 -0.7773  0.3610 -0.1320
 2553TIP3    H131854   3.687   6.804   0.825 -0.2487  0.3891 -1.1322
 2553TIP3    H231855   3.675   6.653   0.822 -0.3712  0.4003 -1.1973
 2554TIP3   OH231856   3.504   5.161   8.502  0.1403  0.1592 -0.4535
 2554TIP3    H131857   3.433   5.199   8.553 -0.2940 -0.7396 -0.3565
 2554TIP3    H231858   3.568   5.231   8.493 -0.7857  1.0205 -0.6003
 2555TIP3   OH231859   4.821   2.708   8.895 -0.0771  0.1990  0.5922
 2555TIP3    H131860   4.760   2.740   8.829 -1.4312 -1.4614  0.9767
 2555TIP3    H231861   4.870   2.786   8.921 -0.7337  1.2273 -1.0687
 2556TIP3   OH231862   2.514   4.154   8.662 -0.5102  0.1835  0.1856
 2556TIP3    H131863   2.584   4.216   8.642  0.6359 -1.7482 -2.2659
 2556TIP3    H231864   2.556   4.084   8.712 -0.7540 -0.7878 -0.9409
 2557TIP3   OH231865   0.125   7.246   9.963  0.2532 -0.5746  0.4475
 2557TIP3    H131866   0.070   7.171   9.938 -0.9586  0.2221  0.6446
 2557TIP3    H231867   0.138   7.294   9.882  0.5771 -0.6994  0.4227
 2558TIP3   OH231868   4.669   7.061   0.333 -0.2175  0.2390 -0.1226
 2558TIP3    H131869   4.660   7.143   0.382 -0.6594 -0.6581  1.3753
 2558TIP3    H231870   4.654   7.085   0.242 -2.2325  1.5370  0.4957
 2559TIP3   OH231871   1.140   4.158   9.421 -0.0105  0.2524  0.0748
 2559TIP3    H131872   1.066   4.210   9.452  0.8194  1.6964 -0.2907
 2559TIP3    H231873   1.104   4.070   9.409 -1.1862  0.4588  1.7484
 2560TIP3   OH231874   0.079   4.984   7.640  0.2066  0.0055 -0.0617
 2560TIP3    H131875   0.151   5.017   7.695  2.3927 -1.8420 -1.6348
 2560TIP3    H231876   0.102   5.013   7.552 -2.1921  1.2215 -0.3433
 2561TIP3   OH231877   1.300   4.711   9.765  0.1628 -0.4147  0.6387
 2561TIP3    H131878   1.324   4.618   9.765 -0.3311 -0.5454  0.2502
 2561TIP3    H231879   1.206   4.712   9.779  0.2653  0.0685  1.3710
 2562TIP3   OH231880   4.459   2.995   8.456  0.0811  0.9523 -0.5558
 2562TIP3    H131881   4.424   3.027   8.539 -0.4801 -0.5527 -0.1731
 2562TIP3    H231882   4.509   3.068   8.420  0.0883  1.7190  0.9661
 2563TIP3   OH231883   3.095   2.203   1.932 -0.5428 -0.5487 -0.1600
 2563TIP3    H131884   3.108   2.162   1.847 -0.1814  0.7587 -0.7689
 2563TIP3    H231885   3.042   2.281   1.913 -0.3061 -0.1410  0.7783
 2564TIP3   OH231886   4.668   2.098   9.520 -0.2543  0.0751 -0.1091
 2564TIP3    H131887   4.709   2.073   9.603 -1.0493 -0.3271  0.1773
 2564TIP3    H231888   4.733   2.074   9.453 -0.0646 -0.6610  0.3229
 2565TIP3   OH231889   3.144   5.561   8.669  0.4735  0.0422  0.0566
 2565TIP3    H131890   3.179   5.567   8.580 -0.9625  0.1054 -0.5311
 2565TIP3    H231891   3.173   5.641   8.712  0.8914  0.1800 -0.4670
 2566TIP3   OH231892   7.053   5.541   2.637 -0.0797  0.2284 -0.1701
 2566TIP3    H131893   7.037   5.524   2.544 -0.3624 -1.8972  0.2165
 2566TIP3    H231894   6.974   5.511   2.681  0.0549  1.2045  0.7740
 2567TIP3   OH231895   2.908   1.837   2.026  0.2813  0.4402  0.3996
 2567TIP3    H131896   2.830   1.873   2.070 -0.4758 -0.2389 -0.3456
 2567TIP3    H231897   2.978   1.897   2.050 -0.7577  1.9089 -0.0761
 2568TIP3   OH231898   2.760   1.238   2.033  0.1713 -0.0614 -0.2236
 2568TIP3    H131899   2.801   1.297   1.970  0.1256 -0.7058 -0.8702
 2568TIP3    H231900   2.715   1.173   1.979  0.0036 -0.5346  0.4748
 2569TIP3   OH231901   7.293   1.793   1.671 -0.2598  1.2724 -0.3846
 2569TIP3    H131902   7.357   1.724   1.689  1.3850  2.0487 -2.7864
 2569TIP3    H231903   7.343   1.860   1.626 -2.8922  1.6575 -2.9926
 2570TIP3   OH231904   1.994   1.710   1.411 -0.4927  0.0925 -0.2987
 2570TIP3    H131905   2.070   1.726   1.468 -0.6525 -1.2517  0.3192
 2570TIP3    H231906   1.918   1.725   1.467 -0.6777  0.2175 -0.5786
 2571TIP3   OH231907   0.897   2.773   2.209 -0.2690 -0.6726 -0.1398
 2571TIP3    H131908   0.925   2.860   2.237 -2.5316 -0.7896  2.9786
 2571TIP3    H231909   0.956   2.751   2.137  1.7872  2.5071  0.3728
 2572TIP3   OH231910   2.432   4.003   1.008 -0.8208 -0.0695  0.6609
 2572TIP3    H131911   2.492   3.966   0.943  0.1220 -0.1452  1.5581
 2572TIP3    H231912   2.486   4.063   1.060 -2.0027  1.5214  0.1438
 2573TIP3   OH231913   0.998   6.663   7.840 -0.2029 -0.2401 -0.1134
 2573TIP3    H131914   0.931   6.601   7.868 -0.1177  0.1673  1.0399
 2573TIP3    H231915   1.010   6.721   7.915  2.0993 -0.8627  0.0742
 2574TIP3   OH231916   2.247   3.242   8.148 -0.5785 -0.4353  0.3716
 2574TIP3    H131917   2.293   3.312   8.101 -2.7257 -0.2862 -1.6845
 2574TIP3    H231918   2.169   3.285   8.185 -1.0844 -1.4081  0.4699
 2575TIP3   OH231919   4.862   1.134   0.652 -0.0586  0.4681  0.3913
 2575TIP3    H131920   4.802   1.140   0.727 -0.6546  0.6293 -0.0872
 2575TIP3    H231921   4.875   1.040   0.640 -1.1888  0.3719 -0.2402
 2576TIP3   OH231922   0.620   2.034   7.969  0.0738  1.4926 -0.4993
 2576TIP3    H131923   0.689   2.005   7.910  0.2698  1.7165 -0.3846
 2576TIP3    H231924   0.539   2.026   7.918  0.2514  1.7773 -0.8292
 2577TIP3   OH231925   0.369   2.501   2.318 -0.2506  0.5651  0.5902
 2577TIP3    H131926   0.402   2.427   2.268 -1.4065  0.6090 -0.2826
 2577TIP3    H231927   0.315   2.461   2.387 -0.9112  0.5813  0.0916
 2578TIP3   OH231928   1.108   6.109   9.909 -0.0767 -0.0196 -0.6284
 2578TIP3    H131929   1.082   6.062   9.988  0.7115  0.8808  0.1857
 2578TIP3    H231930   1.025   6.139   9.871 -0.3783  1.6789  1.2144
 2579TIP3   OH231931   1.513   3.218   8.834  0.2719 -0.0844  0.0012
 2579TIP3    H131932   1.506   3.139   8.887 -1.3977 -0.4285 -0.6832
 2579TIP3    H231933   1.467   3.197   8.753 -1.0409  1.8610  0.1657
 2580TIP3   OH231934   1.687   0.903   2.834 -0.0295  0.2518 -0.2139
 2580TIP3    H131935   1.687   0.810   2.812 -1.1848  0.3603 -0.7232
 2580TIP3    H231936   1.768   0.916   2.884 -0.0900 -1.1162  0.2690
 2581TIP3   OH231937   7.125   0.825   7.641  0.0711  0.0925 -0.1672
 2581TIP3    H131938   7.160   0.858   7.724 -1.0595  1.9639 -0.3716
 2581TIP3    H231939   7.181   0.864   7.574 -0.5763  0.6983 -0.3684
 2582TIP3   OH231940   3.616   6.923   1.124 -0.1807 -0.2375  0.4882
 2582TIP3    H131941   3.621   6.886   1.212 -1.5728 -1.3897  0.1195
 2582TIP3    H231942   3.555   6.996   1.132 -0.0605 -0.1392  0.5253
 2583TIP3   OH231943   1.383   0.919   8.971  0.0852 -0.2901 -0.1760
 2583TIP3    H131944   1.448   0.961   9.027  0.7883 -2.1444  0.4926
 2583TIP3    H231945   1.435   0.873   8.905 -0.5233 -1.6003  0.2221
 2584TIP3   OH231946   4.992   2.541   8.730 -0.3144  0.3281  0.0761
 2584TIP3    H131947   4.980   2.462   8.784  1.8140  1.2393  2.0673
 2584TIP3    H231948   4.917   2.596   8.753 -1.3548 -0.7285 -0.6760
 2585TIP3   OH231949   1.253   6.277   8.947  0.0921  0.3542  0.5851
 2585TIP3    H131950   1.259   6.287   8.852 -0.7896 -0.5638  0.4241
 2585TIP3    H231951   1.232   6.365   8.978  0.0152  0.5859 -0.0938
 2586TIP3   OH231952   6.267   0.024   1.878  0.5765  0.1220  0.2114
 2586TIP3    H131953   6.340  -0.036   1.862  0.4302  0.2517 -1.0515
 2586TIP3    H231954   6.307   0.098   1.924  0.6799 -1.0923  2.1878
 2587TIP3   OH231955   1.184   0.906   9.606  0.1356  0.0351 -0.0096
 2587TIP3    H131956   1.277   0.924   9.616  0.2268 -0.5333  0.2428
 2587TIP3    H231957   1.148   0.984   9.564  1.0811 -0.4920 -1.9183
 2588TIP3   OH231958   7.536   2.614   8.000  1.1299  0.8330 -0.0662
 2588TIP3    H131959   7.547   2.621   7.905 -0.0951  1.7526 -0.1618
 2588TIP3    H231960   7.537   2.704   8.031 -1.3325  0.7704  0.4192
 2589TIP3   OH231961   2.159   1.749   2.040 -0.2832 -0.0448  0.3091
 2589TIP3    H131962   2.104   1.820   2.071 -0.6957 -0.0212 -0.4506
 2589TIP3    H231963   2.143   1.677   2.101  1.5668  1.0708  2.2398
 2590TIP3   OH231964   1.052   7.035   8.922 -0.4567  0.2370  0.2941
 2590TIP3    H131965   1.066   7.053   9.015  1.5790 -0.8065  0.2665
 2590TIP3    H231966   1.127   6.981   8.897 -1.7616 -0.8195 -1.6038
 2591TIP3   OH231967   0.954   1.509  10.031  0.3315 -0.2957  0.5829
 2591TIP3    H131968   0.936   1.583  10.089  0.4929  0.5516 -0.4294
 2591TIP3    H231969   1.048   1.492  10.042 -0.0423 -1.5636  2.1883
 2592TIP3   OH231970   1.124   1.525   9.235  0.1439 -0.3498 -0.3705
 2592TIP3    H131971   1.067   1.600   9.249 -0.7255 -1.0717  0.0417
 2592TIP3    H231972   1.141   1.525   9.141 -0.3753 -0.0224 -0.4668
 2593TIP3   OH231973   5.545   2.339   9.129  0.0544  0.2856 -0.3093
 2593TIP3    H131974   5.471   2.292   9.168 -1.5813  1.6945 -1.5863
 2593TIP3    H231975   5.613   2.272   9.119 -1.3973 -1.3027 -0.0622
 2594TIP3   OH231976   2.089   7.111   1.203  0.1009 -0.7694 -0.1283
 2594TIP3    H131977   2.049   7.029   1.175  1.1577 -0.3759 -3.1969
 2594TIP3    H231978   2.016   7.173   1.205 -0.8207 -1.8068  2.8299
 2595TIP3   OH231979   3.723   5.911   8.331  0.5031 -0.0507 -0.7378
 2595TIP3    H131980   3.811   5.881   8.356  0.4004 -0.4363 -0.8328
 2595TIP3    H231981   3.728   6.007   8.337  0.2840 -0.1337  1.4495
 2596TIP3   OH231982   5.526   7.583   1.040 -0.0126  0.0923  0.0842
 2596TIP3    H131983   5.588   7.595   1.111  2.2834 -0.8918 -1.6129
 2596TIP3    H231984   5.542   7.656   0.981  1.0554 -1.2128 -1.3424
 2597TIP3   OH231985   0.555   6.239   0.935 -0.0337 -0.0431 -0.4969
 2597TIP3    H131986   0.524   6.297   0.866 -0.8284  0.2957  0.1255
 2597TIP3    H231987   0.475   6.204   0.975  0.4249 -1.8003 -1.0339
 2598TIP3   OH231988   3.061   7.119   1.705 -0.2191  0.3130  0.0314
 2598TIP3    H131989   3.107   7.200   1.728 -0.5531  0.6656 -0.5113
 2598TIP3    H231990   3.042   7.128   1.611  0.1803 -0.6159 -0.1441
 2599TIP3   OH231991   7.071   4.166   2.083 -0.0749  0.2047 -0.1968
 2599TIP3    H131992   7.058   4.171   2.178 -1.2400  1.0229 -0.3756
 2599TIP3    H231993   7.135   4.235   2.065 -0.5621  0.6852 -0.1125
 2600TIP3   OH231994   0.649   1.266   1.082  0.6220  0.0276 -0.0720
 2600TIP3    H131995   0.687   1.246   1.167 -0.1672 -0.2107  0.2334
 2600TIP3    H231996   0.568   1.313   1.102 -1.1454 -2.5865 -0.5507
 2601TIP3   OH231997   1.743   6.286   9.522  0.4259  0.0643 -0.4206
 2601TIP3    H131998   1.690   6.206   9.522 -1.4405  1.2302 -0.8013
 2601TIP3    H231999   1.709   6.337   9.448  1.4293  1.2907 -0.0615
 2602TIP3   OH232000   3.733   3.271   7.867 -0.4434 -0.4982  0.3399
 2602TIP3    H132001   3.762   3.349   7.820  0.3730 -0.3134  1.1435
 2602TIP3    H232002   3.779   3.199   7.825 -1.4104 -0.6031 -0.5884
 2603TIP3   OH232003   5.580   1.329   1.304  0.1765 -0.3223  0.5134
 2603TIP3    H132004   5.510   1.357   1.363  0.1262  0.3124  0.1607
 2603TIP3    H232005   5.632   1.267   1.356  0.2909  0.4286  1.3235
 2604TIP3   OH232006   4.849   2.292   8.204 -0.3956  0.1648 -0.0556
 2604TIP3    H132007   4.856   2.346   8.283  1.1845  0.1706 -0.1770
 2604TIP3    H232008   4.856   2.202   8.236  0.9156  0.1873 -0.2286
 2605TIP3   OH232009   4.330   4.819   9.673 -0.5594 -0.4214 -0.4717
 2605TIP3    H132010   4.350   4.727   9.693 -2.3107 -0.9769 -1.0401
 2605TIP3    H232011   4.398   4.869   9.719  0.9804 -2.0228 -0.8911
 2606TIP3   OH232012   2.859   6.781   2.249  0.6076 -0.4069  0.6599
 2606TIP3    H132013   2.792   6.742   2.193  0.1991  0.8983  0.1886
 2606TIP3    H232014   2.844   6.741   2.335 -0.6364 -0.3184  0.5054
 2607TIP3   OH232015   5.634   0.871   8.570 -0.2200 -0.3807  0.5130
 2607TIP3    H132016   5.567   0.902   8.631  0.2040  0.5036  0.5514
 2607TIP3    H232017   5.705   0.934   8.579 -0.0905 -0.3138 -0.7931
 2608TIP3   OH232018   2.541   1.647   9.882  0.2492 -0.0998 -0.1470
 2608TIP3    H132019   2.524   1.708   9.811  0.7686 -0.7803 -0.8715
 2608TIP3    H232020   2.462   1.651   9.937  0.1820  1.0297 -0.3052
 2609TIP3   OH232021   2.861   1.168   0.709 -0.2214 -0.6501  0.2268
 2609TIP3    H132022   2.804   1.176   0.633 -0.0753 -1.5210  0.0194
 2609TIP3    H232023   2.820   1.222   0.776 -0.4023  0.0389 -0.4379
 2610TIP3   OH232024   2.114   6.132   7.821  0.7069 -0.2445  0.9636
 2610TIP3    H132025   2.069   6.070   7.877 -0.7215 -0.4212 -0.3005
 2610TIP3    H232026   2.046   6.195   7.795  1.1214 -0.5504 -1.0687
 2611TIP3   OH232027   1.821   6.592   1.426 -0.1766 -0.2641  0.1620
 2611TIP3    H132028   1.825   6.554   1.338 -0.2746 -0.4752  0.2480
 2611TIP3    H232029   1.892   6.656   1.428 -0.7939  0.4586 -0.4093
 2612TIP3   OH232030   3.342   7.331   7.557  0.7207  0.3121  0.2838
 2612TIP3    H132031   3.272   7.274   7.525  1.9032  1.1807 -4.5376
 2612TIP3    H232032   3.393   7.275   7.616 -0.3214 -2.3892 -1.2175
 2613TIP3   OH232033   6.915   4.525   0.183 -0.2101 -0.4516  0.4961
 2613TIP3    H132034   6.843   4.499   0.125 -0.7247 -0.0907  0.9596
 2613TIP3    H232035   6.989   4.541   0.125 -1.0834  1.2139 -0.2286
 2614TIP3   OH232036   7.117   7.056   8.949 -0.1924  0.4918  0.2030
 2614TIP3    H132037   7.058   6.991   8.987  0.7576 -0.3982  0.2230
 2614TIP3    H232038   7.060   7.126   8.917 -1.1332  0.5103  1.8000
 2615TIP3   OH232039   3.630   4.005   9.451  0.5277  0.0761 -0.0077
 2615TIP3    H132040   3.549   3.954   9.455  0.7388 -0.3471 -1.0373
 2615TIP3    H232041   3.601   4.094   9.434  0.2536 -0.0003  0.0557
 2616TIP3   OH232042   0.967   0.395   2.009  0.2214  0.3817 -0.6843
 2616TIP3    H132043   0.970   0.488   2.033 -0.7407  0.2948 -0.2113
 2616TIP3    H232044   1.025   0.389   1.932  0.7799  1.2518 -0.3527
 2617TIP3   OH232045   7.204   2.647   0.986  0.0087 -0.5861  0.0118
 2617TIP3    H132046   7.195   2.570   1.041 -0.4550 -1.9685 -1.8816
 2617TIP3    H232047   7.298   2.656   0.970  0.0463 -0.9388  0.0301
 2618TIP3   OH232048   6.325   1.677   0.757  0.1201  0.0269 -0.8774
 2618TIP3    H132049   6.291   1.598   0.715 -0.3570 -0.4327  0.3353
 2618TIP3    H232050   6.248   1.716   0.798 -0.1412  2.3604 -3.2908
 2619TIP3   OH232051   0.878   3.598   8.385 -0.1036  0.6054 -0.2424
 2619TIP3    H132052   0.908   3.687   8.404 -1.1729  1.1611 -1.0885
 2619TIP3    H232053   0.824   3.607   8.307  2.2946 -1.2467 -2.2929
 2620TIP3   OH232054   2.624   1.655   7.392  0.3748 -0.2368 -0.1028
 2620TIP3    H132055   2.612   1.750   7.398  0.2468 -0.2911  0.4902
 2620TIP3    H232056   2.689   1.644   7.322 -0.5514  0.2225 -1.0735
 2621TIP3   OH232057   0.940   5.221   2.719  0.6757 -0.0095 -0.3678
 2621TIP3    H132058   0.974   5.146   2.768 -0.8680  0.2647  1.2271
 2621TIP3    H232059   1.016   5.256   2.673  1.5692 -2.1171 -0.5906
 2622TIP3   OH232060   2.372   7.258   9.941 -0.1143  0.2245 -0.2589
 2622TIP3    H132061   2.419   7.228  10.019 -1.1837 -1.7288 -0.2979
 2622TIP3    H232062   2.440   7.272   9.876  0.6053 -0.3729  0.3419
 2623TIP3   OH232063   1.923   2.056   0.996  0.1217  0.0837  0.0374
 2623TIP3    H132064   1.885   2.105   1.069  0.2300  0.6171 -0.2643
 2623TIP3    H232065   1.990   2.001   1.037 -0.1598  0.0116  0.4052
 2624TIP3   OH232066   4.687   0.498   9.828 -0.8053  0.2301  0.6593
 2624TIP3    H132067   4.691   0.578   9.775  0.1769 -0.3606 -0.2010
 2624TIP3    H232068   4.681   0.529   9.918  0.1669  1.3073  0.3801
 2625TIP3   OH232069   1.655   1.749   7.603  0.0195 -0.5314  0.4335
 2625TIP3    H132070   1.693   1.665   7.628  1.4599  0.0979  0.4429
 2625TIP3    H232071   1.577   1.726   7.553  0.7434 -1.8884 -0.1316
 2626TIP3   OH232072   7.663   0.273   7.606  0.5245  0.5105  0.1066
 2626TIP3    H132073   7.723   0.207   7.570  1.5812  1.3611  0.2575
 2626TIP3    H232074   7.641   0.329   7.532  1.0626  1.0462  0.3468
 2627TIP3   OH232075   4.958   2.592   8.017  0.1036  0.0563  0.8550
 2627TIP3    H132076   4.988   2.598   8.107  2.7483  0.5377  0.0180
 2627TIP3    H232077   4.968   2.499   7.995 -0.5071 -0.0544  1.0236
 2628TIP3   OH232078   1.382   6.460   2.775  0.1174  0.8979  0.2745
 2628TIP3    H132079   1.375   6.428   2.865 -0.5161 -0.2584 -0.1592
 2628TIP3    H232080   1.312   6.525   2.767 -1.4793 -0.7871 -0.0699
 2629TIP3   OH232081   1.579   1.405   2.168 -0.4541  0.1022 -0.7665
 2629TIP3    H132082   1.565   1.326   2.219  0.6755 -0.9974 -2.1114
 2629TIP3    H232083   1.661   1.442   2.201 -1.8636  1.8370  1.1532
 2630TIP3   OH232084   6.182   1.955   1.397  0.0909 -0.1941 -0.0453
 2630TIP3    H132085   6.205   1.875   1.349  0.5314  0.1678 -0.4368
 2630TIP3    H232086   6.263   2.006   1.399 -0.3276  0.4823 -0.2620
 2631TIP3   OH232087   2.443   6.232   0.976  0.0713 -0.3162 -0.4053
 2631TIP3    H132088   2.453   6.325   0.954 -1.3426 -0.1350 -0.3249
 2631TIP3    H232089   2.492   6.187   0.907  0.6764  0.4660 -0.5145
 2632TIP3   OH232090   4.115   7.239   2.065  0.3831 -0.2264 -0.1951
 2632TIP3    H132091   4.138   7.157   2.109  1.1320  0.1141  0.0686
 2632TIP3    H232092   4.188   7.297   2.083 -0.0602  0.4505 -0.5299
 2633TIP3   OH232093   4.056   3.653   7.639  0.0862  0.0340  0.2260
 2633TIP3    H132094   4.132   3.620   7.591 -0.4748  0.1985 -0.7951
 2633TIP3    H232095   3.988   3.586   7.625 -0.3046  0.4404  0.1685
 2634TIP3   OH232096   0.685   2.106   0.002 -0.2504 -0.4027  0.4942
 2634TIP3    H132097   0.623   2.178  -0.010 -1.4833 -1.6398 -0.9832
 2634TIP3    H232098   0.660   2.066   0.086  0.3313  0.7445  1.2373
 2635TIP3   OH232099   3.015   4.434   8.125 -0.6859  0.3284 -0.2044
 2635TIP3    H132100   2.955   4.505   8.102  0.7305  1.5905 -0.1205
 2635TIP3    H232101   3.070   4.423   8.048 -0.3880 -0.1683  0.0719
 2636TIP3   OH232102   4.173   0.785   8.841 -0.7295  0.5486  0.3369
 2636TIP3    H132103   4.149   0.877   8.834 -1.2863  0.3897  0.0465
 2636TIP3    H232104   4.265   0.782   8.814 -0.4921  1.1141  1.0581
 2637TIP3   OH232105   6.219   1.731   8.574 -0.3178 -0.0237  0.6283
 2637TIP3    H132106   6.306   1.691   8.578 -1.0144 -1.5883  0.9652
 2637TIP3    H232107   6.172   1.694   8.650 -0.5942  2.5574  1.8261
 2638TIP3   OH232108   7.667   4.512   3.202  0.7673 -0.0279 -0.6139
 2638TIP3    H132109   7.735   4.446   3.220  1.0234  0.5691  0.7956
 2638TIP3    H232110   7.590   4.461   3.177  0.8494 -0.9362  0.8242
 2639TIP3   OH232111   1.847   5.849   2.326  0.3579 -0.2874  0.3091
 2639TIP3    H132112   1.918   5.784   2.324 -0.2601 -0.9754  0.0358
 2639TIP3    H232113   1.887   5.929   2.293  0.9767 -0.6965  0.0383
 2640TIP3   OH232114   6.287   3.587   1.820  0.5360 -0.2139 -0.0605
 2640TIP3    H132115   6.338   3.580   1.900 -0.9547 -0.3704  0.9150
 2640TIP3    H232116   6.251   3.675   1.821  0.8073 -0.0874 -0.7584
 2641TIP3   OH232117   7.443   4.176   0.372  0.5442 -0.2477 -0.5081
 2641TIP3    H132118   7.507   4.107   0.355  0.0364 -1.3251  1.5249
 2641TIP3    H232119   7.490   4.240   0.425  0.5959  0.2206 -1.1109
 2642TIP3   OH232120   5.496   4.032   9.701 -0.1027 -0.6104  1.0178
 2642TIP3    H132121   5.582   4.026   9.743 -0.2921  1.7489  1.8793
 2642TIP3    H232122   5.512   4.081   9.621 -0.3525 -1.9935  0.0784
 2643TIP3   OH232123   1.142   3.921   7.931 -0.3739 -0.9956  0.2418
 2643TIP3    H132124   1.188   3.956   8.007 -1.1711  0.9537 -0.0995
 2643TIP3    H232125   1.182   3.966   7.856 -1.2557 -1.0002 -0.2497
 2644TIP3   OH232126   0.438   5.184   0.102 -0.2016  0.0643 -0.0435
 2644TIP3    H132127   0.364   5.133   0.134 -1.5705  0.3817 -2.5051
 2644TIP3    H232128   0.429   5.269   0.146 -1.3674  0.1397 -0.3984
 2645TIP3   OH232129   0.044   2.310   8.779 -0.6928 -0.2033 -0.0163
 2645TIP3    H132130   0.118   2.357   8.817 -0.3941  0.8527 -1.7552
 2645TIP3    H232131  -0.025   2.375   8.773 -1.1660 -0.7006 -0.0514
 2646TIP3   OH232132   5.573   4.007   8.218  0.6756  0.3160 -0.0272
 2646TIP3    H132133   5.568   3.989   8.124  2.3389  0.7715 -0.2315
 2646TIP3    H232134   5.548   4.099   8.226 -1.5632 -0.2531  0.2736
 2647TIP3   OH232135   6.206   6.599   9.568 -0.0617  0.0982 -0.1061
 2647TIP3    H132136   6.150   6.614   9.644  0.2022 -0.3392  0.1784
 2647TIP3    H232137   6.145   6.583   9.496 -0.3541 -2.7737  0.6617
 2648TIP3   OH232138   2.598   4.120   6.873 -0.4337  0.0599  0.0035
 2648TIP3    H132139   2.691   4.116   6.895  0.1072 -0.5744 -2.1491
 2648TIP3    H232140   2.575   4.212   6.882  0.3715  0.2113  0.6697
 2649TIP3   OH232141   2.186   3.087   1.385  0.1928 -0.6913 -0.3293
 2649TIP3    H132142   2.151   2.999   1.395 -1.3229 -0.4753 -2.7468
 2649TIP3    H232143   2.117   3.144   1.420 -0.3527 -0.4086 -1.7564
 2650TIP3   OH232144   1.913   2.911   0.331  0.8639  0.4044 -0.0548
 2650TIP3    H132145   1.983   2.974   0.350  0.3734  0.7445  0.6881
 2650TIP3    H232146   1.895   2.922   0.238  0.9965  1.1592  0.0043
 2651TIP3   OH232147   0.824   4.229   1.934  0.2722 -0.1472 -0.5606
 2651TIP3    H132148   0.852   4.151   1.982  0.5774  0.8480  0.9481
 2651TIP3    H232149   0.890   4.240   1.867  1.8853  0.4237  1.0433
 2652TIP3   OH232150   0.399   5.770   8.865  0.5323 -0.6550 -0.2227
 2652TIP3    H132151   0.428   5.861   8.853 -1.3475  0.2039  1.2029
 2652TIP3    H232152   0.480   5.719   8.862  1.8126  1.2223  0.3373
 2653TIP3   OH232153   3.875   0.181   2.112 -0.2995 -0.3957  0.5269
 2653TIP3    H132154   3.900   0.265   2.073  1.1837 -0.9336  0.2671
 2653TIP3    H232155   3.848   0.203   2.201 -0.0774  0.3723  0.4131
 2654TIP3   OH232156   6.302   7.345   0.209 -0.2512 -0.2624 -0.1340
 2654TIP3    H132157   6.270   7.273   0.154  1.9395 -1.4094 -0.0131
 2654TIP3    H232158   6.374   7.382   0.159  1.3000 -0.8459  1.5810
 2655TIP3   OH232159   1.989   0.714   7.603  0.2484 -0.0828 -0.3390
 2655TIP3    H132160   1.903   0.753   7.617  0.0720  0.1512 -1.8998
 2655TIP3    H232161   1.970   0.621   7.587  0.4983 -0.4687  1.4659
 2656TIP3   OH232162   6.006   1.638   2.535  0.1524  0.0770 -0.1656
 2656TIP3    H132163   5.988   1.644   2.441 -1.4288  0.5518  0.1411
 2656TIP3    H232164   6.038   1.549   2.548  0.3444 -0.0012 -1.1455
 2657TIP3   OH232165   6.899   4.592   7.917 -0.0275 -0.3335 -0.1562
 2657TIP3    H132166   6.850   4.546   7.848 -1.0162 -0.1141  0.3878
 2657TIP3    H232167   6.949   4.523   7.960 -1.6494 -0.9836  0.7773
 2658TIP3   OH232168   6.054   7.375   9.650 -0.0880 -0.6376  0.1416
 2658TIP3    H132169   6.064   7.295   9.701  1.2474 -2.0969 -2.2161
 2658TIP3    H232170   6.142   7.393   9.616 -0.5041  1.4298 -0.0004
 2659TIP3   OH232171   3.455   1.974   1.151 -0.3120 -0.0035 -0.4118
 2659TIP3    H132172   3.449   2.029   1.229 -2.8072 -0.8653  0.0701
 2659TIP3    H232173   3.369   1.980   1.110 -0.7935 -3.6674 -0.2432
 2660TIP3   OH232174   1.849   1.861   1.240  0.2522 -0.6737 -0.6261
 2660TIP3    H132175   1.918   1.815   1.288  2.0221  1.0701 -1.3675
 2660TIP3    H232176   1.808   1.793   1.186  1.3255 -1.7684 -0.1025
 2661TIP3   OH232177   3.312   6.529   9.186  0.0808  0.2030  0.3342
 2661TIP3    H132178   3.372   6.477   9.239  0.6915 -0.8075 -1.2667
 2661TIP3    H232179   3.356   6.612   9.172  0.1997  0.2273  0.8502
 2662TIP3   OH232180   6.122   2.914   8.553  0.3210  0.9713 -0.3063
 2662TIP3    H132181   6.051   2.918   8.618  1.1535 -0.2495  0.7340
 2662TIP3    H232182   6.091   2.851   8.488  0.0623  1.1278 -0.3337
 2663TIP3   OH232183   4.560   2.830   8.263  0.8876  0.9396  0.4763
 2663TIP3    H132184   4.633   2.785   8.304  0.0370 -0.1721  0.8178
 2663TIP3    H232185   4.530   2.892   8.330  1.7641  1.7157  0.1759
 2664TIP3   OH232186   3.523   7.668   7.963 -0.1296 -0.2933  0.1401
 2664TIP3    H132187   3.446   7.612   7.954 -0.5913  0.2743  0.5110
 2664TIP3    H232188   3.531   7.711   7.878 -2.0314  1.9193  0.9615
 2665TIP3   OH232189   0.356   0.201   8.070 -0.0029  0.4769 -0.0357
 2665TIP3    H132190   0.357   0.106   8.081 -1.0616  0.5739  1.1835
 2665TIP3    H232191   0.444   0.223   8.039  0.8202 -0.7289  1.3474
 2666TIP3   OH232192   6.799   4.851   8.691  0.0930 -0.2212  0.3569
 2666TIP3    H132193   6.800   4.876   8.783 -0.5288 -0.2131  0.3612
 2666TIP3    H232194   6.764   4.927   8.645  1.7428  0.3273 -0.0642
 2667TIP3   OH232195   3.224   6.350   0.786 -0.2471 -0.2547 -0.3964
 2667TIP3    H132196   3.285   6.298   0.732  1.5337  1.8643 -0.5407
 2667TIP3    H232197   3.141   6.346   0.737  0.0864 -2.0545 -0.9237
 2668TIP3   OH232198   0.391   6.071   2.168 -0.1913  0.2498  0.0695
 2668TIP3    H132199   0.408   6.133   2.239 -0.2002  0.6222 -0.2460
 2668TIP3    H232200   0.336   6.003   2.207  0.3415  0.1071  0.5762
 2669TIP3   OH232201   2.124   7.190   9.124  0.0212  0.1445 -0.2850
 2669TIP3    H132202   2.212   7.205   9.157  0.6483 -1.8986 -0.8734
 2669TIP3    H232203   2.130   7.208   9.030 -0.2233  0.1756 -0.2956
 2670TIP3   OH232204   7.388   6.172   9.465 -0.2118 -0.1146 -0.3017
 2670TIP3    H132205   7.307   6.122   9.470  0.3206 -0.9483  0.4579
 2670TIP3    H232206   7.362   6.262   9.483 -1.1241 -0.1833 -1.2325
 2671TIP3   OH232207   5.402   2.003   2.123  0.1970  0.6546 -0.4474
 2671TIP3    H132208   5.388   1.910   2.107  0.2353  0.7697 -1.1762
 2671TIP3    H232209   5.382   2.014   2.216 -0.3893  0.0314 -0.4889
 2672TIP3   OH232210   5.290   0.673   0.814  0.0255  0.0539  0.3239
 2672TIP3    H132211   5.358   0.635   0.758 -0.7803 -0.7621 -0.1320
 2672TIP3    H232212   5.269   0.757   0.773  1.4264  0.7814  1.0208
 2673TIP3   OH232213   5.510   6.492   1.218  0.4522 -0.0325 -0.2516
 2673TIP3    H132214   5.538   6.583   1.219 -0.4205  0.2854 -2.0093
 2673TIP3    H232215   5.450   6.485   1.144 -2.0380 -1.3060  1.7295
 2674TIP3   OH232216   5.680   2.341   0.473 -0.6567 -0.0815  0.6611
 2674TIP3    H132217   5.769   2.307   0.461 -1.0598 -0.8859 -0.1431
 2674TIP3    H232218   5.659   2.321   0.564  0.4702  1.3444  1.2916
 2675TIP3   OH232219   2.019   3.100   9.799  0.1972 -0.0070 -0.6490
 2675TIP3    H132220   2.023   3.195   9.801 -0.9870  0.1242 -2.0683
 2675TIP3    H232221   2.003   3.079   9.706  0.5933 -1.5822 -0.3910
 2676TIP3   OH232222   7.667   1.686   8.949  0.6406  0.1872  0.2892
 2676TIP3    H132223   7.693   1.628   8.877  1.8153 -0.2701  1.0533
 2676TIP3    H232224   7.606   1.633   9.001  1.6494 -0.3887  0.9419
 2677TIP3   OH232225   3.395   7.425   0.466 -1.8389 -0.4863  0.3925
 2677TIP3    H132226   3.412   7.403   0.557  1.1845  3.3758  1.0565
 2677TIP3    H232227   3.482   7.432   0.426 -2.7184  2.5212 -1.3969
 2678TIP3   OH232228   1.713   3.912   9.900  0.1614  0.0755 -0.0163
 2678TIP3    H132229   1.698   3.852   9.973  1.5254  0.6010  0.7525
 2678TIP3    H232230   1.628   3.952   9.883 -0.3257 -0.5798  0.8219
 2679TIP3   OH232231   5.069   0.538   1.015  0.0328  0.2799  0.0964
 2679TIP3    H132232   5.098   0.526   0.925  0.2717  0.9445  0.0763
 2679TIP3    H232233   5.137   0.496   1.068 -1.0198 -1.7530 -0.0664
 2680TIP3   OH232234   5.892   2.986   1.097  0.4768  0.0572 -0.0646
 2680TIP3    H132235   5.908   3.079   1.111  0.2954  0.2252 -0.8996
 2680TIP3    H232236   5.959   2.942   1.149  0.1709  0.6299  0.8422
 2681TIP3   OH232237   5.636   6.243   1.176  0.1875  0.0542  0.0195
 2681TIP3    H132238   5.586   6.324   1.180 -2.4292 -1.5063  0.8038
 2681TIP3    H232239   5.631   6.207   1.264  0.7302 -1.3011 -0.4765
 2682TIP3   OH232240   6.497   4.239   9.227  0.0467 -0.1355 -0.0977
 2682TIP3    H132241   6.417   4.196   9.255  0.0144 -0.1686 -0.2383
 2682TIP3    H232242   6.478   4.270   9.138 -0.1604  0.7518  0.2481
 2683TIP3   OH232243   6.848   5.420   8.485  0.0464  0.0574 -0.5119
 2683TIP3    H132244   6.902   5.443   8.409 -0.2502 -0.4070 -0.8718
 2683TIP3    H232245   6.906   5.431   8.560  0.3841  0.4008 -0.8183
 2684TIP3   OH232246   0.567   3.351   9.538 -0.0817 -0.4068  0.1339
 2684TIP3    H132247   0.614   3.351   9.621  2.3087 -3.4504 -1.0144
 2684TIP3    H232248   0.518   3.268   9.539 -0.7375 -0.0591 -1.1594
 2685TIP3   OH232249   3.581   5.673   0.189 -0.0957 -0.2474 -0.0481
 2685TIP3    H132250   3.560   5.708   0.102  1.8968  0.3430 -0.3455
 2685TIP3    H232251   3.532   5.730   0.249 -2.8895 -1.7132 -0.7346
 2686TIP3   OH232252   6.022   6.035   7.820  0.0038  0.7689 -0.0671
 2686TIP3    H132253   6.115   6.055   7.827  0.1398  0.2245 -0.2968
 2686TIP3    H232254   6.015   5.942   7.840 -0.6352  1.0435  1.0970
 2687TIP3   OH232255   7.148   2.843   8.354  0.3847  0.0756 -0.0154
 2687TIP3    H132256   7.080   2.910   8.361 -1.1432 -1.3048 -0.7722
 2687TIP3    H232257   7.124   2.793   8.276  2.2891 -0.4775 -0.2992
 2688TIP3   OH232258   2.410   0.809   8.108  0.0806 -0.1267  0.5930
 2688TIP3    H132259   2.470   0.734   8.103  1.1786  0.8005 -1.5664
 2688TIP3    H232260   2.333   0.781   8.057 -0.9995 -0.9574  2.5669
 2689TIP3   OH232261   3.737   5.409   7.323  0.0598  0.5439 -0.5234
 2689TIP3    H132262   3.691   5.333   7.287 -0.7000 -0.4033  2.2420
 2689TIP3    H232263   3.682   5.438   7.396  2.7172  0.7328  1.5281
 2690TIP3   OH232264   1.686   2.512   8.647 -0.2136 -0.6623 -0.3615
 2690TIP3    H132265   1.747   2.448   8.682 -0.0744 -1.5189 -2.0486
 2690TIP3    H232266   1.676   2.488   8.555  0.5492  2.2798 -1.3495
 2691TIP3   OH232267   3.315   7.452   7.915 -0.1568 -0.1604  0.1862
 2691TIP3    H132268   3.376   7.406   7.972 -0.2271 -0.3894  0.0813
 2691TIP3    H232269   3.232   7.450   7.963 -0.6645 -1.9422 -0.6851
 2692TIP3   OH232270   1.019   4.088   1.223  0.4306  0.2116 -0.0333
 2692TIP3    H132271   1.080   4.134   1.164  0.3320 -0.5951 -0.7832
 2692TIP3    H232272   1.070   4.016   1.259  1.3914  2.2555  3.1449
 2693TIP3   OH232273   7.593   7.325   7.623  0.3587  0.4359  0.2486
 2693TIP3    H132274   7.503   7.296   7.637 -0.2923  0.1382 -3.4300
 2693TIP3    H232275   7.586   7.420   7.613  0.4650  0.4235  0.0498
 2694TIP3   OH232276   6.623   3.709   8.897 -0.2054 -0.0506 -0.6247
 2694TIP3    H132277   6.587   3.795   8.874  1.3568  0.3845 -1.5927
 2694TIP3    H232278   6.713   3.711   8.864 -0.0811 -2.0024 -0.5076
 2695TIP3   OH232279   0.676   5.641   8.761  0.4167  0.2602  0.3321
 2695TIP3    H132280   0.718   5.571   8.712 -0.0031  0.7342 -0.7270
 2695TIP3    H232281   0.682   5.718   8.705 -0.6671  0.6574  0.7174
 2696TIP3   OH232282   6.818   2.238   1.838  0.3773 -0.6983 -0.2136
 2696TIP3    H132283   6.792   2.153   1.802  0.4242 -0.7270 -0.1799
 2696TIP3    H232284   6.764   2.301   1.791 -0.0094 -0.7855  0.1075
 2697TIP3   OH232285   6.049   2.743   7.059  0.5122  0.2915 -0.2721
 2697TIP3    H132286   5.982   2.676   7.049 -0.4565  0.7939  2.1498
 2697TIP3    H232287   6.026   2.810   6.996 -1.5550  0.6296  0.7548
 2698TIP3   OH232288   7.475   0.861   0.294  0.2470 -0.0707  1.4943
 2698TIP3    H132289   7.380   0.849   0.293  0.3290 -0.8324 -0.7175
 2698TIP3    H232290   7.503   0.823   0.378 -1.0734 -2.8096  0.7846
 2699TIP3   OH232291   7.202   1.895   1.916 -0.4747 -0.3143  0.3553
 2699TIP3    H132292   7.207   1.839   1.838  0.4173 -0.6388  0.6407
 2699TIP3    H232293   7.186   1.982   1.881 -0.6002 -0.5425 -0.1673
 2700TIP3   OH232294   1.354   1.616   1.556  0.6778  0.2354  0.6766
 2700TIP3    H132295   1.428   1.566   1.590 -0.1257 -2.0991 -0.7798
 2700TIP3    H232296   1.390   1.664   1.481  1.0260  0.2157  0.8309
 2701TIP3   OH232297   1.097   5.717   1.448 -0.3809 -0.4850 -0.1724
 2701TIP3    H132298   1.018   5.757   1.483 -1.2637 -1.0968 -1.3464
 2701TIP3    H232299   1.134   5.783   1.390  0.3610  0.0459  0.8751
 2702TIP3   OH232300   0.410   0.182   9.103 -0.3278 -0.1495 -0.3874
 2702TIP3    H132301   0.424   0.187   9.197  0.6292 -1.0138 -0.4531
 2702TIP3    H232302   0.331   0.128   9.093 -0.4179 -0.0755 -0.0795
 2703TIP3   OH232303   3.225   1.252   8.269 -0.9042 -0.0413  0.0069
 2703TIP3    H132304   3.170   1.189   8.223  2.0742 -1.7483 -1.4690
 2703TIP3    H232305   3.176   1.271   8.349 -4.7141  0.4561 -2.1776
 2704TIP3   OH232306   4.012   2.804   7.708  0.5334 -0.1623  0.5210
 2704TIP3    H132307   3.967   2.756   7.638 -0.4610  3.4635 -1.6519
 2704TIP3    H232308   4.102   2.773   7.704  0.3781 -0.5567 -2.0560
 2705TIP3   OH232309   6.459   2.072   8.290  0.1308  0.8067 -0.2127
 2705TIP3    H132310   6.549   2.041   8.281 -0.7524 -1.4279 -2.0542
 2705TIP3    H232311   6.442   2.067   8.384  0.8269 -2.2876 -0.1388
 2706TIP3   OH232312   6.307   2.738   2.185 -0.3339  0.0571  0.1130
 2706TIP3    H132313   6.242   2.798   2.148 -0.4340 -0.4166 -0.4989
 2706TIP3    H232314   6.275   2.719   2.273 -0.3526  0.8218  0.2779
 2707TIP3   OH232315   2.878   3.370   7.011  0.4042 -0.0119 -0.2719
 2707TIP3    H132316   2.859   3.454   7.053  1.8122  1.6787 -2.7154
 2707TIP3    H232317   2.792   3.331   6.995 -0.2670  0.6951  1.4062
 2708TIP3   OH232318   3.000   3.197   7.381  0.5720 -0.4163  0.1900
 2708TIP3    H132319   3.011   3.190   7.286  1.1220  0.2224  0.1965
 2708TIP3    H232320   2.912   3.232   7.393  1.7476  3.1043 -0.2746
 2709TIP3   OH232321   1.924   3.741   0.739  0.3193  0.1419 -0.6314
 2709TIP3    H132322   1.884   3.827   0.740  0.1843  0.0880 -1.2381
 2709TIP3    H232323   2.011   3.754   0.776 -0.3106  0.2217  0.9119
 2710TIP3   OH232324   4.317   5.201   7.658 -0.2816 -0.5034  0.0979
 2710TIP3    H132325   4.227   5.233   7.662 -0.3068 -0.3496 -1.3661
 2710TIP3    H232326   4.312   5.111   7.689 -0.6366  0.0261  1.7033
 2711TIP3   OH232327   4.443  -0.043   7.301  0.4563 -0.4019 -0.7387
 2711TIP3    H132328   4.473  -0.006   7.218  0.0848 -0.7223 -1.0199
 2711TIP3    H232329   4.402  -0.126   7.277 -0.4738 -0.0752 -0.3502
 2712TIP3   OH232330   6.214   4.181   8.281  0.3245 -0.4650  0.5119
 2712TIP3    H132331   6.137   4.187   8.338  1.4729  1.6659  1.9815
 2712TIP3    H232332   6.178   4.168   8.193 -1.5237 -3.9377  1.5846
 2713TIP3   OH232333   0.378   5.417   0.195  0.3866 -0.0126 -0.0744
 2713TIP3    H132334   0.390   5.511   0.204  0.4672  0.0427 -0.7545
 2713TIP3    H232335   0.323   5.393   0.270  1.7396  0.2983  1.0710
 2714TIP3   OH232336   3.460   6.566   8.834 -0.8026 -0.6138 -0.5176
 2714TIP3    H132337   3.525   6.496   8.838 -0.3726 -0.2400 -0.8248
 2714TIP3    H232338   3.506   6.639   8.793 -0.1133  1.0808  2.8709
 2715TIP3   OH232339   6.964   0.453   0.727 -0.3457  0.5875 -0.3066
 2715TIP3    H132340   6.871   0.431   0.732 -0.4125  0.8888 -0.2248
 2715TIP3    H232341   7.009   0.369   0.736 -0.5891  0.5498  0.6239
 2716TIP3   OH232342   1.616   2.428   1.265 -0.4391 -0.3451  0.2448
 2716TIP3    H132343   1.557   2.374   1.317  0.9781 -1.5783  0.6548
 2716TIP3    H232344   1.660   2.483   1.330 -0.5511 -0.0112  0.0401
 2717TIP3   OH232345   3.077   2.469   9.285 -0.7769 -0.5721 -0.2813
 2717TIP3    H132346   3.037   2.539   9.336 -0.4012 -0.4063 -0.2158
 2717TIP3    H232347   3.124   2.513   9.214 -2.1821 -0.8379 -1.4303
 2718TIP3   OH232348   2.599   1.832   1.125  0.1431 -0.1122  0.4487
 2718TIP3    H132349   2.578   1.844   1.217  1.6068 -0.1343  0.8192
 2718TIP3    H232350   2.687   1.793   1.125  1.3030  2.2331 -0.9393
 2719TIP3   OH232351   1.646   3.362   1.066  0.0223  0.0733  0.3462
 2719TIP3    H132352   1.732   3.357   1.108 -0.6053  0.2018  1.6984
 2719TIP3    H232353   1.653   3.439   1.008  1.1123 -0.4957 -0.3201
 2720TIP3   OH232354   7.641   4.416   7.403  0.0248  0.1211  0.0336
 2720TIP3    H132355   7.546   4.419   7.417  0.1863  1.2589  1.0898
 2720TIP3    H232356   7.652   4.435   7.310 -0.7592  0.4374 -0.0040
 2721TIP3   OH232357   4.758   1.990   7.951  0.7779  0.1215  0.2225
 2721TIP3    H132358   4.691   1.991   7.883  1.0616  0.4714 -0.0585
 2721TIP3    H232359   4.836   2.027   7.908  1.0035  0.1928  0.6902
 2722TIP3   OH232360   1.559   7.130   3.380 -0.3342 -0.3706  0.0957
 2722TIP3    H132361   1.485   7.077   3.348  0.3667 -0.3232 -1.7532
 2722TIP3    H232362   1.531   7.220   3.367 -0.3124 -0.3411  0.2611
 2723TIP3   OH232363   5.338   1.744   7.912 -0.8848  0.6868  0.1922
 2723TIP3    H132364   5.255   1.791   7.920 -0.4064  1.4223  0.9510
 2723TIP3    H232365   5.386   1.765   7.992 -0.3103 -0.4270  0.1667
 2724TIP3   OH232366   0.075   4.656   9.549  0.0738 -0.8907 -0.5424
 2724TIP3    H132367   0.141   4.705   9.597 -0.7578  0.2418 -0.5241
 2724TIP3    H232368   0.122   4.581   9.513  0.8478 -1.4908  1.5493
 2725TIP3   OH232369   6.252   2.932   7.485 -0.2884  0.3122  0.1889
 2725TIP3    H132370   6.243   2.903   7.394 -1.6862  1.8033 -0.2148
 2725TIP3    H232371   6.264   3.027   7.478 -1.0997  0.5431  1.5591
 2726TIP3   OH232372   5.323   3.681   7.530  0.1147 -0.4135  0.0269
 2726TIP3    H132373   5.258   3.664   7.462  1.3358 -0.0751 -1.2713
 2726TIP3    H232374   5.289   3.756   7.578 -1.8132 -1.9589  1.2287
 2727TIP3   OH232375   2.548   1.504   7.652 -0.6238  0.0231 -0.3859
 2727TIP3    H132376   2.568   1.571   7.586 -2.1708 -0.1650 -1.0789
 2727TIP3    H232377   2.633   1.484   7.692 -0.1320  2.4973 -0.0452
 2728TIP3   OH232378   6.018   0.958   0.673  0.0042  0.4549 -0.0197
 2728TIP3    H132379   5.955   1.028   0.686 -0.9615 -0.3896 -0.0070
 2728TIP3    H232380   6.016   0.909   0.756 -0.4216 -0.4268 -0.5389
 2729TIP3   OH232381   2.999   5.082   8.128  0.4283 -0.4652 -0.0183
 2729TIP3    H132382   2.947   5.159   8.152  2.4678  0.7200  0.9392
 2729TIP3    H232383   2.998   5.027   8.205  2.4212  0.6999  0.9336
 2730TIP3   OH232384   2.622   3.817   1.555 -0.2521 -0.1199  0.3879
 2730TIP3    H132385   2.597   3.793   1.465 -0.0054  0.0012  0.2858
 2730TIP3    H232386   2.667   3.900   1.546 -1.0400  0.3520  0.7382
 2731TIP3   OH232387   4.126   0.186   1.987 -0.5969  0.2103 -0.3251
 2731TIP3    H132388   4.131   0.122   1.917  0.1319 -0.7486  0.5704
 2731TIP3    H232389   4.053   0.156   2.042  0.6294 -0.7083  0.8708
 2732TIP3   OH232390   6.381   2.067   9.848 -0.3179  0.0917  0.5659
 2732TIP3    H132391   6.324   1.995   9.875 -1.3853  0.5527 -0.3499
 2732TIP3    H232392   6.403   2.047   9.757 -2.1724  1.7923 -0.3547
 2733TIP3   OH232393   2.733   5.523   8.901  0.0305 -0.1573 -0.2795
 2733TIP3    H132394   2.826   5.498   8.909 -0.7382 -3.7392 -0.7492
 2733TIP3    H232395   2.705   5.537   8.992  0.9040  0.4278 -0.0906
 2734TIP3   OH232396   4.605   4.854   8.270  0.3475  0.6237 -0.0194
 2734TIP3    H132397   4.604   4.893   8.358 -1.4276  1.2959 -0.2991
 2734TIP3    H232398   4.616   4.760   8.287 -1.6615  0.5301  1.0670
 2735TIP3   OH232399   0.014   4.074   1.415 -0.3235  0.3145  0.3425
 2735TIP3    H132400   0.062   4.156   1.428  1.1790 -0.3832 -0.4804
 2735TIP3    H232401   0.017   4.060   1.320 -0.1314 -0.9124  0.5121
 2736TIP3   OH232402   6.155   0.733   8.065 -0.1470 -0.2700 -0.5733
 2736TIP3    H132403   6.245   0.741   8.034  0.9222  0.1043  2.3085
 2736TIP3    H232404   6.105   0.791   8.008  1.8965  1.4121 -0.7770
 2737TIP3   OH232405   0.065   5.731   1.937 -1.3506 -0.2308  0.2130
 2737TIP3    H132406   0.142   5.707   1.988  0.7549  1.9656 -1.7043
 2737TIP3    H232407   0.029   5.648   1.907 -1.1479 -1.4338  3.0421
 2738TIP3   OH232408   3.351   4.830   0.404 -0.0422 -0.7908  0.1950
 2738TIP3    H132409   3.286   4.761   0.419 -0.5939  0.0377  1.8580
 2738TIP3    H232410   3.305   4.912   0.423  0.9423 -0.0376 -0.5372
 2739TIP3   OH232411   4.378   0.695   1.557  0.2852 -0.1689 -0.5679
 2739TIP3    H132412   4.370   0.600   1.544  1.8723 -0.4844  0.5538
 2739TIP3    H232413   4.330   0.713   1.637 -0.4662  0.0828 -1.0616
 2740TIP3   OH232414   6.346   5.862   8.208  0.3851 -0.2879 -0.6633
 2740TIP3    H132415   6.371   5.922   8.278 -0.7887 -0.8974  0.3220
 2740TIP3    H232416   6.348   5.915   8.128  0.3546  0.7995  0.0364
 2741TIP3   OH232417   1.635   2.476   7.999 -0.8833  0.3718 -0.1184
 2741TIP3    H132418   1.691   2.419   8.051  3.1272  2.8585 -1.2565
 2741TIP3    H232419   1.582   2.524   8.063  0.3524 -0.0920  1.2953
 2742TIP3   OH232420   4.000   5.764   9.258 -0.7474  0.5837 -0.1877
 2742TIP3    H132421   4.040   5.714   9.329 -1.9663 -1.7093 -1.0204
 2742TIP3    H232422   3.922   5.804   9.298 -1.6955 -1.0876 -0.2690
 2743TIP3   OH232423   1.139   5.842   8.856  0.5695 -0.1825  0.4271
 2743TIP3    H132424   1.193   5.905   8.903  1.1975  2.3791 -3.2380
 2743TIP3    H232425   1.083   5.895   8.799 -1.3856 -2.9061 -0.4393
 2744TIP3   OH232426   2.248   1.342   2.127 -0.0472 -0.0058  0.9136
 2744TIP3    H132427   2.266   1.313   2.216 -2.1462 -0.2251  1.3142
 2744TIP3    H232428   2.332   1.337   2.082  0.9314 -0.4367  2.7233
 2745TIP3   OH232429   3.656   3.638   7.546  0.4312  0.1539 -0.4489
 2745TIP3    H132430   3.699   3.682   7.473  0.8232  1.2005  0.3769
 2745TIP3    H232431   3.628   3.709   7.604 -1.1330 -0.5801 -0.2495
 2746TIP3   OH232432   3.248   5.236   8.701  0.4443  0.2920  0.3829
 2746TIP3    H132433   3.256   5.295   8.776  0.5676  1.0124 -0.1892
 2746TIP3    H232434   3.155   5.239   8.679 -0.1535 -1.9620  2.1063
 2747TIP3   OH232435   6.999   5.286   2.273  0.1067 -0.2334  0.2914
 2747TIP3    H132436   6.928   5.239   2.229  0.1960  0.1219 -0.2442
 2747TIP3    H232437   6.968   5.376   2.278  1.1132  0.2220 -1.2541
 2748TIP3   OH232438   6.232   6.659   8.015 -0.4684  0.2468 -0.5688
 2748TIP3    H132439   6.164   6.604   8.054 -0.5790  1.0301  0.3582
 2748TIP3    H232440   6.185   6.735   7.981  0.0352  1.4190  1.2045
 2749TIP3   OH232441   6.832   2.933   0.868  0.1588 -0.3031 -0.1090
 2749TIP3    H132442   6.847   2.852   0.918 -0.7779 -0.3031  0.1880
 2749TIP3    H232443   6.758   2.912   0.811 -1.7848  1.0728  1.7404
 2750TIP3   OH232444   6.100   5.656   7.611  0.1581 -0.0343 -0.1856
 2750TIP3    H132445   6.188   5.673   7.645  0.3497  0.1875 -0.7721
 2750TIP3    H232446   6.077   5.735   7.562 -0.4948  0.0297  0.2083
 2751TIP3   OH232447   4.737   7.058   7.426  0.1459  0.0530 -0.0164
 2751TIP3    H132448   4.664   7.007   7.391  0.6297 -0.7449  0.1330
 2751TIP3    H232449   4.707   7.085   7.513  0.0106 -0.2432  0.0308
 2752TIP3   OH232450   5.416   0.420   7.772 -0.0079 -0.0464  0.3925
 2752TIP3    H132451   5.328   0.455   7.785  0.9399  2.0955  1.5706
 2752TIP3    H232452   5.437   0.442   7.681  0.0825  1.3676  0.7357
 2753TIP3   OH232453   0.774   4.688   1.055 -0.1466 -0.2170  0.0908
 2753TIP3    H132454   0.788   4.594   1.046 -0.4944 -0.1556 -1.3326
 2753TIP3    H232455   0.856   4.727   1.028 -0.0024 -0.1036  0.6822
 2754TIP3   OH232456   0.113   1.497   9.166 -0.3242  0.0031 -0.0567
 2754TIP3    H132457   0.047   1.563   9.185  1.4013  1.1986  2.3635
 2754TIP3    H232458   0.126   1.452   9.250  3.3065  1.2147  0.1836
 2755TIP3   OH232459   5.758   7.262   9.227 -0.2313 -0.0628  0.0779
 2755TIP3    H132460   5.789   7.172   9.226 -0.2511 -0.0839 -1.6231
 2755TIP3    H232461   5.834   7.314   9.199 -0.8634  0.1707 -1.3096
 2756TIP3   OH232462   2.076   0.544   9.981 -0.1616 -0.1852 -0.1814
 2756TIP3    H132463   2.144   0.607   9.956  0.3261 -0.4273  0.4820
 2756TIP3    H232464   2.058   0.495   9.901 -0.7460  0.9696 -0.7764
 2757TIP3   OH232465   1.641   4.612   9.765 -0.2176  0.4305  0.2978
 2757TIP3    H132466   1.561   4.581   9.806 -2.0638  3.5856 -0.5105
 2757TIP3    H232467   1.705   4.616   9.836 -0.1007 -3.7782  0.6342
 2758TIP3   OH232468   1.051   3.443   0.929  0.5186  0.4107  0.7102
 2758TIP3    H132469   1.079   3.391   0.854 -1.9880 -1.1835  0.7854
 2758TIP3    H232470   1.082   3.394   1.005 -1.0883 -0.5821  0.7622
 2759TIP3   OH232471   3.119   0.921   9.369 -0.0022 -0.3045 -0.4942
 2759TIP3    H132472   3.109   0.876   9.452 -0.7758  1.3723  0.3617
 2759TIP3    H232473   3.205   0.964   9.376  0.0041 -0.2944 -0.6338
 2760TIP3   OH232474   5.288   1.258   1.983  0.1596  0.0593  0.3355
 2760TIP3    H132475   5.330   1.343   1.968 -0.5734  0.3014 -0.4396
 2760TIP3    H232476   5.354   1.206   2.028  1.6101  0.1815 -1.4965
 2761TIP3   OH232477   4.877   0.993   1.793 -0.2018  0.6052 -0.0820
 2761TIP3    H132478   4.918   1.040   1.865  1.5859 -0.3469 -0.4231
 2761TIP3    H232479   4.929   0.913   1.783 -1.8679 -0.4581 -0.8712
 2762TIP3   OH232480   1.266   6.216   8.689 -0.1214  0.0358 -0.1812
 2762TIP3    H132481   1.234   6.283   8.629 -0.7634  0.2088  0.3386
 2762TIP3    H232482   1.316   6.156   8.634 -2.2394 -0.8456 -1.2526
 2763TIP3   OH232483   2.809   0.588   2.109  0.6220  0.2964 -0.0281
 2763TIP3    H132484   2.776   0.661   2.056 -0.2365 -0.5093 -0.6546
 2763TIP3    H232485   2.816   0.624   2.197  0.6666  1.2604 -0.4030
 2764TIP3   OH232486   0.254   1.907   7.476  0.7243 -0.0425 -0.6317
 2764TIP3    H132487   0.268   1.818   7.509  0.5936 -0.3284 -1.3331
 2764TIP3    H232488   0.315   1.915   7.403 -0.4343 -0.1516 -1.6333
 2765TIP3   OH232489   1.811   2.194   9.551 -0.2255  0.0801  0.4004
 2765TIP3    H132490   1.756   2.164   9.478  0.9952 -1.2775  0.0010
 2765TIP3    H232491   1.899   2.163   9.530  0.1333 -0.5274  2.5322
 2766TIP3   OH232492   3.007   0.367   8.629  0.4031 -0.2746  0.3533
 2766TIP3    H132493   3.077   0.341   8.689  0.4295 -3.1548 -0.7784
 2766TIP3    H232494   2.926   0.342   8.673  0.2606  0.0146  0.2608
 2767TIP3   OH232495   1.760   1.290   7.897 -0.4471  0.2867  0.8149
 2767TIP3    H132496   1.849   1.289   7.929 -0.6622 -1.6718  1.4711
 2767TIP3    H232497   1.748   1.204   7.857 -2.0986  0.4277  0.9393
 2768TIP3   OH232498   6.329   5.505   9.833  0.0492  0.5458  0.5270
 2768TIP3    H132499   6.335   5.415   9.801 -2.2877  1.0465 -1.6785
 2768TIP3    H232500   6.420   5.535   9.837  0.7474 -0.5369 -3.1138
 2769TIP3   OH232501   6.032   0.608   7.651  0.3824 -0.0777 -0.3125
 2769TIP3    H132502   6.009   0.572   7.565  0.3570  0.6986 -0.6418
 2769TIP3    H232503   5.949   0.641   7.685  0.6445  0.9382 -0.6353
 2770TIP3   OH232504   0.583   5.160   1.707 -0.1616  0.1839  0.4557
 2770TIP3    H132505   0.551   5.141   1.619 -0.7610 -2.2967  1.1162
 2770TIP3    H232506   0.620   5.248   1.702 -1.3981  0.6271 -1.9200
 2771TIP3   OH232507   7.589   1.917  10.040 -0.9834  0.0657  0.1294
 2771TIP3    H132508   7.533   1.986  10.005  1.2144  2.0154  0.1498
 2771TIP3    H232509   7.606   1.860   9.965 -1.4797  0.5450 -0.3612
 2772TIP3   OH232510   0.667   1.949   7.290  0.3289 -0.4867  0.0019
 2772TIP3    H132511   0.727   1.906   7.229  0.4947 -1.7304  0.9995
 2772TIP3    H232512   0.582   1.945   7.246  0.7829  0.4277 -0.9998
 2773TIP3   OH232513   4.359   6.176   9.663 -0.4181 -0.2377 -0.2360
 2773TIP3    H132514   4.334   6.248   9.606 -0.6512 -1.2737 -1.4833
 2773TIP3    H232515   4.280   6.120   9.667  0.4911 -1.6714 -1.2886
 2774TIP3   OH232516   7.104   5.829   1.729 -0.3891  0.0451  0.3720
 2774TIP3    H132517   7.078   5.845   1.638 -0.7531  1.0672  0.6446
 2774TIP3    H232518   7.063   5.746   1.751 -2.0841  0.7883  0.2499
 2775TIP3   OH232519   2.459   0.880   2.678  0.4479  0.2576  0.6009
 2775TIP3    H132520   2.543   0.846   2.647  0.5281  0.9990 -0.0288
 2775TIP3    H232521   2.450   0.846   2.767  0.5246 -1.4033  0.0111
 2776TIP3   OH232522   0.263   6.548   2.658  0.2080  0.3496 -0.4475
 2776TIP3    H132523   0.311   6.466   2.665 -1.2246 -0.8082 -2.8025
 2776TIP3    H232524   0.328   6.612   2.628  1.3114  0.0934  1.3086
 2777TIP3   OH232525   5.216   6.935   2.602 -0.2203 -0.0026  0.0317
 2777TIP3    H132526   5.135   6.897   2.635 -0.4078 -0.5244 -0.9831
 2777TIP3    H232527   5.285   6.897   2.657 -0.5375 -0.6910 -0.0420
 2778TIP3   OH232528   6.256   2.400   7.026  0.4153 -0.1482  0.2667
 2778TIP3    H132529   6.289   2.318   6.989 -0.5713 -0.2641 -0.3825
 2778TIP3    H232530   6.175   2.417   6.978 -1.1132 -0.4756  2.5742
 2779TIP3   OH232531   6.912   0.382   8.648 -0.1520 -0.4894  0.1800
 2779TIP3    H132532   6.857   0.332   8.588 -0.0183  0.2887 -0.6140
 2779TIP3    H232533   7.002   0.362   8.621 -0.0953  0.0459 -0.0389
 2780TIP3   OH232534   6.577   5.892   8.577  0.5717  0.0721  0.1382
 2780TIP3    H132535   6.586   5.936   8.662  2.8205 -0.1304  0.0745
 2780TIP3    H232536   6.574   5.799   8.599 -2.6669  0.0778  0.1716
 2781TIP3   OH232537   7.013   0.181   9.332  0.6516  0.1722  0.1119
 2781TIP3    H132538   7.097   0.168   9.376  0.8977  0.7065 -0.1965
 2781TIP3    H232539   7.035   0.188   9.239  0.5551  2.6857  0.2153
 2782TIP3   OH232540   4.361   0.044   6.549  0.3828 -0.1197  0.0290
 2782TIP3    H132541   4.407   0.103   6.490  0.2531  1.6671  1.6067
 2782TIP3    H232542   4.418   0.037   6.626  0.3684 -2.0540 -0.0826
 2783TIP3   OH232543   3.326   5.873   0.050  0.4859 -0.3508 -0.2536
 2783TIP3    H132544   3.372   5.952   0.078  1.4116 -0.9500 -0.0232
 2783TIP3    H232545   3.374   5.844  -0.028 -0.2694 -0.3165 -0.7433
 2784TIP3   OH232546   1.922   4.077   0.353  0.3025 -0.0748  0.3416
 2784TIP3    H132547   1.841   4.092   0.305  1.0426 -1.2500 -1.4022
 2784TIP3    H232548   1.924   3.982   0.367  0.4761  0.1566  2.0962
 2785TIP3   OH232549   7.532   4.793   9.500  0.0122  0.2122  0.0320
 2785TIP3    H132550   7.620   4.771   9.531  0.3371 -0.6574 -1.3814
 2785TIP3    H232551   7.540   4.881   9.465  0.3604  0.0996 -0.1794
 2786TIP3   OH232552   6.989   2.282   2.062 -0.0286  0.1286 -1.2064
 2786TIP3    H132553   6.952   2.268   1.975  0.1428 -0.0337 -1.2545
 2786TIP3    H232554   7.014   2.374   2.064 -3.5676  1.2168  0.0279
 2787TIP3   OH232555   1.039   5.316   8.166 -0.1950  0.3088 -0.2807
 2787TIP3    H132556   0.985   5.290   8.241  0.3882  0.7589  0.3137
 2787TIP3    H232557   1.051   5.236   8.116  0.0437 -0.1702  0.5220
 2788TIP3   OH232558   4.616   0.532   0.434 -0.0875 -0.1239 -0.5732
 2788TIP3    H132559   4.629   0.474   0.359 -1.3145 -1.5497  0.2570
 2788TIP3    H232560   4.569   0.479   0.498  0.4758  1.2032  1.0286
 2789TIP3   OH232561   6.746   2.777   8.132  0.3132 -0.3380  0.3000
 2789TIP3    H132562   6.802   2.768   8.056  0.3419 -0.1929  0.3042
 2789TIP3    H232563   6.791   2.727   8.201  0.5380 -0.0526  0.3584
 2790TIP3   OH232564   0.726   6.935   8.152 -0.3280 -0.3684 -0.2981
 2790TIP3    H132565   0.799   6.989   8.181 -0.5075 -1.1173  1.6616
 2790TIP3    H232566   0.753   6.845   8.171 -1.0457 -0.8102 -1.2185
 2791TIP3   OH232567   6.087   0.979   2.342  0.6402  0.0640 -0.1527
 2791TIP3    H132568   6.017   0.917   2.358  0.2890  0.2722 -0.8157
 2791TIP3    H232569   6.129   0.948   2.262  0.5922  0.5558 -0.3752
 2792TIP3   OH232570   7.284   4.033   7.873 -0.3804  0.4422 -0.2645
 2792TIP3    H132571   7.325   4.107   7.918 -0.5152  1.6617 -2.0443
 2792TIP3    H232572   7.302   4.048   7.780 -0.2840 -1.8701 -0.6684
 2793TIP3   OH232573   4.282   3.709   7.829 -0.0181 -0.0463  0.1533
 2793TIP3    H132574   4.289   3.677   7.739 -0.2680  0.1342  0.0680
 2793TIP3    H232575   4.195   3.680   7.858 -0.3953  0.8429 -0.0448
 2794TIP3   OH232576   0.059   2.083   8.661  0.6291  0.7060  0.6924
 2794TIP3    H132577   0.049   2.168   8.704  1.1567  0.0191  2.2221
 2794TIP3    H232578   0.011   2.022   8.717 -0.2603  0.0606 -0.7059
 2795TIP3   OH232579   2.501   1.002   9.909 -0.5415 -0.4786  0.1467
 2795TIP3    H132580   2.545   1.028   9.828 -2.1595 -0.4843 -0.7900
 2795TIP3    H232581   2.552   1.043   9.979  0.1834  0.5513 -0.9485
 2796TIP3   OH232582   0.369   4.849   3.191 -0.1994  0.0642 -0.7105
 2796TIP3    H132583   0.413   4.772   3.154 -0.5125  0.1315 -1.2295
 2796TIP3    H232584   0.279   4.842   3.160 -0.2678  0.5579 -0.6274
 2797TIP3   OH232585   2.372   4.054   7.924  0.4342  0.4153  0.3452
 2797TIP3    H132586   2.418   4.035   8.006  1.6782 -3.8811 -1.0667
 2797TIP3    H232587   2.442   4.077   7.862  0.0495 -0.6032 -0.4858
 2798TIP3   OH232588   0.569   2.904   7.282  0.7308 -0.3327 -0.4959
 2798TIP3    H132589   0.567   2.986   7.232 -0.3567 -1.1634 -1.9057
 2798TIP3    H232590   0.487   2.905   7.332  0.5315 -0.7094 -0.8056
 2799TIP3   OH232591   6.049   6.285   2.683  0.9724 -0.0321 -0.2632
 2799TIP3    H132592   6.079   6.223   2.617  1.7319 -0.5339  0.5331
 2799TIP3    H232593   6.065   6.241   2.767  0.2391  0.6844  0.2659
 2800TIP3   OH232594   1.540   6.003   8.195  0.2715  0.3931  0.3662
 2800TIP3    H132595   1.488   5.931   8.231  0.7318 -0.6571 -0.9762
 2800TIP3    H232596   1.612   6.015   8.257  1.8209 -2.2896 -0.7660
 2801TIP3   OH232597   6.460   7.256   0.434  0.0248 -0.0530  0.5646
 2801TIP3    H132598   6.424   7.295   0.355  0.5191  0.8230  0.7633
 2801TIP3    H232599   6.400   7.184   0.455  0.3826 -0.8736 -1.0996
 2802TIP3   OH232600   5.136   0.328   9.245 -0.2740  0.1460 -0.2853
 2802TIP3    H132601   5.172   0.239   9.242 -0.1548  0.1987 -0.4289
 2802TIP3    H232602   5.048   0.317   9.281 -1.1307 -0.3267 -2.3425
 2803TIP3   OH232603   3.468   1.179   9.419  0.0656  0.2375 -0.2167
 2803TIP3    H132604   3.451   1.084   9.425 -0.3640  0.2529 -1.0119
 2803TIP3    H232605   3.410   1.217   9.485 -0.9825  0.0602 -0.9983
 2804TIP3   OH232606   4.932   3.228   0.056  0.0348  0.7155 -0.5244
 2804TIP3    H132607   4.962   3.201  -0.030  2.0327 -1.9336  0.8474
 2804TIP3    H232608   4.837   3.222   0.052  0.1770 -1.7017 -1.9209
 2805TIP3   OH232609   2.984   6.697   1.497 -0.6010 -0.4384  0.2951
 2805TIP3    H132610   3.015   6.714   1.408  0.0373 -1.4074  0.3224
 2805TIP3    H232611   3.054   6.646   1.538 -0.5537  0.6065  1.5922
 2806TIP3   OH232612   7.404   1.149   2.542  0.4361 -0.0930  0.7879
 2806TIP3    H132613   7.434   1.201   2.467 -0.2211  1.1906  1.3819
 2806TIP3    H232614   7.445   1.064   2.529 -0.0070 -0.0601 -1.2626
 2807TIP3   OH232615   2.329   4.545   8.465  0.6481  0.1779  0.4553
 2807TIP3    H132616   2.337   4.601   8.388  0.3736 -2.1497 -1.3988
 2807TIP3    H232617   2.411   4.495   8.466  0.0659 -0.8031  0.8120
 2808TIP3   OH232618   4.170   7.312   8.209 -0.2571 -0.3625 -0.1725
 2808TIP3    H132619   4.117   7.364   8.270  1.5957 -1.0961  2.1839
 2808TIP3    H232620   4.257   7.312   8.247  0.8528 -1.4267 -2.5400
 2809TIP3   OH232621   7.545   5.701   7.496 -0.6395 -0.4825  0.3608
 2809TIP3    H132622   7.561   5.651   7.415  1.3945 -1.3351  1.2166
 2809TIP3    H232623   7.451   5.691   7.511 -0.8514 -1.3569 -1.2321
 2810TIP3   OH232624   2.449   2.559   6.793 -0.1510  0.6190  0.5702
 2810TIP3    H132625   2.465   2.610   6.873 -0.2696  0.0740  0.9503
 2810TIP3    H232626   2.483   2.472   6.814  0.1947  0.5813 -0.1270
 2811TIP3   OH232627   3.739   7.057   9.297 -0.3380 -0.1751  0.1254
 2811TIP3    H132628   3.731   7.049   9.392 -2.4814  2.0864  0.2382
 2811TIP3    H232629   3.652   7.034   9.263 -0.2920  1.1806 -1.0467
 2812TIP3   OH232630   6.096   2.916   2.037 -0.1603 -0.2299 -0.3775
 2812TIP3    H132631   6.038   2.953   2.103 -0.7691 -1.0269 -0.4553
 2812TIP3    H232632   6.107   2.986   1.973  2.0714  1.3057  1.5264
 2813TIP3   OH232633   7.489   1.382   8.556  0.1071  0.0884 -0.2087
 2813TIP3    H132634   7.457   1.320   8.491 -0.3341 -0.2703  0.3379
 2813TIP3    H232635   7.426   1.454   8.553 -0.4208 -0.3353  0.4348
 2814TIP3   OH232636   0.173   5.937   2.571 -0.1658 -0.0408 -0.4050
 2814TIP3    H132637   0.137   5.983   2.495 -3.0579 -2.3330 -0.5894
 2814TIP3    H232638   0.118   5.966   2.644  1.4736  0.8209  0.5375
 2815TIP3   OH232639   3.482   0.332   8.134  0.8784  0.4367  0.6070
 2815TIP3    H132640   3.445   0.247   8.160  0.9092  0.4455  0.6798
 2815TIP3    H232641   3.519   0.316   8.048 -1.7495  1.1116 -0.7680
 2816TIP3   OH232642   1.254   4.475   0.913  0.3508  0.4540  0.3568
 2816TIP3    H132643   1.258   4.422   0.834  3.9157 -0.6765  1.1258
 2816TIP3    H232644   1.343   4.508   0.925 -1.0924  4.6759  1.3193
 2817TIP3   OH232645   0.454   5.031   8.670  0.0319 -0.2899  0.2843
 2817TIP3    H132646   0.535   5.062   8.630 -0.0492 -0.0534  0.2985
 2817TIP3    H232647   0.391   5.029   8.598 -0.1282  0.1879  0.4083
 2818TIP3   OH232648   7.395   1.444   0.020  0.4962 -0.1866 -0.4054
 2818TIP3    H132649   7.314   1.455  -0.030  1.0659  0.9627 -1.1170
 2818TIP3    H232650   7.386   1.504   0.094  1.1320  0.7609 -1.0755
 2819TIP3   OH232651   5.208   1.266   7.064  0.2445 -0.0747  0.5189
 2819TIP3    H132652   5.203   1.348   7.015 -0.7574  0.5686  1.6680
 2819TIP3    H232653   5.147   1.208   7.019  0.0756  0.1861  0.4089
 2820TIP3   OH232654   2.639   6.739   0.638  0.1317  0.3982 -0.1384
 2820TIP3    H132655   2.605   6.738   0.548 -1.5283  0.3695  0.4650
 2820TIP3    H232656   2.562   6.752   0.693  0.9413 -0.8033  1.3642
 2821TIP3   OH232657   3.862   1.526   7.435 -0.0236  0.5330  0.0464
 2821TIP3    H132658   3.833   1.516   7.525 -0.7415 -0.5805 -0.2891
 2821TIP3    H232659   3.950   1.563   7.441  1.0746 -2.0662  1.3046
 2822TIP3   OH232660   2.488   6.664   0.088  0.0131  0.0493 -0.8669
 2822TIP3    H132661   2.497   6.586   0.034 -2.9009 -0.1755 -1.1722
 2822TIP3    H232662   2.482   6.736   0.026  2.2601  0.5549 -0.5949
 2823TIP3   OH232663   1.575   6.132   0.830 -0.5021 -0.0655 -0.0439
 2823TIP3    H132664   1.663   6.097   0.844 -0.4448  0.2676  0.4984
 2823TIP3    H232665   1.579   6.175   0.745  0.7451  2.4972  1.1652
 2824TIP3   OH232666   1.171   4.426   6.831 -0.1346 -0.2339 -0.3553
 2824TIP3    H132667   1.181   4.521   6.836  0.0804 -0.3022  0.7809
 2824TIP3    H232668   1.237   4.392   6.891 -0.8467 -1.0652 -0.0217
 2825TIP3   OH232669   4.745   0.363   7.707  0.0826 -0.3748  0.2091
 2825TIP3    H132670   4.693   0.284   7.722 -0.6507 -0.0172 -0.3981
 2825TIP3    H232671   4.795   0.374   7.788 -1.2901 -0.3603  1.0915
 2826TIP3   OH232672   2.494   1.137   8.566  0.4313  0.1360 -0.1544
 2826TIP3    H132673   2.519   1.067   8.625  1.0500  0.8173  0.3987
 2826TIP3    H232674   2.548   1.211   8.591 -1.1791  1.2523  0.2066
 2827TIP3   OH232675   0.739   5.514   0.116  0.1604  0.4463  0.0298
 2827TIP3    H132676   0.754   5.420   0.101 -0.0547  0.1742  1.4231
 2827TIP3    H232677   0.667   5.536   0.057  0.5141 -0.1566 -0.6428
 2828TIP3   OH232678   5.407   2.029   1.271  0.3313 -0.8547  0.3543
 2828TIP3    H132679   5.412   1.934   1.280  1.7624 -0.8985 -0.5727
 2828TIP3    H232680   5.351   2.043   1.195  3.3288 -1.1946 -2.1426
 2829TIP3   OH232681   4.324   0.196   9.585 -0.0642  0.0631 -0.4694
 2829TIP3    H132682   4.335   0.101   9.587 -1.0946 -0.0576  0.5221
 2829TIP3    H232683   4.279   0.213   9.502 -0.7976 -0.4428 -0.1903
 2830TIP3   OH232684   1.799   1.374   1.235 -0.2721 -0.0596 -0.5600
 2830TIP3    H132685   1.729   1.435   1.253 -0.3179  0.4987 -2.4080
 2830TIP3    H232686   1.759   1.305   1.182  0.3926 -0.1789 -0.9268
 2831TIP3   OH232687   5.525   7.631   1.822 -0.7409  0.3549  0.1173
 2831TIP3    H132688   5.595   7.685   1.859 -2.4173  3.6113 -1.0264
 2831TIP3    H232689   5.507   7.671   1.736 -2.3460 -1.9038 -0.6949
 2832TIP3   OH232690   4.814   0.183   1.200  0.3901  0.0728 -0.6173
 2832TIP3    H132691   4.762   0.117   1.155  1.7588 -1.5744  0.1044
 2832TIP3    H232692   4.896   0.187   1.151  0.4473  1.0264 -0.4700
 2833TIP3   OH232693   5.388   0.937   2.382 -0.2585  0.1427  0.8242
 2833TIP3    H132694   5.414   1.023   2.349 -2.8527  0.9013  0.5702
 2833TIP3    H232695   5.330   0.902   2.314  1.3830 -2.2322  0.5292
 2834TIP3   OH232696   4.624   3.623   8.949  0.4366  0.0568  0.7442
 2834TIP3    H132697   4.640   3.677   8.872  0.5941 -1.9926 -0.7462
 2834TIP3    H232698   4.704   3.629   9.000  0.4337  1.2275  0.6410
 2835TIP3   OH232699   6.736   1.301   8.196  0.1419  0.5137  0.1765
 2835TIP3    H132700   6.672   1.230   8.195 -1.2877  1.7025  1.4406
 2835TIP3    H232701   6.820   1.257   8.211 -0.8993 -0.8413  2.7623
 2836TIP3   OH232702   6.131   4.832   0.084  0.0932  0.1510  0.1451
 2836TIP3    H132703   6.201   4.815   0.021  0.9188  1.2268  0.7274
 2836TIP3    H232704   6.176   4.850   0.166 -0.9497 -0.7864  0.9533
 2837TIP3   OH232705   4.386   6.506   8.996  0.1370  0.5200 -0.1016
 2837TIP3    H132706   4.460   6.472   9.047 -0.3555  0.8044  0.8280
 2837TIP3    H232707   4.413   6.595   8.972 -0.5937  1.3261  1.8072
 2838TIP3   OH232708   3.505   7.587   8.418  0.4440  0.2562 -0.9647
 2838TIP3    H132709   3.455   7.592   8.500 -0.0517 -0.4632 -1.2201
 2838TIP3    H232710   3.523   7.494   8.406  1.0617  0.4196 -1.3586
 2839TIP3   OH232711   4.185   0.662   8.125  0.4050 -0.4548 -0.1644
 2839TIP3    H132712   4.167   0.699   8.038 -0.7763 -0.4652  0.0527
 2839TIP3    H232713   4.125   0.709   8.183  2.1184  0.5010  0.8885
 2840TIP3   OH232714   3.098   5.356   9.193 -0.6102 -0.1734  0.0625
 2840TIP3    H132715   3.174   5.378   9.247 -0.7321 -1.8640  0.9884
 2840TIP3    H232716   3.026   5.403   9.234 -0.8103 -1.8655  1.8107
 2841TIP3   OH232717   2.610   2.804   1.555  0.0656 -0.5374  0.2895
 2841TIP3    H132718   2.614   2.898   1.572 -0.5421 -0.8939  2.7075
 2841TIP3    H232719   2.698   2.780   1.527 -0.1057  0.9342 -1.6999
 2842TIP3   OH232720   1.585   6.340   9.287 -0.3814 -0.5040  0.1790
 2842TIP3    H132721   1.537   6.300   9.214 -2.2410  0.8067  0.5985
 2842TIP3    H232722   1.651   6.395   9.245 -1.1395 -0.1129 -0.5530
 2843TIP3   OH232723   3.764   4.946   8.021  0.3268 -0.2393 -0.3641
 2843TIP3    H132724   3.769   4.860   8.062  0.9145 -0.0350  0.0166
 2843TIP3    H232725   3.828   4.999   8.069 -0.7161  0.6845  0.0542
 2844TIP3   OH232726   3.585   4.413   0.443 -0.8235 -0.3723 -0.1744
 2844TIP3    H132727   3.646   4.340   0.450 -1.3605 -0.8671 -0.6200
 2844TIP3    H232728   3.545   4.404   0.356 -0.4990  0.7628 -0.4647
 2845TIP3   OH232729   6.459   4.977   9.544  0.4918 -0.2070  0.4878
 2845TIP3    H132730   6.406   4.943   9.471  0.9982 -0.8445  0.4054
 2845TIP3    H232731   6.398   4.980   9.618  0.5756 -1.9486  0.6673
 2846TIP3   OH232732   4.540   6.117   8.138  0.0166  0.1848  0.0572
 2846TIP3    H132733   4.587   6.182   8.189 -0.3265  1.1367 -0.8166
 2846TIP3    H232734   4.521   6.046   8.201  0.1291  1.0526  1.0940
 2847TIP3   OH232735   0.753   7.552   2.083 -0.1405  0.0861 -0.4951
 2847TIP3    H132736   0.672   7.582   2.123 -0.4351 -0.7406 -0.4576
 2847TIP3    H232737   0.738   7.560   1.989  1.0251  3.2969 -0.5239
 2848TIP3   OH232738   6.210   6.602   7.000  0.2254  0.3218 -0.0031
 2848TIP3    H132739   6.117   6.581   7.000 -0.1691  1.6666  2.7514
 2848TIP3    H232740   6.231   6.619   6.908 -2.1943 -0.1133 -0.6916
 2849TIP3   OH232741   0.977   0.282   0.813 -0.4636  0.4928 -0.1065
 2849TIP3    H132742   0.937   0.341   0.749 -1.1226 -0.8715 -0.9986
 2849TIP3    H232743   1.056   0.249   0.770 -0.3215  0.4028  0.2216
 2850TIP3   OH232744   5.811   5.336   0.104 -0.2101 -0.4903 -0.1594
 2850TIP3    H132745   5.856   5.255   0.127  1.7563 -0.1260 -2.2935
 2850TIP3    H232746   5.754   5.312   0.031 -1.3588 -0.3427  0.6521
 2851TIP3   OH232747   4.087   3.455   9.377  0.0043 -0.7143  0.3326
 2851TIP3    H132748   4.014   3.395   9.392  2.3730 -3.2270  3.0077
 2851TIP3    H232749   4.097   3.502   9.460  2.0663 -1.2884  0.4662
 2852TIP3   OH232750   5.410   0.241   3.261  0.0023  0.0920  0.3185
 2852TIP3    H132751   5.499   0.231   3.227 -0.0350  0.8263 -0.0154
 2852TIP3    H232752   5.412   0.202   3.348 -0.2967 -3.4376 -1.0685
 2853TIP3   OH232753   3.615   0.566   1.403  0.2583 -0.4739  0.4290
 2853TIP3    H132754   3.590   0.641   1.457  1.6119 -0.3075  0.8765
 2853TIP3    H232755   3.702   0.542   1.436 -0.5835 -2.9413  1.0592
 2854TIP3   OH232756   7.282   5.618   8.233  0.0706  0.4526  0.4824
 2854TIP3    H132757   7.228   5.654   8.304 -0.5791  0.6570 -0.1079
 2854TIP3    H232758   7.220   5.568   8.180  0.6462 -0.0878  0.3202
 2855TIP3   OH232759   5.929   4.696   9.025  0.6007  0.4750 -0.8389
 2855TIP3    H132760   5.936   4.690   9.120 -0.0935 -1.2745 -0.8616
 2855TIP3    H232761   5.988   4.627   8.992  0.7706  1.0080 -1.6728
 2856TIP3   OH232762   1.364   4.877   7.863  0.0735 -0.5800  0.0177
 2856TIP3    H132763   1.403   4.859   7.777 -2.1407 -0.7928 -1.0130
 2856TIP3    H232764   1.330   4.966   7.856  0.8000 -0.2006  1.0720
 2857TIP3   OH232765   7.193   5.242   9.688 -0.0890 -0.6137  0.2002
 2857TIP3    H132766   7.238   5.248   9.604 -1.4139  0.1036 -0.5004
 2857TIP3    H232767   7.134   5.167   9.677  0.6516 -1.3252  0.9721
 2858TIP3   OH232768   0.116   3.622   7.938 -0.2258  0.0756 -0.5724
 2858TIP3    H132769   0.166   3.611   8.019 -0.2882 -2.9862 -0.8452
 2858TIP3    H232770   0.062   3.700   7.954 -0.7416 -0.7931  2.6241
 2859TIP3   OH232771   5.939   0.205   1.227 -0.4821  0.3473  0.2686
 2859TIP3    H132772   5.969   0.290   1.258  0.7941  0.2063 -0.5004
 2859TIP3    H232773   5.924   0.217   1.133  2.4407 -0.8964 -0.4737
 2860TIP3   OH232774   1.171   6.766   7.451  0.2550  0.1910  0.2393
 2860TIP3    H132775   1.166   6.699   7.520  0.8690 -0.1873 -0.0769
 2860TIP3    H232776   1.263   6.790   7.448  0.6601 -1.3789 -1.9182
 2861TIP3   OH232777   1.207   0.370   0.276 -0.4380  0.1675 -0.2032
 2861TIP3    H132778   1.124   0.417   0.290  0.6836  2.0048  0.7653
 2861TIP3    H232779   1.273   0.440   0.272  0.9598 -1.1590 -2.0841
 2862TIP3   OH232780   5.549   3.957   7.425 -0.6415 -0.4814  0.1869
 2862TIP3    H132781   5.642   3.961   7.401 -0.8740 -2.2843 -1.2472
 2862TIP3    H232782   5.541   3.876   7.476 -1.5055 -0.5714 -0.0832
 2863TIP3   OH232783   4.484   3.785   7.640  0.3088  0.4406  0.2679
 2863TIP3    H132784   4.444   3.718   7.585  1.2988 -0.2598  0.3807
 2863TIP3    H232785   4.490   3.746   7.727  0.4234  0.8625  0.4568
 2864TIP3   OH232786   5.557   1.355   2.830  0.1291  0.1091 -0.1702
 2864TIP3    H132787   5.466   1.375   2.812  0.1510  0.0243 -0.3765
 2864TIP3    H232788   5.563   1.260   2.824  0.6589  0.2163 -2.2453
 2865TIP3   OH232789   4.039   5.595   8.676  0.0590  0.0003 -0.4632
 2865TIP3    H132790   4.017   5.503   8.661  0.2254 -0.0776 -0.2390
 2865TIP3    H232791   4.085   5.595   8.760  0.3396  0.2435 -0.6135
 2866TIP3   OH232792   4.264   0.881   0.115 -0.0712  0.2175  0.0932
 2866TIP3    H132793   4.327   0.835   0.171 -0.9530 -1.3330 -0.1475
 2866TIP3    H232794   4.259   0.969   0.152  2.0858  0.3374  0.2285
 2867TIP3   OH232795   0.954   2.868   1.750 -0.2984  0.2803  0.4322
 2867TIP3    H132796   0.986   2.910   1.670  0.1521  0.0147  0.4702
 2867TIP3    H232797   0.911   2.939   1.799 -1.5922  0.2178 -0.5624
 2868TIP3   OH232798   1.580   0.628   9.348  0.6568  0.4355 -0.1008
 2868TIP3    H132799   1.627   0.711   9.353  1.8063 -0.0737 -1.6445
 2868TIP3    H232800   1.646   0.562   9.369 -0.1386 -0.1343  0.6779
 2869TIP3   OH232801   2.413   0.982   2.326  0.0085  0.3456 -0.5024
 2869TIP3    H132802   2.395   1.037   2.402 -1.8223  1.0038 -1.3514
 2869TIP3    H232803   2.482   1.029   2.278 -1.3674  1.8772 -1.1023
 2870TIP3   OH232804   4.577   0.621   1.289 -0.8246  0.1711  0.1468
 2870TIP3    H132805   4.650   0.559   1.292 -1.6347 -0.7774  0.6623
 2870TIP3    H232806   4.526   0.595   1.212 -1.6434 -0.3816  0.8533
 2871TIP3   OH232807   0.896   6.517   9.251  0.0222  0.4783  0.6896
 2871TIP3    H132808   0.904   6.565   9.334  1.6575 -0.9046  1.3832
 2871TIP3    H232809   0.828   6.452   9.268 -0.7137  1.1444  0.4133
 2872TIP3   OH232810   7.337   4.104   9.437  0.9631  0.5434 -0.1652
 2872TIP3    H132811   7.388   4.163   9.493  0.9798  0.8014 -0.4539
 2872TIP3    H232812   7.249   4.104   9.477  1.2049  0.0252  0.3863
 2873TIP3   OH232813   5.757   1.797   1.339  0.0545 -0.3861 -0.1998
 2873TIP3    H132814   5.762   1.779   1.245  0.4077 -2.3450  0.1483
 2873TIP3    H232815   5.663   1.793   1.359  0.0359 -0.7119 -0.3434
 2874TIP3   OH232816   2.525   2.835   8.102 -0.2348  0.2035  0.0014
 2874TIP3    H132817   2.455   2.824   8.165  0.2283 -1.1860  0.3162
 2874TIP3    H232818   2.591   2.770   8.127  0.4578  0.3813 -1.2287
 2875TIP3   OH232819   4.636   0.529   7.179 -0.1211  0.3808 -0.6932
 2875TIP3    H132820   4.641   0.570   7.092 -0.2395  1.4304 -0.2199
 2875TIP3    H232821   4.710   0.469   7.181  1.1999  1.9173 -0.7576
 2876TIP3   OH232822   1.160   5.935   1.676  0.1098 -0.0997 -0.3028
 2876TIP3    H132823   1.208   5.978   1.605 -0.3016 -0.0484 -0.5522
 2876TIP3    H232824   1.215   5.949   1.753  2.4507 -3.3136 -1.2034
 2877TIP3   OH232825   0.261   2.802   9.856 -0.1028  0.4339  0.3327
 2877TIP3    H132826   0.204   2.805   9.780  0.5009  1.3259 -0.0987
 2877TIP3    H232827   0.317   2.726   9.841 -1.0694 -0.3685  0.6950
 2878TIP3   OH232828   1.141   1.683   7.797 -0.2261 -0.1141  0.8599
 2878TIP3    H132829   1.104   1.732   7.870 -0.8967  1.8995 -0.7448
 2878TIP3    H232830   1.234   1.702   7.800 -0.3609  0.5859  0.7602
 2879TIP3   OH232831   5.889   4.392   0.461  0.4355  0.5643 -1.0181
 2879TIP3    H132832   5.906   4.325   0.396  0.9420  1.3943 -1.7665
 2879TIP3    H232833   5.923   4.355   0.543 -1.6253 -1.1381 -0.8381
 2880TIP3   OH232834   2.481   3.739   7.881  0.4931 -0.2495 -0.4098
 2880TIP3    H132835   2.520   3.803   7.821  0.1585  0.9190  0.5751
 2880TIP3    H232836   2.390   3.768   7.891  0.6058 -0.2739  0.8372
 2881TIP3   OH232837   3.160   0.506   7.535 -0.0132  0.5690 -0.0535
 2881TIP3    H132838   3.100   0.580   7.533  1.8900  2.3132  1.7353
 2881TIP3    H232839   3.216   0.517   7.458 -2.0649 -1.2735 -1.9386
 2882TIP3   OH232840   3.227   6.110   1.724 -0.0655  0.2747  0.2163
 2882TIP3    H132841   3.303   6.056   1.701 -1.1403 -1.3536  0.3278
 2882TIP3    H232842   3.254   6.158   1.802  0.2823 -1.6648  1.3661
 2883TIP3   OH232843   1.309   3.763   9.630  0.5209 -0.1754  0.3977
 2883TIP3    H132844   1.340   3.713   9.554 -1.1527  1.0842 -1.1976
 2883TIP3    H232845   1.232   3.715   9.660 -1.9417  1.9488 -1.9971
 2884TIP3   OH232846   7.600   4.524   1.451  0.3364 -0.3370 -0.3942
 2884TIP3    H132847   7.675   4.576   1.480 -0.9388  1.0875  0.4815
 2884TIP3    H232848   7.527   4.555   1.505 -0.6425 -2.5625 -0.3506
 2885TIP3   OH232849   7.511   0.588   1.386 -0.9744  0.3466 -0.2938
 2885TIP3    H132850   7.491   0.680   1.401 -0.3062  0.3369  0.7757
 2885TIP3    H232851   7.594   0.574   1.432 -1.2409 -0.8678 -0.1429
 2886TIP3   OH232852   1.153   1.511   9.518 -0.1027 -0.7127  0.6673
 2886TIP3    H132853   1.128   1.593   9.559  1.8976 -0.3812  1.3453
 2886TIP3    H232854   1.111   1.512   9.432 -1.0426  0.4719  1.1291
 2887TIP3   OH232855   2.309   3.245   1.992  0.1891  0.4551  0.2847
 2887TIP3    H132856   2.348   3.172   2.039  1.3430  1.1931  0.5243
 2887TIP3    H232857   2.309   3.317   2.055  1.0051  1.2296 -0.5632
 2888TIP3   OH232858   1.993   4.677   0.889  0.3239  0.0441 -0.1001
 2888TIP3    H132859   1.943   4.732   0.949 -2.8040 -2.0880 -0.5247
 2888TIP3    H232860   1.977   4.588   0.919  1.5395 -0.9141 -2.0602
 2889TIP3   OH232861   3.842  -0.010   1.114 -0.5199  0.0196 -0.3488
 2889TIP3    H132862   3.894   0.050   1.060 -1.6237 -0.3692 -1.8814
 2889TIP3    H232863   3.882  -0.096   1.100 -0.0586  0.0911  0.4411
 2890TIP3   OH232864   6.203   6.875   2.371 -0.0047 -0.7512  0.2946
 2890TIP3    H132865   6.283   6.887   2.319 -0.1488 -3.4428 -0.7192
 2890TIP3    H232866   6.198   6.780   2.384 -0.9447 -0.3562  3.7757
 2891TIP3   OH232867   3.948   6.989   6.967 -0.1429  0.2551 -0.7478
 2891TIP3    H132868   3.989   6.909   6.932  2.6632 -0.2966  3.1653
 2891TIP3    H232869   3.965   7.055   6.900  1.1729 -1.5346 -2.3151
 2892TIP3   OH232870   3.773   1.636   8.067 -0.4729  0.0145 -0.0539
 2892TIP3    H132871   3.791   1.542   8.062 -0.4285 -0.1564  2.1168
 2892TIP3    H232872   3.702   1.650   8.004 -0.1105 -1.3609 -0.8161
 2893TIP3   OH232873   1.614   6.220   2.251 -0.1962 -0.6018 -0.1275
 2893TIP3    H132874   1.550   6.259   2.312 -0.2873 -0.0334 -0.5747
 2893TIP3    H232875   1.688   6.280   2.253 -0.6205  0.0047 -1.3654
 2894TIP3   OH232876   7.612   0.501   1.063  0.3853  0.2085  0.0049
 2894TIP3    H132877   7.518   0.498   1.081  0.2703  1.6759 -0.2592
 2894TIP3    H232878   7.650   0.543   1.140  0.8486 -0.4319  0.1367
 2895TIP3   OH232879   3.749   6.698   6.920 -0.4822  0.3772  0.2670
 2895TIP3    H132880   3.816   6.630   6.919 -0.5970  0.2441  0.9550
 2895TIP3    H232881   3.735   6.720   6.828 -1.1366 -1.2209 -0.0398
 2896TIP3   OH232882   5.186   3.890   7.669  0.1539  0.2659 -0.3800
 2896TIP3    H132883   5.130   3.944   7.612 -1.5979 -2.0292 -1.0386
 2896TIP3    H232884   5.147   3.899   7.756 -0.3173 -0.1325 -0.5443
 2897TIP3   OH232885   7.526   1.340   1.497  0.1674 -0.1345 -0.3039
 2897TIP3    H132886   7.556   1.258   1.457  0.3309 -0.8709  1.2528
 2897TIP3    H232887   7.464   1.376   1.434 -0.0899 -1.5782 -0.9197
 2898TIP3   OH232888   6.234   2.684   9.623 -0.4894  0.0123 -0.4579
 2898TIP3    H132889   6.311   2.673   9.567 -0.9005 -0.7987 -0.8842
 2898TIP3    H232890   6.186   2.601   9.615 -1.0903  0.2714  0.2867
 2899TIP3   OH232891   1.580   2.468   2.733  0.3464  0.2087 -0.4864
 2899TIP3    H132892   1.584   2.491   2.826  1.5693  0.0136 -0.4765
 2899TIP3    H232893   1.547   2.378   2.732  0.8312  0.0262 -0.2080
 2900TIP3   OH232894   5.192   5.151   8.554 -0.2185 -0.3053  0.3675
 2900TIP3    H132895   5.234   5.081   8.604  0.7849  0.4402  0.6228
 2900TIP3    H232896   5.248   5.227   8.569  0.0879 -0.0191 -1.8362
 2901TIP3   OH232897   0.400   6.276   9.228 -1.0729  0.0657  0.4595
 2901TIP3    H132898   0.425   6.194   9.187 -1.1164  0.9507 -1.4508
 2901TIP3    H232899   0.308   6.265   9.252 -0.8126 -0.7565  1.1156
 2902TIP3   OH232900   5.183   7.367   0.277  0.2926  0.4211 -0.5429
 2902TIP3    H132901   5.178   7.437   0.212 -1.3528  1.1203  0.2600
 2902TIP3    H232902   5.275   7.342   0.280  0.8584  2.3209 -1.1164
 2903TIP3   OH232903   0.077   5.682   7.220 -0.2253 -0.4810 -1.0689
 2903TIP3    H132904   0.133   5.610   7.191  1.9146  0.6805 -0.0922
 2903TIP3    H232905  -0.008   5.641   7.238  0.5203 -2.4774 -1.8338
 2904TIP3   OH232906   2.271   7.314   0.717 -0.1175 -0.1586  0.7991
 2904TIP3    H132907   2.251   7.224   0.740 -1.9594 -0.2290 -0.8247
 2904TIP3    H232908   2.210   7.367   0.767 -0.6565  0.0109 -0.0167
 2905TIP3   OH232909   2.940   1.670   8.223 -0.1894  0.3078 -0.7225
 2905TIP3    H132910   3.000   1.737   8.192 -0.9296  0.3876 -2.0983
 2905TIP3    H232911   2.977   1.639   8.305  0.8807  1.4404 -0.7627
 2906TIP3   OH232912   1.589   7.546   0.676  0.0123 -0.0826  0.1215
 2906TIP3    H132913   1.533   7.566   0.600  0.7632 -0.7206 -0.6236
 2906TIP3    H232914   1.528   7.540   0.749 -0.6946  0.8896 -0.3629
 2907TIP3   OH232915   1.424   4.219   8.289  0.0507  0.2220 -0.3574
 2907TIP3    H132916   1.476   4.166   8.349 -0.1017  0.2250 -0.2231
 2907TIP3    H232917   1.488   4.263   8.234  0.1694 -0.5539 -0.8546
 2908TIP3   OH232918   7.354   7.542   9.261  0.2307  0.4069  1.1493
 2908TIP3    H132919   7.416   7.537   9.188 -2.2871 -0.1172 -1.1697
 2908TIP3    H232920   7.383   7.475   9.323  1.4580 -0.4457 -0.2820
 2909TIP3   OH232921   3.696   0.901   0.563  0.0913 -0.1051 -0.1855
 2909TIP3    H132922   3.775   0.944   0.595 -0.0501  0.3351 -0.4252
 2909TIP3    H232923   3.725   0.814   0.535  0.7707  0.5764 -1.6811
 2910TIP3   OH232924   2.627   7.467   7.684  0.0308  0.1858 -0.1336
 2910TIP3    H132925   2.719   7.478   7.711 -0.0200  0.6979 -0.1500
 2910TIP3    H232926   2.630   7.400   7.616  0.2290 -0.7415  0.7628
 2911TIP3   OH232927   1.429   1.455   7.282  0.5200 -0.6119  0.3272
 2911TIP3    H132928   1.513   1.414   7.305  0.4919 -1.1496 -0.4980
 2911TIP3    H232929   1.391   1.397   7.216  0.4716  0.7184 -0.8602
 2912TIP3   OH232930   0.113   5.066   1.908 -0.1215  0.1174  0.4331
 2912TIP3    H132931   0.066   5.113   1.839  0.1013  0.0870  0.2580
 2912TIP3    H232932   0.205   5.082   1.888 -0.0609  0.5983  1.0607
 2913TIP3   OH232933   1.014   1.527   2.191  0.1629 -0.7083 -0.1645
 2913TIP3    H132934   1.076   1.585   2.147 -0.3634  1.4715  1.7568
 2913TIP3    H232935   1.068   1.467   2.242  0.7028 -1.3538 -1.4497
 2914TIP3   OH232936   0.933   7.226   1.298 -0.4280  0.9397  0.3095
 2914TIP3    H132937   0.871   7.153   1.294  1.0756 -0.4953  1.8154
 2914TIP3    H232938   0.900   7.289   1.234 -3.1534  0.0425  0.7282
 2915TIP3   OH232939   2.163   4.151   6.678  0.0692  0.0341  0.1138
 2915TIP3    H132940   2.201   4.156   6.591 -2.9674 -0.4114 -1.3784
 2915TIP3    H232941   2.204   4.222   6.727  0.5291  1.5068 -2.2563
 2916TIP3   OH232942   1.149   4.851   8.819  0.0462  0.3239  0.3868
 2916TIP3    H132943   1.224   4.801   8.852  1.7070  1.2364 -1.7871
 2916TIP3    H232944   1.086   4.784   8.792  1.8921 -0.6809 -1.7540
 2917TIP3   OH232945   0.700   5.942   9.101 -0.1740 -0.6927  0.2918
 2917TIP3    H132946   0.626   6.000   9.082  0.1498 -0.4973 -0.3940
 2917TIP3    H232947   0.753   5.992   9.163 -1.0951 -1.2280  1.5733
 2918TIP3   OH232948   6.719   1.270   0.036 -0.0577 -0.0155 -0.1450
 2918TIP3    H132949   6.645   1.259  -0.023 -0.6673 -0.0326  0.6168
 2918TIP3    H232950   6.744   1.181   0.061 -1.0635  0.0467  1.1640
 2919TIP3   OH232951   1.145   3.768   1.305  0.1435 -0.0937 -0.0480
 2919TIP3    H132952   1.130   3.750   1.213  1.0711 -0.6118 -0.1078
 2919TIP3    H232953   1.239   3.784   1.312  0.6554 -3.0220  1.2317
 2920TIP3   OH232954   7.551   4.751   7.120  0.0513  0.4923  0.1584
 2920TIP3    H132955   7.627   4.783   7.169 -0.6143 -0.2718  1.7643
 2920TIP3    H232956   7.493   4.827   7.115  0.0081  0.5108  0.8249
 2921TIP3   OH232957   6.539   5.254   1.157  0.4973  0.3345  0.1907
 2921TIP3    H132958   6.535   5.172   1.108 -0.7640  0.8585 -0.6367
 2921TIP3    H232959   6.447   5.274   1.177  0.9700 -0.0615  3.1724
 2922TIP3   OH232960   0.664   2.256   0.322  0.1084 -0.1650 -0.0705
 2922TIP3    H132961   0.623   2.302   0.395 -1.7908 -0.0295 -1.1444
 2922TIP3    H232962   0.593   2.205   0.283  0.7324  0.6564 -2.5124
 2923TIP3   OH232963   4.198   6.180   9.024 -0.1556 -0.1570 -0.1822
 2923TIP3    H132964   4.256   6.255   9.008 -0.3778 -0.0832 -0.6685
 2923TIP3    H232965   4.256   6.104   9.026  0.2617  0.1542  1.7142
 2924TIP3   OH232966   2.388   1.092   2.975 -0.1630 -0.0212  0.2099
 2924TIP3    H132967   2.419   1.001   2.975 -1.3757 -0.4919 -1.8195
 2924TIP3    H232968   2.465   1.144   2.998  0.6377 -1.5223  1.0684
 2925TIP3   OH232969   7.298   2.411   2.139 -0.0839 -0.4094 -0.0736
 2925TIP3    H132970   7.217   2.396   2.187  0.2166  0.6984  0.7982
 2925TIP3    H232971   7.275   2.477   2.073  0.3229  0.6663  0.8295
 2926TIP3   OH232972   4.879   0.872   0.580 -0.1008 -0.4066 -0.8332
 2926TIP3    H132973   4.823   0.888   0.504  0.1566  1.1939 -0.7202
 2926TIP3    H232974   4.938   0.802   0.552 -0.2268 -0.0712 -1.9855
 2927TIP3   OH232975   5.661   7.673   0.001  0.3399 -0.1638  0.0830
 2927TIP3    H132976   5.586   7.718   0.040  0.5399  1.2726 -1.0708
 2927TIP3    H232977   5.712   7.641   0.075 -0.1111  1.0632  0.9584
 2928TIP3   OH232978   1.348   0.447   8.436  0.5570  0.4025  0.3048
 2928TIP3    H132979   1.428   0.395   8.429 -1.0454 -2.2551  0.2298
 2928TIP3    H232980   1.302   0.409   8.511 -0.2585  2.4751  0.9209
 2929TIP3   OH232981   3.884   0.637   8.518 -0.6979 -0.6938  0.5107
 2929TIP3    H132982   3.795   0.607   8.502 -1.3556  0.0294  2.5046
 2929TIP3    H232983   3.922   0.647   8.431 -3.1505  0.6915 -0.4981
 2930TIP3   OH232984   7.579   4.068   8.693 -0.0401 -0.2522  0.1766
 2930TIP3    H132985   7.569   4.110   8.608  0.4209 -0.1228  0.1848
 2930TIP3    H232986   7.671   4.083   8.717 -0.4638  0.7847  1.2632
 2931TIP3   OH232987   4.489   3.621   9.966  0.3146 -0.1548  0.2186
 2931TIP3    H132988   4.412   3.667   9.999  0.8197  0.3592  0.6840
 2931TIP3    H232989   4.516   3.671   9.889  1.2465  0.7167  1.0971
 2932TIP3   OH232990   2.599   1.688   2.560 -0.2825  0.7291 -0.8661
 2932TIP3    H132991   2.560   1.622   2.503  0.2859  1.3378 -1.9796
 2932TIP3    H232992   2.691   1.662   2.567 -0.3557  0.6379 -0.1809
 2933TIP3   OH232993   2.774   3.634   9.982 -0.2745 -0.2026 -0.8498
 2933TIP3    H132994   2.688   3.676   9.987 -0.5743 -0.9330  0.5841
 2933TIP3    H232995   2.761   3.561   9.922 -0.8207 -0.6483 -0.2044
 2934TIP3   OH232996   2.531   6.396   9.983  0.3141  0.3075  0.3140
 2934TIP3    H132997   2.467   6.329  10.007 -1.1372  1.5564  0.1015
 2934TIP3    H232998   2.614   6.366  10.021  0.3088 -2.7978 -1.7280
 2935TIP3   OH232999   4.958   4.047   7.615 -0.1621  0.1545  0.1138
 2935TIP3    H133000   4.926   4.095   7.539 -1.2817  2.4736  1.9400
 2935TIP3    H233001   4.899   3.972   7.623  0.3108 -0.4504 -1.5405
 2936TIP3   OH233002   4.886   7.028   1.998 -0.7197 -0.0745  0.3638
 2936TIP3    H133003   4.913   7.089   2.067  0.3471  0.5071 -0.5255
 2936TIP3    H233004   4.964   7.019   1.943 -1.2754 -1.2192 -0.2649
 2937TIP3   OH233005   2.318   5.309   2.139 -0.4344 -0.1307 -0.0335
 2937TIP3    H133006   2.305   5.311   2.233  0.7597  0.2414  0.1413
 2937TIP3    H233007   2.371   5.387   2.120  0.9242 -1.1819 -0.7368
 2938TIP3   OH233008   1.394   1.126   2.165  0.0967  0.0267 -0.1585
 2938TIP3    H133009   1.356   1.060   2.107 -0.8244  0.7180 -0.3538
 2938TIP3    H233010   1.420   1.077   2.243 -0.6601 -0.5556 -0.2636
 2939TIP3   OH233011   2.272   2.307   2.005 -0.5298 -0.3616 -0.0681
 2939TIP3    H133012   2.348   2.337   2.055 -0.8474 -0.4608  0.4698
 2939TIP3    H233013   2.276   2.358   1.924  1.5034 -2.0678 -1.1380
 2940TIP3   OH233014   0.888   2.036   7.437  0.0295  0.0689  0.6871
 2940TIP3    H133015   0.902   1.985   7.517  0.4219 -1.5176 -0.3390
 2940TIP3    H233016   0.810   1.998   7.398  0.5589 -0.0432 -0.3038
 2941TIP3   OH233017   2.885   0.380   1.801  0.0508 -0.1605 -0.2999
 2941TIP3    H133018   2.886   0.437   1.724 -0.8436  2.3067  1.3935
 2941TIP3    H233019   2.824   0.310   1.778 -1.0271  1.1096 -1.4603
 2942TIP3   OH233020   6.186   5.354   9.553  0.7985  0.3344  0.9737
 2942TIP3    H133021   6.116   5.419   9.560  0.2591 -0.0869 -0.2939
 2942TIP3    H233022   6.157   5.281   9.607  0.3270  0.2304  0.5862
 2943TIP3   OH233023   1.142   4.682   7.975 -0.0660  0.6466  0.6650
 2943TIP3    H133024   1.103   4.725   8.051 -0.1632 -0.5156  1.3004
 2943TIP3    H233025   1.236   4.698   7.984 -0.0465  0.2551  1.2058
 2944TIP3   OH233026   6.156   1.892   1.830  0.7991 -0.0580  0.1154
 2944TIP3    H133027   6.077   1.932   1.795  0.7675 -0.5006 -0.3437
 2944TIP3    H233028   6.228   1.946   1.796  0.7233  0.0026  0.0515
 2945TIP3   OH233029   6.308   3.592   8.096 -0.1271 -0.1969  0.2538
 2945TIP3    H133030   6.394   3.607   8.136 -1.6610  1.0294  3.3412
 2945TIP3    H233031   6.313   3.638   8.012  2.0051  0.3775  0.6241
 2946TIP3   OH233032   2.659   0.772   1.575 -0.0057 -0.0460 -0.3528
 2946TIP3    H133033   2.580   0.796   1.623 -0.2625 -1.2786 -0.1275
 2946TIP3    H233034   2.640   0.797   1.484 -1.1592 -1.3745 -0.5251
 2947TIP3   OH233035   5.226   5.622   8.994  0.1391 -0.4230  0.0546
 2947TIP3    H133036   5.248   5.645   8.904 -0.5128  0.1421  0.0333
 2947TIP3    H233037   5.192   5.703   9.032  0.5635 -0.6168  0.8633
 2948TIP3   OH233038   3.674   2.465   9.174 -0.1366 -0.0806 -0.4162
 2948TIP3    H133039   3.631   2.383   9.198  0.0840  0.0300  0.3784
 2948TIP3    H233040   3.626   2.532   9.223 -0.7187  0.3580 -1.5325
 2949TIP3   OH233041   4.293   3.801  10.016  0.1353  0.4400  0.5021
 2949TIP3    H133042   4.289   3.876   9.958  0.4360  0.0755  0.0034
 2949TIP3    H233043   4.225   3.818  10.082 -1.3656  0.0707 -0.8923
 2950TIP3   OH233044   2.038   2.785   8.488 -0.1718 -0.4142 -0.6446
 2950TIP3    H133045   1.954   2.804   8.530  0.5841  0.4934  0.4919
 2950TIP3    H233046   2.067   2.869   8.452  1.7624  0.0708  1.8095
 2951TIP3   OH233047   7.471   3.470   1.226  0.0632  0.4277  0.8395
 2951TIP3    H133048   7.424   3.533   1.280 -2.1562 -1.4626  1.2479
 2951TIP3    H233049   7.473   3.509   1.139  0.7350  2.0167  1.5205
 2952TIP3   OH233050   0.589   3.446   8.322 -0.3333  0.3107  0.0891
 2952TIP3    H133051   0.632   3.361   8.316 -1.8242 -0.4614 -0.0706
 2952TIP3    H233052   0.640   3.503   8.264  1.2800 -0.1896  0.9655
 2953TIP3   OH233053   6.235   4.400   0.569 -0.3263  0.5332  0.3929
 2953TIP3    H133054   6.175   4.429   0.637 -1.0124 -1.1364  0.5516
 2953TIP3    H233055   6.236   4.471   0.505 -1.1791  1.2937  1.2103
 2954TIP3   OH233056   2.191   7.300   6.751 -0.5456 -0.3589  0.1893
 2954TIP3    H133057   2.180   7.242   6.827 -0.9747 -0.2032  0.2540
 2954TIP3    H233058   2.211   7.385   6.789 -0.7067 -0.2924  0.1248
 2955TIP3   OH233059   7.462   5.429   1.351 -0.4262 -0.0400  0.0663
 2955TIP3    H133060   7.550   5.465   1.358  0.3072 -2.0368  2.5782
 2955TIP3    H233061   7.464   5.379   1.269  1.0312 -0.5576  0.3773
 2956TIP3   OH233062   1.521   5.920   0.451 -0.1867 -0.6119  0.7831
 2956TIP3    H133063   1.495   5.886   0.365 -0.1764  1.0682  0.0747
 2956TIP3    H233064   1.462   5.995   0.466  1.8026  1.0344  0.7953
 2957TIP3   OH233065   0.729   1.771   0.820 -0.0495  0.0004 -0.0471
 2957TIP3    H133066   0.702   1.741   0.907  0.1647 -0.0147  0.0128
 2957TIP3    H233067   0.666   1.730   0.761 -0.3962  0.2734  0.1274
 2958TIP3   OH233068   2.550   6.014   9.572  0.0715 -0.2966 -0.1392
 2958TIP3    H133069   2.458   6.043   9.574  0.6655  1.8340 -0.6479
 2958TIP3    H233070   2.590   6.058   9.647  0.9342 -0.1955 -0.6475
 2959TIP3   OH233071   5.873   0.604   2.609  0.4868  0.0732  0.3194
 2959TIP3    H133072   5.896   0.515   2.583 -1.5234 -0.7130  1.0861
 2959TIP3    H233073   5.853   0.597   2.703 -1.7333  0.8556 -0.0429
 2960TIP3   OH233074   4.286   1.706   0.177  0.3075  0.3780  0.3580
 2960TIP3    H133075   4.206   1.706   0.125  1.2916  2.2918 -1.3279
 2960TIP3    H233076   4.276   1.780   0.236  0.3474 -0.1161  0.9917
 2961TIP3   OH233077   7.077   5.223   8.231 -0.2896 -0.5348  0.0574
 2961TIP3    H133078   7.106   5.314   8.227 -0.7211 -0.3166  1.3806
 2961TIP3    H233079   6.988   5.225   8.197  0.3488 -0.8172 -1.7603
 2962TIP3   OH233080   7.298   6.347   0.459  0.2196  0.2173 -0.4798
 2962TIP3    H133081   7.344   6.409   0.515  0.2572 -1.4700  1.4781
 2962TIP3    H233082   7.317   6.376   0.370  3.1972  0.9227  0.2882
 2963TIP3   OH233083   1.138   1.288   9.673 -0.3642  0.5642  0.4872
 2963TIP3    H133084   1.183   1.224   9.617  0.6229  1.1151  0.6243
 2963TIP3    H233085   1.144   1.370   9.625 -0.0275  0.9205  1.1165
 2964TIP3   OH233086   6.416   3.033   0.524  0.2572  0.8225 -0.0773
 2964TIP3    H133087   6.331   3.069   0.551 -0.1887 -0.3379  0.0938
 2964TIP3    H233088   6.440   3.085   0.447 -1.2333  0.3238 -0.9206
 2965TIP3   OH233089   6.344   4.073   8.493 -0.4482 -0.4899 -0.0808
 2965TIP3    H133090   6.318   4.123   8.416  3.1812 -0.1947 -1.3152
 2965TIP3    H233091   6.335   4.135   8.566 -2.6402 -0.3389 -0.4326
 2966TIP3   OH233092   7.150   4.537   7.573  0.3813 -0.8173 -0.1548
 2966TIP3    H133093   7.229   4.567   7.618  0.6833  0.2801 -1.3390
 2966TIP3    H233094   7.080   4.547   7.637  0.8945  0.1092  0.2844
 2967TIP3   OH233095   4.306   7.201   8.656  0.1781  0.6999  0.3828
 2967TIP3    H133096   4.246   7.274   8.639  0.0114  0.6293  0.6723
 2967TIP3    H233097   4.260   7.125   8.620 -0.2019  0.5398  1.2038
 2968TIP3   OH233098   7.112   7.070   0.030 -0.5568  0.0361  0.0818
 2968TIP3    H133099   7.166   7.083  -0.049  0.9406  0.3066  1.1101
 2968TIP3    H233100   7.129   7.147   0.084 -1.0795 -0.4405  0.9483
 2969TIP3   OH233101   2.009   3.108   2.417  0.2034 -0.0020 -0.3509
 2969TIP3    H133102   2.096   3.072   2.439  1.5863  2.8945 -0.6209
 2969TIP3    H233103   2.014   3.126   2.323 -1.1636 -0.8825 -0.6174
 2970TIP3   OH233104   3.293   2.304   9.346  0.3942  0.0853  1.0275
 2970TIP3    H133105   3.216   2.358   9.328 -0.4020 -1.2907  0.0273
 2970TIP3    H233106   3.322   2.331   9.433 -1.1149  0.7765  1.3522
 2971TIP3   OH233107   0.464   6.758   1.202 -0.0000  0.5061  0.2651
 2971TIP3    H133108   0.433   6.840   1.241  0.9924  0.8161  0.4218
 2971TIP3    H233109   0.395   6.734   1.140  0.5422  2.4805 -1.2236
 2972TIP3   OH233110   1.450   6.283   8.124  0.4647 -0.2979  0.2921
 2972TIP3    H133111   1.440   6.193   8.093 -3.5179  0.5254 -1.3343
 2972TIP3    H233112   1.517   6.321   8.067 -0.0878 -1.3772 -1.1047
 2973TIP3   OH233113   0.544   7.559   9.641 -0.1273  0.0709  0.3707
 2973TIP3    H133114   0.476   7.517   9.587  0.2634  0.0272 -0.0880
 2973TIP3    H233115   0.552   7.502   9.717  2.7466 -2.6746 -1.7206
 2974TIP3   OH233116   7.333   6.590   8.891  0.1521 -0.8543 -0.1564
 2974TIP3    H133117   7.241   6.592   8.919  0.1352  1.5981 -0.1570
 2974TIP3    H233118   7.383   6.606   8.971  0.3621  1.1099 -0.6298
 2975TIP3   OH233119   7.563   0.315   2.148 -0.2878 -0.0381 -0.0732
 2975TIP3    H133120   7.554   0.254   2.074 -0.7953  0.0422 -0.0839
 2975TIP3    H233121   7.555   0.259   2.225  2.5128 -0.4949  0.0025
 2976TIP3   OH233122   7.183   7.498   8.841  0.0619  0.4645 -1.0237
 2976TIP3    H133123   7.105   7.467   8.794  0.1626  1.5247 -1.9462
 2976TIP3    H233124   7.251   7.434   8.821 -0.5597 -0.4908 -0.1882
 2977TIP3   OH233125   6.256   1.448   1.080  0.3341 -0.6463 -0.2048
 2977TIP3    H133126   6.240   1.361   1.116 -0.7985 -0.0251  0.9172
 2977TIP3    H233127   6.170   1.491   1.084  1.1879  1.0846  0.9087
 2978TIP3   OH233128   6.640   3.957   2.199  0.1601  0.3330  0.7390
 2978TIP3    H133129   6.586   4.000   2.133 -0.4927  0.8082  1.5483
 2978TIP3    H233130   6.599   3.871   2.210  0.7550 -0.0585 -0.0381
 2979TIP3   OH233131   7.381   6.783   9.118  0.3284 -0.5010  0.1153
 2979TIP3    H133132   7.330   6.792   9.199  1.8756 -0.4450  1.1168
 2979TIP3    H233133   7.396   6.872   9.089  0.2246 -0.5034  0.0516
 2980TIP3   OH233134   0.985   0.717   9.746 -0.3960  0.2924 -0.2167
 2980TIP3    H133135   1.074   0.744   9.724 -0.2597  0.8346  0.9225
 2980TIP3    H233136   0.989   0.622   9.752  0.1103  0.3158 -0.1348
 2981TIP3   OH233137   0.469   0.208   7.148 -0.1594 -0.7743  0.0794
 2981TIP3    H133138   0.413   0.171   7.080 -0.8785  0.1189  0.1686
 2981TIP3    H233139   0.521   0.134   7.179  0.7460 -1.0747 -1.9534
 2982TIP3   OH233140   0.193   5.406   0.379 -0.3194 -0.0186 -0.1800
 2982TIP3    H133141   0.230   5.455   0.452  1.1768  0.1257 -0.9874
 2982TIP3    H233142   0.100   5.399   0.399 -0.1722  1.1778  1.0691
 2983TIP3   OH233143   5.477   3.403   7.270 -0.8390  0.5738 -0.0774
 2983TIP3    H133144   5.532   3.333   7.235 -0.4533  0.7677  0.1367
 2983TIP3    H233145   5.432   3.438   7.193  0.2017  1.1700 -0.4479
 2984TIP3   OH233146   6.758   3.932   0.982  0.0337  0.4927 -0.5235
 2984TIP3    H133147   6.787   3.976   0.903 -1.3932  2.3933 -0.0512
 2984TIP3    H233148   6.826   3.949   1.047  0.6432 -0.0833 -1.0018
 2985TIP3   OH233149   4.736   2.483   0.305 -0.3548  0.0064  0.4508
 2985TIP3    H133150   4.743   2.401   0.255  1.2591  0.2299  0.2467
 2985TIP3    H233151   4.788   2.467   0.384  0.9419  1.2013 -0.1290
 2986TIP3   OH233152   6.630   2.873   7.126  0.0627 -0.6038  0.2916
 2986TIP3    H133153   6.557   2.831   7.172  0.3408 -0.5065  0.8286
 2986TIP3    H233154   6.606   2.868   7.034 -0.7955 -0.2584  0.4829
 2987TIP3   OH233155   4.579   4.250   7.556  0.0015  0.3327 -0.0152
 2987TIP3    H133156   4.629   4.260   7.638 -0.2812 -0.1444  0.2253
 2987TIP3    H233157   4.640   4.209   7.496  0.4554  1.3906 -0.2984
 2988TIP3   OH233158   0.062   6.930   1.713 -0.1268  0.3509 -0.1045
 2988TIP3    H133159   0.153   6.914   1.688 -0.1097  1.4192 -0.8120
 2988TIP3    H233160   0.066   6.953   1.806  0.2187 -0.4006  0.0733
 2989TIP3   OH233161   0.870   6.022   9.569  0.1489 -0.9407  0.0412
 2989TIP3    H133162   0.953   5.979   9.591  0.0043 -1.1363  0.2063
 2989TIP3    H233163   0.803   5.965   9.606 -0.0162 -0.0498  1.1643
 2990TIP3   OH233164   0.848   6.249   1.635 -0.1387  0.1811 -0.0607
 2990TIP3    H133165   0.895   6.199   1.568 -1.5970 -0.4284 -0.6777
 2990TIP3    H233166   0.838   6.188   1.707 -0.4674  0.1299 -0.1504
 2991TIP3   OH233167   2.813   6.926   1.488 -0.3288  0.0964  0.0350
 2991TIP3    H133168   2.828   6.941   1.395  2.5876  2.1817  0.6982
 2991TIP3    H233169   2.872   6.854   1.511 -0.0033  0.5073  0.5091
 2992TIP3   OH233170   2.323   4.825   6.863 -0.0147  0.0931  0.0992
 2992TIP3    H133171   2.365   4.740   6.849 -1.8686 -0.8964  0.1539
 2992TIP3    H233172   2.393   4.889   6.855  1.1963 -1.3442 -1.3354
 2993TIP3   OH233173   0.730   5.410   2.812 -0.2833 -0.0507  0.6801
 2993TIP3    H133174   0.786   5.337   2.786  1.8168  1.6091  0.2572
 2993TIP3    H233175   0.643   5.385   2.781  1.0474 -0.7048 -3.0997
 2994TIP3   OH233176   7.252   6.514   3.112 -0.1313 -0.0432 -0.0010
 2994TIP3    H133177   7.345   6.538   3.103 -0.1087  0.4459  1.3279
 2994TIP3    H233178   7.254   6.421   3.135  0.1481  0.3543  1.7347
 2995TIP3   OH233179   4.406   3.897   7.979 -0.3744 -0.3631 -0.9344
 2995TIP3    H133180   4.482   3.925   7.928  1.4553 -1.0840  1.2430
 2995TIP3    H233181   4.377   3.817   7.937  0.1747 -0.1717 -1.6909
 2996TIP3   OH233182   1.645   1.905   9.170 -0.6160  0.2153  0.2283
 2996TIP3    H133183   1.590   1.971   9.129 -0.8523 -0.2600 -0.2228
 2996TIP3    H233184   1.713   1.886   9.105 -1.5890 -1.2975 -0.4032
 2997TIP3   OH233185   1.484   4.191   1.063  0.3655  0.3774  0.4048
 2997TIP3    H133186   1.545   4.265   1.061  1.1856 -0.2747  0.6754
 2997TIP3    H233187   1.463   4.180   1.156  2.2884 -1.3244  0.7123
 2998TIP3   OH233188   7.235   4.589   7.945  0.2420 -0.4410  0.4678
 2998TIP3    H133189   7.253   4.501   7.910 -0.2911 -0.3436 -0.0672
 2998TIP3    H233190   7.201   4.573   8.033 -1.3984 -0.8859 -0.2071
 2999TIP3   OH233191   3.634   7.462   9.107 -0.3010  0.0446  0.1833
 2999TIP3    H133192   3.624   7.556   9.101  2.9219  0.4290 -1.9617
 2999TIP3    H233193   3.728   7.449   9.123 -0.4443 -2.8132 -0.6976
 3000TIP3   OH233194   3.742   1.391   1.929  0.0069 -0.1990 -0.3091
 3000TIP3    H133195   3.686   1.329   1.976 -0.7524  0.5438 -0.2222
 3000TIP3    H233196   3.737   1.471   1.981 -0.4464  0.4861 -1.3894
 3001TIP3   OH233197   3.274   5.617   7.872  0.0463  0.2586  0.4016
 3001TIP3    H133198   3.314   5.666   7.800  0.1016 -0.9884 -0.4523
 3001TIP3    H233199   3.330   5.541   7.883 -2.6056 -2.2387 -1.6996
 3002TIP3   OH233200   3.740   1.252   7.177  0.0906  0.3667 -0.0590
 3002TIP3    H133201   3.718   1.343   7.198 -2.2855 -0.1165 -0.1781
 3002TIP3    H233202   3.803   1.226   7.244 -1.2069  1.3240  1.5931
 3003TIP3   OH233203   2.495   2.308   8.861  0.5815 -0.0310 -0.1378
 3003TIP3    H133204   2.526   2.274   8.945  0.5602  1.2025  0.3954
 3003TIP3    H233205   2.410   2.346   8.880 -0.2570 -1.3351 -1.1203
 3004TIP3   OH233206   1.687   0.647   7.837  0.4765  0.1112  0.0313
 3004TIP3    H133207   1.617   0.583   7.844  1.0967 -0.5009  0.9592
 3004TIP3    H233208   1.680   0.682   7.748 -2.3923  1.7094  0.7622
 3005TIP3   OH233209   7.122   4.960   2.218 -0.3783 -0.3290  0.1560
 3005TIP3    H133210   7.164   4.897   2.277 -0.6026 -2.3994 -1.8011
 3005TIP3    H233211   7.180   5.036   2.220  1.1166 -1.4303  0.8785
 3006TIP3   OH233212   2.271   7.658   2.098  0.5977 -0.2017  0.5732
 3006TIP3    H133213   2.193   7.688   2.146  0.7735 -0.2282  0.8795
 3006TIP3    H233214   2.341   7.663   2.163  1.1081  1.0472 -0.0526
 3007TIP3   OH233215   6.039   2.296  10.018 -0.7271  0.0003 -0.3251
 3007TIP3    H133216   6.031   2.390  10.004 -1.7043  0.3114  1.8356
 3007TIP3    H233217   6.133   2.279  10.020 -0.4852  1.3438  1.3951
 3008TIP3   OH233218   6.817   7.170   1.226 -0.1308 -0.8171 -0.5526
 3008TIP3    H133219   6.768   7.153   1.306 -0.7028 -2.0053 -1.1233
 3008TIP3    H233220   6.760   7.227   1.174  0.2851  0.0389 -0.0899
 3009TIP3   OH233221   4.138   7.023   1.636 -0.2464 -0.1385  0.5538
 3009TIP3    H133222   4.174   6.985   1.556  2.3392  1.7900  0.6650
 3009TIP3    H233223   4.066   6.965   1.660  0.0400 -1.7875 -2.1642
 3010TIP3   OH233224   2.252   1.594   9.877  0.1748 -0.4017  0.5319
 3010TIP3    H133225   2.256   1.499   9.862 -3.4237 -0.3282 -2.2458
 3010TIP3    H233226   2.160   1.616   9.866  1.0589  3.6270 -0.2292
 3011TIP3   OH233227   7.016   4.819   1.449 -0.1176 -0.8649 -0.8685
 3011TIP3    H133228   7.085   4.856   1.504  0.7834 -2.4062 -0.9048
 3011TIP3    H233229   7.030   4.857   1.363  0.0647 -0.3963 -0.6310
 3012TIP3   OH233230   5.148   6.539   7.190 -0.0747  0.3258 -0.0557
 3012TIP3    H133231   5.126   6.631   7.172 -1.1140 -0.1164 -1.1858
 3012TIP3    H233232   5.069   6.504   7.231  0.3300 -0.0634  0.3965
 3013TIP3   OH233233   7.284   5.410   8.560 -0.0149  0.3830 -0.3265
 3013TIP3    H133234   7.352   5.391   8.625 -1.0211  0.0460  0.6422
 3013TIP3    H233235   7.306   5.498   8.529  1.0889  0.1278 -0.3179
 3014TIP3   OH233236   0.424   1.233   0.554  0.2454  0.5058  0.0742
 3014TIP3    H133237   0.425   1.193   0.640 -0.2543  1.1709  0.4006
 3014TIP3    H233238   0.493   1.188   0.505  1.1607  0.7546  1.1122
 3015TIP3   OH233239   1.944   1.183   0.545 -0.3951  0.0996 -0.3503
 3015TIP3    H133240   2.006   1.221   0.608  0.9475 -0.7774 -1.0937
 3015TIP3    H233241   1.964   1.227   0.462 -0.9139 -0.0521 -0.5596
 3016TIP3   OH233242   0.272   3.758   6.790  0.0064  0.2604  0.0975
 3016TIP3    H133243   0.208   3.704   6.837  0.2229 -2.1492 -2.1325
 3016TIP3    H233244   0.356   3.733   6.828  0.0655 -0.7539 -0.6463
 3017TIP3   OH233245   5.052   4.008   9.286 -0.0370  0.1357  0.1408
 3017TIP3    H133246   5.127   4.034   9.233 -1.5846  3.1158 -0.8050
 3017TIP3    H233247   5.087   3.942   9.346  2.7891 -0.1736 -1.6431
 3018TIP3   OH233248   4.287   2.775   7.619 -0.0822  0.4793 -0.1280
 3018TIP3    H133249   4.253   2.829   7.548  0.7109  0.4690 -0.5283
 3018TIP3    H233250   4.304   2.690   7.578 -0.5642  0.1663  0.3116
 3019TIP3   OH233251   2.842   5.969   7.886  0.1209 -0.1153  0.1573
 3019TIP3    H133252   2.755   5.930   7.894  0.3523 -0.3212  2.5938
 3019TIP3    H233253   2.891   5.907   7.833 -0.5653 -1.2409  0.7937
 3020TIP3   OH233254   2.967   1.123   6.944  0.5356  0.6353 -0.2638
 3020TIP3    H133255   2.928   1.042   6.909  1.5873 -0.2437  0.5336
 3020TIP3    H233256   2.898   1.188   6.933 -1.2805 -0.8858  1.2030
 3021TIP3   OH233257   5.329   2.451   8.824  0.2419 -0.2286 -0.1707
 3021TIP3    H133258   5.424   2.460   8.812  0.2221 -1.7488 -1.7694
 3021TIP3    H233259   5.291   2.510   8.758  0.0306  0.6372  0.6892
 3022TIP3   OH233260   2.266   4.792   9.485 -0.5764  0.4279  0.0569
 3022TIP3    H133261   2.184   4.776   9.439 -0.4727  0.9713 -0.3213
 3022TIP3    H233262   2.334   4.781   9.419 -0.0733 -2.7826  0.9274
 3023TIP3   OH233263   6.409   6.834   2.208 -0.0023  0.0301  0.1827
 3023TIP3    H133264   6.473   6.763   2.200  1.2230  1.1765 -0.8017
 3023TIP3    H233265   6.414   6.880   2.124 -0.3002  1.6305  1.0046
 3024TIP3   OH233266   1.870   6.806   2.067  0.0881  0.6965  0.1709
 3024TIP3    H133267   1.861   6.782   2.159 -0.7550  1.9728  0.4484
 3024TIP3    H233268   1.827   6.891   2.060  1.1268  1.1488 -1.1745
 3025TIP3   OH233269   3.702  -0.010   1.737 -0.4629  0.1080 -0.7248
 3025TIP3    H133270   3.751   0.061   1.696 -0.2867 -0.1758 -1.0140
 3025TIP3    H233271   3.760  -0.041   1.807  0.0227 -0.5902 -1.4177
 3026TIP3   OH233272   6.920   6.666   7.877  0.0693 -0.8843 -0.1392
 3026TIP3    H133273   6.967   6.626   7.804  1.7205 -1.3759  1.1380
 3026TIP3    H233274   6.894   6.752   7.844 -0.1197 -1.4658 -1.6169
 3027TIP3   OH233275   7.467   3.616   0.636 -0.0092  0.8417 -0.3063
 3027TIP3    H133276   7.460   3.695   0.583  1.0973 -0.0505 -1.8459
 3027TIP3    H233277   7.549   3.626   0.684 -1.5138  2.1541  2.2407
 3028TIP3   OH233278   2.040   1.491   8.102  0.0661  0.6484  0.3800
 3028TIP3    H133279   2.053   1.400   8.073  0.1418  1.2622 -1.6571
 3028TIP3    H233280   2.122   1.535   8.080  0.6069  0.9242  2.7351
 3029TIP3   OH233281   3.446   1.232   8.492 -0.2906 -0.0061 -0.1964
 3029TIP3    H133282   3.373   1.187   8.450 -0.0558  0.1593 -0.7796
 3029TIP3    H233283   3.418   1.241   8.584 -0.7952 -0.3702 -0.3084
 3030TIP3   OH233284   4.019   2.624   7.490  0.5005  0.6778 -0.2801
 3030TIP3    H133285   4.110   2.595   7.488  0.6523  1.1361 -0.1700
 3030TIP3    H233286   4.016   2.698   7.429 -0.3157 -0.7493 -2.0688
 3031TIP3   OH233287   3.686   3.353   0.622  0.0489  0.1123 -0.6189
 3031TIP3    H133288   3.747   3.413   0.665  1.4059 -1.6141 -0.0295
 3031TIP3    H233289   3.611   3.347   0.682 -0.4385  1.6972 -1.0160
 3032TIP3   OH233290   4.062   0.542   8.713 -0.9361 -0.0407  0.0150
 3032TIP3    H133291   3.995   0.571   8.651 -0.1854 -0.3236 -0.9595
 3032TIP3    H233292   4.110   0.622   8.734 -1.3044  0.0881  0.3850
 3033TIP3   OH233293   3.675   2.829   0.853 -0.0739  0.3863  0.0549
 3033TIP3    H133294   3.615   2.883   0.906  0.8953  0.3488  1.2143
 3033TIP3    H233295   3.752   2.884   0.842  1.5241 -1.1977  2.4486
 3034TIP3   OH233296   6.965   3.447   9.566 -0.7522 -0.3896  0.3786
 3034TIP3    H133297   7.003   3.440   9.653  0.2607  0.2216  0.0059
 3034TIP3    H233298   7.037   3.475   9.510 -1.2276 -1.4247 -0.7946
 3035TIP3   OH233299   7.303   4.771   1.583  0.0652  0.0833  0.4542
 3035TIP3    H133300   7.322   4.748   1.492 -2.5525 -0.9095  0.0695
 3035TIP3    H233301   7.327   4.694   1.634 -0.2672 -0.1050  0.3316
 3036TIP3   OH233302   0.363   7.423   9.514  0.5222 -0.1403 -0.4572
 3036TIP3    H133303   0.350   7.355   9.448 -2.4882  0.8119 -0.9966
 3036TIP3    H233304   0.291   7.410   9.577 -0.7323  2.9728 -1.0681
 3037TIP3   OH233305   7.274   4.033   1.913 -0.0341  0.1608  0.1402
 3037TIP3    H133306   7.214   4.081   1.970  0.9427  0.7077  0.7386
 3037TIP3    H233307   7.226   4.023   1.831 -1.6029 -0.9367  1.1314
 3038TIP3   OH233308   4.051   3.306   8.353  0.3789 -0.4840  0.5304
 3038TIP3    H133309   4.107   3.379   8.326  2.3611 -1.6258  1.2938
 3038TIP3    H233310   4.037   3.320   8.447  0.0035 -0.5968  0.4920
 3039TIP3   OH233311   3.301   4.388   8.491  0.5883  0.4804  0.3482
 3039TIP3    H133312   3.366   4.351   8.550  0.0414  0.6170  1.0467
 3039TIP3    H233313   3.290   4.322   8.423 -0.3656 -0.6687  1.5622
 3040TIP3   OH233314   3.886   1.118   1.644  0.2529 -0.0644  0.0192
 3040TIP3    H133315   3.844   1.055   1.702  2.0909 -1.1869  0.2131
 3040TIP3    H233316   3.826   1.127   1.570 -0.9546 -0.5260  0.9136
 3041TIP3   OH233317   0.617   1.153   0.814  0.1591 -0.5067  0.4351
 3041TIP3    H133318   0.575   1.067   0.810 -0.0670 -0.4060  0.5931
 3041TIP3    H233319   0.608   1.179   0.906  1.0855 -0.7349  0.6021
 3042TIP3   OH233320   6.279   3.266   2.112 -0.1665 -0.7055  0.9485
 3042TIP3    H133321   6.313   3.320   2.184  0.1776 -1.6354  1.5048
 3042TIP3    H233322   6.189   3.245   2.139  0.0377 -1.2391  1.2171
 3043TIP3   OH233323   4.565   3.484   7.868  1.0024 -0.1105  0.2286
 3043TIP3    H133324   4.561   3.451   7.779 -0.5316 -1.5883  0.7970
 3043TIP3    H233325   4.619   3.421   7.915 -0.7741 -1.1324  1.0045
 3044TIP3   OH233326   6.956   1.648   2.962  0.2100  0.0553 -0.1260
 3044TIP3    H133327   6.898   1.689   3.027 -1.0579  1.2061 -1.8852
 3044TIP3    H233328   7.028   1.710   2.953 -1.9056  2.3547 -3.0796
 3045TIP3   OH233329   2.255   5.942   2.069 -0.0593  0.5961  0.2701
 3045TIP3    H133330   2.304   5.957   2.150  1.3355  0.6888 -0.5567
 3045TIP3    H233331   2.222   5.853   2.078  1.3369  0.0597  0.3321
 3046TIP3   OH233332   0.028   3.803   3.125 -0.0580  0.1145 -0.0030
 3046TIP3    H133333  -0.022   3.723   3.110 -1.3295  0.7275  0.8729
 3046TIP3    H233334   0.118   3.778   3.105 -0.3419 -1.6865  0.7979
 3047TIP3   OH233335   6.657   1.215   0.847 -0.2258 -0.5168  0.0588
 3047TIP3    H133336   6.658   1.243   0.756 -2.4013 -0.3510  0.0435
 3047TIP3    H233337   6.583   1.261   0.886 -0.5491 -2.0903  1.4267
 3048TIP3   OH233338   4.330   7.274   0.449  0.1949 -0.0226  0.2244
 3048TIP3    H133339   4.375   7.297   0.367 -2.7783 -0.3060 -1.6475
 3048TIP3    H233340   4.314   7.359   0.491  0.8905  0.2218  0.0130
 3049TIP3   OH233341   5.475   0.601   0.639 -0.4009 -0.0545  0.4080
 3049TIP3    H133342   5.477   0.542   0.564 -0.9610 -0.5002  0.7387
 3049TIP3    H233343   5.559   0.586   0.684 -0.6951 -0.8759  0.6990
 3050TIP3   OH233344   3.236   0.963   9.748 -0.1744  0.2756 -0.2795
 3050TIP3    H133345   3.191   0.887   9.712 -1.9968  1.9624 -1.8030
 3050TIP3    H233346   3.173   1.001   9.810  0.3919  0.9868 -0.1283
 3051TIP3   OH233347   1.390   5.846   7.523  0.4272  0.2397 -0.1236
 3051TIP3    H133348   1.404   5.920   7.465  0.3861  0.7177  0.4706
 3051TIP3    H233349   1.475   5.831   7.565  0.4684 -0.1306 -0.3283
 3052TIP3   OH233350   3.417   0.154   6.523 -0.0703  0.0504 -0.1383
 3052TIP3    H133351   3.506   0.175   6.495 -0.0703 -0.4824 -0.5582
 3052TIP3    H233352   3.416   0.058   6.531 -0.8670 -0.0450 -1.0824
 3053TIP3   OH233353   0.423   3.512   2.270  0.0666  0.1955  0.0909
 3053TIP3    H133354   0.402   3.469   2.187  1.7478  0.3021 -0.4267
 3053TIP3    H233355   0.509   3.552   2.256 -0.7373  2.4230  1.0719
 3054TIP3   OH233356   3.683   4.083   8.727  0.3499 -0.0415 -0.1226
 3054TIP3    H133357   3.736   4.033   8.788  0.5830  1.9950  1.4496
 3054TIP3    H233358   3.593   4.066   8.755  0.4383  0.5494  0.5604
 3055TIP3   OH233359   5.020   2.241   8.870  0.3887  0.0439  0.7175
 3055TIP3    H133360   4.952   2.191   8.825 -1.4396  2.5409  0.5263
 3055TIP3    H233361   5.049   2.183   8.940  0.6901 -2.4917 -1.3510
 3056TIP3   OH233362   1.597   4.838   0.047 -0.5583 -0.2862  0.1005
 3056TIP3    H133363   1.668   4.892   0.082  1.3393 -0.4139 -3.1359
 3056TIP3    H233364   1.532   4.902   0.017  1.0958  0.3218 -2.5293
 3057TIP3   OH233365   1.276   3.618   0.589 -0.3334  0.1331  0.2430
 3057TIP3    H133366   1.218   3.545   0.570 -0.6852  0.1798  1.1024
 3057TIP3    H233367   1.362   3.591   0.555  0.0811 -1.6305  2.4922
 3058TIP3   OH233368   0.376   7.457   0.932 -0.1180  0.0588  0.0204
 3058TIP3    H133369   0.298   7.409   0.906 -0.5087  0.6522  0.0767
 3058TIP3    H233370   0.443   7.430   0.868 -0.3246 -0.5607  0.0637
 3059TIP3   OH233371   1.025   6.794   2.971 -0.2160  0.4436 -0.3652
 3059TIP3    H133372   0.994   6.737   3.042 -0.8596  1.2714  0.0455
 3059TIP3    H233373   1.117   6.809   2.991 -0.4247  0.7833  0.3960
 3060TIP3   OH233374   1.796   5.694   0.587 -0.2469  0.3676 -0.6055
 3060TIP3    H133375   1.722   5.731   0.539 -0.7458 -0.5827 -0.5982
 3060TIP3    H233376   1.873   5.720   0.536 -0.6917  0.2868 -1.3396
 3061TIP3   OH233377   4.246   1.606   0.759  0.0299 -0.3049 -0.2949
 3061TIP3    H133378   4.211   1.695   0.765  2.1045  0.5295  0.3528
 3061TIP3    H233379   4.240   1.585   0.665  2.9616  2.1063 -1.2002
 3062TIP3   OH233380   7.253   4.708   9.569 -0.2123  0.0695 -0.0670
 3062TIP3    H133381   7.229   4.695   9.477  0.3713 -1.3376 -0.0479
 3062TIP3    H233382   7.347   4.728   9.567 -0.1926  0.0150  0.2241
 3063TIP3   OH233383   3.564   2.420   9.481  0.0801 -0.0273  0.0232
 3063TIP3    H133384   3.537   2.371   9.558  1.1249  0.2284  0.5704
 3063TIP3    H233385   3.538   2.510   9.499 -0.5116 -0.1160 -0.3426
 3064TIP3   OH233386   5.874   3.023   2.266 -0.2326  0.3227 -0.6638
 3064TIP3    H133387   5.817   2.953   2.235 -0.3415  0.0469  0.1240
 3064TIP3    H233388   5.894   2.999   2.357 -0.0815  1.1932 -0.4570
 3065TIP3   OH233389   6.527   0.984   2.087 -0.0645 -0.3688  0.3859
 3065TIP3    H133390   6.455   0.989   2.025  1.0356 -0.0718 -0.9098
 3065TIP3    H233391   6.569   1.070   2.083  3.3136 -1.9076 -2.6412
 3066TIP3   OH233392   5.590   5.686   0.407  0.1588  0.0825  0.0074
 3066TIP3    H133393   5.526   5.618   0.384  0.1579  0.1903 -0.3143
 3066TIP3    H233394   5.624   5.716   0.323 -1.2582  1.8526 -0.0042
 3067TIP3   OH233395   5.738   5.243   9.693  0.1483  0.2084 -0.4695
 3067TIP3    H133396   5.829   5.268   9.710  0.0547  0.3721 -0.2011
 3067TIP3    H233397   5.687   5.293   9.757 -0.1034 -0.1313 -0.3999
 3068TIP3   OH233398   0.793   3.714   9.582 -0.1497 -0.2612 -0.1698
 3068TIP3    H133399   0.743   3.667   9.516 -0.4328  0.3455 -0.3985
 3068TIP3    H233400   0.727   3.759   9.634  0.1685  2.6305 -2.0370
 3069TIP3   OH233401   2.923   3.318   8.679  0.3874  0.5596 -0.0823
 3069TIP3    H133402   2.831   3.301   8.663  0.8748 -0.9787 -1.5133
 3069TIP3    H233403   2.950   3.374   8.607  0.9735 -0.5157 -0.7187
 3070TIP3   OH233404   3.799   0.725   0.081 -0.0952  0.3136  0.4234
 3070TIP3    H133405   3.889   0.733   0.048 -1.0863  0.8396 -2.4789
 3070TIP3    H233406   3.789   0.632   0.099  0.9357  0.1978  0.4880
 3071TIP3   OH233407   3.411   5.466   8.616 -0.5352  0.5154 -0.0500
 3071TIP3    H133408   3.354   5.435   8.686 -0.4140  0.5935  0.0854
 3071TIP3    H233409   3.435   5.555   8.643 -0.2864  0.4542 -0.0656
 3072TIP3   OH233410   1.214   7.362   7.371 -0.1364  0.0592  0.1753
 3072TIP3    H133411   1.305   7.370   7.401  0.1821  0.7380 -0.9221
 3072TIP3    H233412   1.163   7.411   7.436  0.2616 -0.3716  0.8293
 3073TIP3   OH233413   1.931   3.807   9.687  0.2567 -0.4067  0.5247
 3073TIP3    H133414   2.003   3.746   9.671 -0.3234 -1.4076  1.6346
 3073TIP3    H233415   1.856   3.752   9.707 -0.5215  0.6579  0.6440
 3074TIP3   OH233416   4.268   7.575   1.189 -0.0774  0.4276  0.2820
 3074TIP3    H133417   4.362   7.556   1.196  0.2461  2.0246  0.6540
 3074TIP3    H233418   4.262   7.670   1.200 -1.7832  0.3054  0.6420
 3075TIP3   OH233419   1.262   2.723   0.524  0.3867  0.2666  0.1738
 3075TIP3    H133420   1.350   2.685   0.513 -0.1020 -0.5316 -1.2549
 3075TIP3    H233421   1.225   2.677   0.599  0.1613 -1.4871 -0.9527
 3076TIP3   OH233422   7.027   5.749   8.231 -0.2312 -0.1755 -0.3843
 3076TIP3    H133423   6.939   5.751   8.270 -0.0355 -2.6805  0.3684
 3076TIP3    H233424   7.064   5.835   8.251 -2.4775  0.9280 -0.6757
 3077TIP3   OH233425   7.534   2.640   2.005 -0.4083 -0.1776  0.0311
 3077TIP3    H133426   7.455   2.641   1.951  0.8261  1.9511 -1.8832
 3077TIP3    H233427   7.525   2.716   2.062  0.3539  0.1883 -0.3351
 3078TIP3   OH233428   2.377   5.932   1.297  0.7276 -0.4771  0.2641
 3078TIP3    H133429   2.325   5.864   1.254  1.8892 -2.2131  1.4850
 3078TIP3    H233430   2.345   5.934   1.387  1.3220 -0.0302  0.4713
 3079TIP3   OH233431   7.739   0.728   9.743  0.9867  0.0499 -0.5677
 3079TIP3    H133432   7.793   0.659   9.704  0.4185 -0.7332  0.0049
 3079TIP3    H233433   7.762   0.807   9.694  2.6837 -0.2468 -0.3010
 3080TIP3   OH233434   6.581   1.775   1.472 -0.1857  0.4466  0.0625
 3080TIP3    H133435   6.531   1.714   1.417  0.1210  1.4499 -1.3819
 3080TIP3    H233436   6.610   1.844   1.412 -0.2001  1.8343  1.5688
 3081TIP3   OH233437   6.036   0.372   9.236 -0.4441  0.2782  0.2310
 3081TIP3    H133438   6.086   0.452   9.218  1.2025 -0.8973 -0.7406
 3081TIP3    H233439   6.056   0.351   9.327  0.8165 -0.1180 -0.1114
 3082TIP3   OH233440   2.426   6.441   0.368  0.1407  0.2567 -0.1568
 3082TIP3    H133441   2.362   6.463   0.435  0.3571  1.1709 -0.2372
 3082TIP3    H233442   2.380   6.380   0.310  0.1457 -1.0520  1.1333
 3083TIP3   OH233443   4.157   7.440   8.574  0.0035  0.3575 -0.3697
 3083TIP3    H133444   4.113   7.501   8.633 -0.5470 -0.0812 -0.3174
 3083TIP3    H233445   4.127   7.466   8.486  0.3454  0.6244 -0.4094
 3084TIP3   OH233446   1.012   3.924   9.381 -0.0187 -0.1169 -0.2000
 3084TIP3    H133447   1.028   3.844   9.331  0.7131 -0.4293  0.5036
 3084TIP3    H233448   0.917   3.926   9.393 -0.2158 -0.0163 -1.6079
 3085TIP3   OH233449   6.510   2.423   8.347  0.1102 -0.6499 -0.1050
 3085TIP3    H133450   6.590   2.390   8.306  0.4170  0.2702 -0.2744
 3085TIP3    H233451   6.531   2.514   8.371 -0.9499 -0.3249 -0.3465
 3086TIP3   OH233452   5.146   7.029   8.286 -0.1704  0.1163  0.1462
 3086TIP3    H133453   5.109   7.004   8.371 -0.5848 -1.5478 -0.4739
 3086TIP3    H233454   5.237   7.001   8.291 -0.9392 -2.9969 -1.0074
 3087TIP3   OH233455   0.704   6.184   8.619 -0.0846  0.4542 -0.2544
 3087TIP3    H133456   0.642   6.217   8.554  0.8835  1.5124 -0.6732
 3087TIP3    H233457   0.746   6.262   8.654  1.3914 -0.2487 -0.3798
 3088TIP3   OH233458   3.676   4.369   8.853 -0.3989  0.2449  0.2991
 3088TIP3    H133459   3.617   4.442   8.869 -0.1049  0.6415 -0.3683
 3088TIP3    H233460   3.628   4.292   8.883 -1.2856  0.5477 -0.2842
 3089TIP3   OH233461   4.508   7.621   0.439  0.2886  0.0651  0.1351
 3089TIP3    H133462   4.489   7.661   0.354 -0.0035  1.6005  0.8711
 3089TIP3    H233463   4.422   7.601   0.476  0.4370 -1.5133 -0.3122
 3090TIP3   OH233464   6.017   2.553   9.953  0.3133  0.1001  0.4734
 3090TIP3    H133465   5.947   2.571   9.889 -0.1302 -1.6231  0.4299
 3090TIP3    H233466   6.080   2.623   9.939  0.0733 -0.0344 -1.6456
 3091TIP3   OH233467   6.848   3.137   9.525 -0.6042  0.5256 -0.4574
 3091TIP3    H133468   6.925   3.125   9.580 -0.2593  1.3789 -0.7336
 3091TIP3    H233469   6.836   3.053   9.482 -0.6208 -0.0216  0.5823
 3092TIP3   OH233470   6.496   1.659   9.560 -0.3482  0.0948 -0.3606
 3092TIP3    H133471   6.543   1.618   9.487  0.6523  0.0922  0.2667
 3092TIP3    H233472   6.520   1.606   9.636  2.5806  2.8320  0.8624
 3093TIP3   OH233473   2.812   0.281   1.234  0.3814 -0.1686  0.6609
 3093TIP3    H133474   2.781   0.212   1.293 -0.8657 -0.0845  0.1410
 3093TIP3    H233475   2.818   0.239   1.148 -2.0124  0.7023 -0.0165
 3094TIP3   OH233476   1.415   6.710   0.432 -0.0262  0.2327 -0.3176
 3094TIP3    H133477   1.493   6.765   0.420  0.4013  0.1072  1.5416
 3094TIP3    H233478   1.451   6.625   0.456 -0.7317  0.1869  0.6047
 3095TIP3   OH233479   2.021   3.430   8.905  0.0864 -0.0705 -0.0226
 3095TIP3    H133480   2.058   3.478   8.831 -0.5628  0.0102 -0.2946
 3095TIP3    H233481   2.037   3.487   8.980  0.1498  0.1492 -0.2010
 3096TIP3   OH233482   1.877   1.546   0.728  0.4043  0.3781  0.0961
 3096TIP3    H133483   1.925   1.547   0.645 -0.1426 -0.1404 -0.2332
 3096TIP3    H233484   1.801   1.602   0.713  0.5090  0.6023  0.3811
 3097TIP3   OH233485   6.734   2.878   0.279 -0.2638  0.2194  0.4707
 3097TIP3    H133486   6.639   2.883   0.291 -0.5453  2.5148 -1.8283
 3097TIP3    H233487   6.754   2.784   0.285 -2.3314 -0.1757  2.8416
 3098TIP3   OH233488   5.805   2.418   1.615  0.1057 -0.0402  0.4116
 3098TIP3    H133489   5.899   2.431   1.615  0.0370  0.5480  1.5160
 3098TIP3    H233490   5.772   2.481   1.550  0.3604  0.7128  1.0011
 3099TIP3   OH233491   1.393   0.438   7.141  0.1688  0.6155  0.0314
 3099TIP3    H133492   1.377   0.482   7.057 -1.8515  0.0011  0.0380
 3099TIP3    H233493   1.329   0.476   7.201 -0.3233 -0.9041  0.5353
 3100TIP3   OH233494   2.271   5.313   8.592 -0.2178 -0.0120  0.3395
 3100TIP3    H133495   2.308   5.244   8.538 -0.9742 -0.0104 -0.1947
 3100TIP3    H233496   2.326   5.390   8.576  0.6513 -0.4888  0.9697
 3101TIP3   OH233497   1.846   2.382   1.741 -0.1928  0.3109  0.0077
 3101TIP3    H133498   1.878   2.294   1.757 -1.2620 -0.4439 -1.7336
 3101TIP3    H233499   1.851   2.426   1.826 -1.0053 -1.8814  1.2507
 3102TIP3   OH233500   6.731   3.811   0.666  0.0440 -0.4002 -0.0359
 3102TIP3    H133501   6.780   3.879   0.712 -1.2072 -0.4620  1.4786
 3102TIP3    H233502   6.679   3.858   0.601 -0.3236  0.0336  0.5623
 3103TIP3   OH233503   2.161   6.585   6.901 -0.0960 -0.4355 -0.0901
 3103TIP3    H133504   2.249   6.547   6.912 -0.0676  0.2926  3.1000
 3103TIP3    H233505   2.177   6.673   6.867  0.4702 -0.2113  0.7173
 3104TIP3   OH233506   0.147   1.596   7.298  0.1928 -0.3909  0.2061
 3104TIP3    H133507   0.073   1.651   7.324  1.2486  1.6997 -0.9701
 3104TIP3    H233508   0.146   1.524   7.361 -0.2574  1.8460  2.9712
 3105TIP3   OH233509   0.132   6.050   7.444  0.0831  0.3133 -0.3931
 3105TIP3    H133510   0.044   6.033   7.477  0.8794 -1.4057  1.0074
 3105TIP3    H233511   0.138   5.997   7.364  0.7237 -1.8898  1.0291
 3106TIP3   OH233512   7.528   3.814   2.745  0.3093 -0.3794  0.1617
 3106TIP3    H133513   7.549   3.721   2.740 -2.6202 -1.2763  2.1053
 3106TIP3    H233514   7.460   3.827   2.678  0.2841  0.2419  0.2973
 3107TIP3   OH233515   2.492   2.728   9.018  0.3492 -0.5026 -0.4798
 3107TIP3    H133516   2.441   2.729   8.937  0.6238 -1.9914 -0.6970
 3107TIP3    H233517   2.554   2.657   9.006 -0.3895 -1.5341  1.5085
 3108TIP3   OH233518   7.152   3.179   0.349 -0.0850  0.1019  0.1583
 3108TIP3    H133519   7.069   3.137   0.327 -0.0806 -0.2243  0.7484
 3108TIP3    H233520   7.183   3.132   0.425  1.2300 -0.5543 -0.7556
 3109TIP3   OH233521   6.707   6.995   9.168  0.3390  0.0516 -0.1684
 3109TIP3    H133522   6.736   6.978   9.258 -0.5958 -1.8710 -0.1759
 3109TIP3    H233523   6.627   7.045   9.178 -1.1493 -2.2461  0.2533
 3110TIP3   OH233524   6.637   2.847   0.728 -0.3185  0.0337  0.2703
 3110TIP3    H133525   6.563   2.850   0.789  0.7235  3.0349  1.5592
 3110TIP3    H233526   6.605   2.891   0.649 -0.4205 -0.1614  0.2032
 3111TIP3   OH233527   3.007   0.492   9.930 -0.2771  0.2689  0.3851
 3111TIP3    H133528   3.060   0.469  10.006 -1.1207  1.2065  1.2947
 3111TIP3    H233529   3.064   0.547   9.876 -0.1688  0.9220  1.1441
 3112TIP3   OH233530   7.131   3.207   8.508 -0.2274  0.5758  0.4596
 3112TIP3    H133531   7.186   3.280   8.480  0.1301 -0.4518 -1.8252
 3112TIP3    H233532   7.181   3.165   8.578  2.1556 -0.4408 -1.6481
 3113TIP3   OH233533   5.330   1.505   8.352  0.4430 -0.1109 -0.2612
 3113TIP3    H133534   5.297   1.500   8.442 -0.5190  2.6372 -0.3561
 3113TIP3    H233535   5.423   1.484   8.359  0.2956 -0.3581  1.3179
 3114TIP3   OH233536   0.382   5.005   1.836  0.6291  0.2322  0.4252
 3114TIP3    H133537   0.410   4.914   1.838  0.8540  0.2695 -0.5842
 3114TIP3    H233538   0.461   5.054   1.811  0.5046  0.7037  0.9242
 3115TIP3   OH233539   1.399   3.766   2.173 -0.5685  0.0599 -0.6410
 3115TIP3    H133540   1.419   3.706   2.245  1.1728 -0.9272 -1.8794
 3115TIP3    H233541   1.359   3.842   2.216  0.4881 -0.4502  1.3707
 3116TIP3   OH233542   1.724   4.899   8.721  0.5520 -0.1919 -0.2102
 3116TIP3    H133543   1.664   4.927   8.790 -1.4624 -0.6018 -1.6807
 3116TIP3    H233544   1.668   4.891   8.643  2.5605 -0.5406 -1.6996
 3117TIP3   OH233545   5.106   5.419   9.691 -0.0139  0.9303 -0.2758
 3117TIP3    H133546   5.176   5.415   9.756 -0.5198  1.8606  0.3377
 3117TIP3    H233547   5.034   5.371   9.731 -0.4623  1.8518  0.0217
 3118TIP3   OH233548   2.240   2.426   7.203 -0.4636 -0.0882  0.5107
 3118TIP3    H133549   2.301   2.360   7.170 -1.4714 -0.6270 -0.3414
 3118TIP3    H233550   2.295   2.490   7.246  0.6892 -0.6759 -0.0463
 3119TIP3   OH233551   4.549   7.517   2.320 -0.1786  0.2596 -0.2217
 3119TIP3    H133552   4.460   7.537   2.289 -0.9787 -2.3802  0.0591
 3119TIP3    H233553   4.546   7.533   2.414 -1.0805 -1.7798  0.1524
 3120TIP3   OH233554   1.395   5.565   9.283 -0.0647 -0.3795 -0.2088
 3120TIP3    H133555   1.321   5.537   9.337 -0.1157 -0.0848 -0.1231
 3120TIP3    H233556   1.465   5.503   9.303 -0.0667 -0.2400  0.2391
 3121TIP3   OH233557   0.904   7.497   7.331 -0.5729  0.5438 -0.6234
 3121TIP3    H133558   0.838   7.496   7.261 -0.5858  0.1539 -0.6044
 3121TIP3    H233559   0.968   7.561   7.301 -0.7301  0.5969 -0.8542
 3122TIP3   OH233560   4.706   6.929   1.406 -0.0108 -0.1775  0.1222
 3122TIP3    H133561   4.725   6.988   1.479  0.6870  2.1766 -1.8092
 3122TIP3    H233562   4.614   6.944   1.386 -0.2258 -0.8865  0.5703
 3123TIP3   OH233563   6.656   2.986   1.568  0.0070 -0.2614 -0.0370
 3123TIP3    H133564   6.739   2.959   1.529  0.0702 -1.1217  0.6350
 3123TIP3    H233565   6.590   2.966   1.502  0.4947  2.3908 -1.4296
 3124TIP3   OH233566   6.444   5.520   9.525 -0.1465  0.6033  0.0536
 3124TIP3    H133567   6.391   5.440   9.528 -0.2719  0.5504 -2.0167
 3124TIP3    H233568   6.505   5.511   9.598 -0.8615 -0.8825  0.5084
 3125TIP3   OH233569   0.868   5.577   8.490 -0.1921  0.1221  0.6247
 3125TIP3    H133570   0.942   5.517   8.478 -0.8658 -0.6750  0.4117
 3125TIP3    H233571   0.909   5.659   8.519  0.8344 -0.1172 -0.0704
 3126TIP3   OH233572   5.616   4.550   7.664  0.0751 -0.5464 -0.1347
 3126TIP3    H133573   5.681   4.589   7.606  1.1848 -0.9272  0.8024
 3126TIP3    H233574   5.553   4.509   7.605 -0.4567  1.5633 -1.1014
 3127TIP3   OH233575   7.408   6.632   2.324  0.3411  0.3001  0.3112
 3127TIP3    H133576   7.364   6.702   2.276  0.6309 -0.2472 -0.7708
 3127TIP3    H233577   7.414   6.666   2.414 -2.2117  0.4080  0.5066
 3128TIP3   OH233578   1.865   2.812   9.503 -0.2769 -0.0386  0.4620
 3128TIP3    H133579   1.895   2.903   9.503 -0.5803  0.0783  1.3556
 3128TIP3    H233580   1.882   2.781   9.414  1.1716  0.4455  0.5413
 3129TIP3   OH233581   7.326   2.871   8.551  0.1242 -0.3383  0.2059
 3129TIP3    H133582   7.398   2.927   8.520 -1.8604  2.3636  0.1460
 3129TIP3    H233583   7.262   2.873   8.479 -0.7531 -1.3007  0.9366
 3130TIP3   OH233584   4.436   5.968   8.793  0.1352 -0.2210 -0.8598
 3130TIP3    H133585   4.353   5.924   8.777  0.4602 -0.8001 -0.9930
 3130TIP3    H233586   4.443   5.971   8.889 -0.2889  0.3290 -0.8383
 3131TIP3   OH233587   2.730   6.400   8.014 -0.4032  0.0421  0.2068
 3131TIP3    H133588   2.651   6.354   8.041 -0.1739 -0.4496  0.0544
 3131TIP3    H233589   2.700   6.468   7.953 -0.6350 -0.6083 -0.4171
 3132TIP3   OH233590   0.781   4.414   1.190 -0.0163 -1.0006  0.6200
 3132TIP3    H133591   0.794   4.359   1.267  1.5155  0.7133  1.6604
 3132TIP3    H233592   0.725   4.486   1.220 -0.5707 -1.0430 -0.2608
 3133TIP3   OH233593   1.684   1.803   0.332  0.0621  0.9928  0.4152
 3133TIP3    H133594   1.727   1.875   0.286 -1.3822  0.2161 -2.4486
 3133TIP3    H233595   1.736   1.726   0.311 -1.5544  0.3415 -1.5834
 3134TIP3   OH233596   6.313   5.937   7.301  0.0072 -0.1928 -0.0618
 3134TIP3    H133597   6.264   5.925   7.382  1.2490  0.8872  0.9033
 3134TIP3    H233598   6.396   5.976   7.329  1.2214 -1.4663 -1.6666
 3135TIP3   OH233599   2.883   0.556   8.482 -0.2195 -0.1880 -0.3840
 3135TIP3    H133600   2.798   0.571   8.524 -0.0709 -1.0399  0.2279
 3135TIP3    H233601   2.928   0.495   8.539  1.1615  0.8973 -0.2464
 3136TIP3   OH233602   5.397   3.307   7.534  0.7562  0.6357 -0.0682
 3136TIP3    H133603   5.473   3.252   7.555  0.1250 -0.9223 -1.5853
 3136TIP3    H233604   5.417   3.343   7.448 -0.3388 -0.0651 -0.6352
 3137TIP3   OH233605   3.363   4.622   9.695  0.1849  0.1419 -0.4912
 3137TIP3    H133606   3.408   4.701   9.665 -1.3262  0.3021 -2.5035
 3137TIP3    H233607   3.355   4.634   9.790  0.5915  2.0756 -0.6615
 3138TIP3   OH233608   5.250   4.402   8.280  0.4192 -0.0236 -0.5231
 3138TIP3    H133609   5.300   4.464   8.225  1.3607 -1.4381 -1.3149
 3138TIP3    H233610   5.164   4.398   8.239  0.7663 -0.2280 -1.2370
 3139TIP3   OH233611   0.986   0.039   1.444 -0.1626 -0.1889  0.3118
 3139TIP3    H133612   0.972   0.068   1.354 -0.9020  0.0216  0.4857
 3139TIP3    H233613   1.000   0.120   1.493 -0.6238 -0.2339  0.5247
 3140TIP3   OH233614   6.315   2.607   9.018  0.1713  0.1490  0.3548
 3140TIP3    H133615   6.309   2.587   8.924 -0.8644  1.0822  0.2069
 3140TIP3    H233616   6.241   2.562   9.058  1.0230 -0.8540  0.8639
 3141TIP3   OH233617   0.597   3.812   9.730  0.5540  0.0380  0.0389
 3141TIP3    H133618   0.626   3.850   9.813  0.6973 -0.3301  0.1597
 3141TIP3    H233619   0.527   3.751   9.754  1.7753 -1.4049  0.1101
 3142TIP3   OH233620   4.234   5.116   8.326  0.2782 -0.0114 -0.4581
 3142TIP3    H133621   4.314   5.134   8.375  0.1506  1.1078 -0.6369
 3142TIP3    H233622   4.204   5.031   8.359  0.4788  0.4761  1.0225
 3143TIP3   OH233623   6.058   1.308   0.919  0.1328  0.5945  0.0620
 3143TIP3    H133624   6.138   1.263   0.947 -1.3367 -3.4317 -1.4468
 3143TIP3    H233625   6.021   1.343   1.000  2.2366  0.5452  1.1280
 3144TIP3   OH233626   4.428   0.391   0.598  0.2581  0.0317  0.0999
 3144TIP3    H133627   4.438   0.317   0.658 -1.8444  0.1800  0.6830
 3144TIP3    H233628   4.396   0.463   0.652 -0.9425  0.3934 -1.0440
 3145TIP3   OH233629   6.797   2.986   7.341  0.0218 -0.1180 -0.3712
 3145TIP3    H133630   6.737   3.056   7.366  1.2733  1.6851 -2.1187
 3145TIP3    H233631   6.746   2.931   7.282 -1.0840 -0.9718  1.2963
 3146TIP3   OH233632   5.578   6.371   2.773 -0.2146 -0.0653 -0.1316
 3146TIP3    H133633   5.517   6.299   2.755 -0.3201  0.2365 -1.0433
 3146TIP3    H233634   5.531   6.450   2.747  1.5730 -0.0222 -3.8594
 3147TIP3   OH233635   5.087   0.802   7.914  0.0507  0.3385  0.0056
 3147TIP3    H133636   5.049   0.825   7.999  1.4055 -1.9247  1.3364
 3147TIP3    H233637   5.032   0.731   7.881  1.0411 -0.6040  0.3082
 3148TIP3   OH233638   1.874   0.932   0.658 -0.4394  0.2850  0.0533
 3148TIP3    H133639   1.896   1.011   0.608  0.7130 -1.1483 -1.8413
 3148TIP3    H233640   1.847   0.964   0.744 -0.2217  2.7389 -0.7336
 3149TIP3   OH233641   4.744   1.916   1.328  0.0187 -0.1023 -0.1505
 3149TIP3    H133642   4.767   1.894   1.238 -2.0086 -1.3503 -0.4175
 3149TIP3    H233643   4.660   1.961   1.322 -0.0178  0.0421  1.0967
 3150TIP3   OH233644   0.421   0.782   9.717 -0.0010  0.0097  0.0916
 3150TIP3    H133645   0.500   0.749   9.759 -0.6794 -0.7657  0.7699
 3150TIP3    H233646   0.384   0.707   9.671 -0.8730  0.1179  0.5882
 3151TIP3   OH233647   2.851   0.880   7.198  0.1306  0.7045 -0.2332
 3151TIP3    H133648   2.766   0.917   7.176 -0.8631 -1.1308  0.2822
 3151TIP3    H233649   2.861   0.804   7.140  0.5215 -0.2239  0.9842
 3152TIP3   OH233650   3.520   1.668   0.135  0.1736  0.4571 -0.5243
 3152TIP3    H133651   3.446   1.697   0.187 -0.2062  0.4824 -1.0741
 3152TIP3    H233652   3.566   1.748   0.110 -0.7225  0.6008 -1.8158
 3153TIP3   OH233653   0.780   6.490   7.897  0.0883  0.2173  0.5757
 3153TIP3    H133654   0.714   6.554   7.923 -0.3991 -0.3364  0.7341
 3153TIP3    H233655   0.739   6.405   7.915  0.5801 -0.1427  0.0319
 3154TIP3   OH233656   6.346   1.308   8.987  0.3972  0.5731 -0.0134
 3154TIP3    H133657   6.271   1.349   8.945  0.4877  0.2991 -0.4450
 3154TIP3    H233658   6.341   1.216   8.961 -0.0307  0.2045  1.2611
 3155TIP3   OH233659   2.765   6.575   0.238  0.0651  0.0123 -0.2528
 3155TIP3    H133660   2.848   6.535   0.263 -0.3947 -0.7033  0.1966
 3155TIP3    H233661   2.699   6.514   0.271 -0.7476  1.9051  1.9630
 3156TIP3   OH233662   1.646   0.315   0.071 -1.1739  0.0738  0.4127
 3156TIP3    H133663   1.739   0.315   0.092 -0.4268  1.3610 -2.4026
 3156TIP3    H233664   1.632   0.231   0.027 -1.1231  0.2414  0.0726
 3157TIP3   OH233665   6.908   5.893   0.088 -0.2109  0.1860  0.2500
 3157TIP3    H133666   6.876   5.925   0.004 -2.0406  2.4295  1.7125
 3157TIP3    H233667   6.860   5.811   0.103 -0.7066  0.3632 -0.3569
 3158TIP3   OH233668   1.780   3.475   2.197  0.1248  0.0278  0.1148
 3158TIP3    H133669   1.869   3.506   2.179  1.0576 -1.9732  1.0203
 3158TIP3    H233670   1.773   3.476   2.292 -0.6803 -0.2718  0.0612
 3159TIP3   OH233671   5.330   1.623   0.218 -0.1218 -0.3601  0.7059
 3159TIP3    H133672   5.387   1.552   0.247  1.4465  0.4335 -0.3460
 3159TIP3    H233673   5.300   1.664   0.300  1.0475 -0.6058  1.2712
 3160TIP3   OH233674   7.401   1.252   8.339  0.2819  0.3308  0.2754
 3160TIP3    H133675   7.351   1.268   8.259  1.6938  0.2024 -0.6750
 3160TIP3    H233676   7.439   1.165   8.327  0.8460  0.4800  0.8899
 3161TIP3   OH233677   2.042   4.840   9.346 -0.2208  0.4512 -0.1280
 3161TIP3    H133678   2.044   4.886   9.262 -0.3544  2.0950  0.7328
 3161TIP3    H233679   1.980   4.769   9.332  0.5555  0.0289 -1.7278
 3162TIP3   OH233680   2.672   2.653   9.441  0.3469 -0.0462  0.3104
 3162TIP3    H133681   2.708   2.739   9.464  0.5785 -0.4196  1.4493
 3162TIP3    H233682   2.578   2.660   9.460 -0.0974  0.6717 -1.8781
 3163TIP3   OH233683   7.355   4.760   0.532  0.7560  0.5858 -0.1446
 3163TIP3    H133684   7.406   4.815   0.473  0.4858  0.0045 -0.9289
 3163TIP3    H233685   7.301   4.823   0.581  0.5215  1.0422 -0.9576
 3164TIP3   OH233686   3.823   0.601   0.455  0.1772  0.1627  0.1422
 3164TIP3    H133687   3.868   0.677   0.420 -0.0613  0.5749  0.6996
 3164TIP3    H233688   3.872   0.526   0.422  0.1750  0.5393 -0.7502
 3165TIP3   OH233689   3.199   3.960   0.730 -0.3200 -0.6155  0.1497
 3165TIP3    H133690   3.282   4.007   0.720 -0.1411 -0.7586  0.8748
 3165TIP3    H233691   3.162   3.957   0.642 -0.5540  1.2565  0.1364
 3166TIP3   OH233692   6.333   2.279   0.034  0.5585  0.3027 -0.0262
 3166TIP3    H133693   6.327   2.244   0.123 -0.1122  1.5304  0.4405
 3166TIP3    H233694   6.350   2.202  -0.021 -0.5465 -0.7059  0.9788
 3167TIP3   OH233695   4.811   5.652   8.610  0.2722 -0.3065 -0.1076
 3167TIP3    H133696   4.744   5.721   8.607  0.8895  0.2656 -1.6874
 3167TIP3    H233697   4.761   5.570   8.606 -0.3650  0.1042 -0.7631
 3168TIP3   OH233698   0.200   4.427   2.025 -0.4251  0.0968  0.0972
 3168TIP3    H133699   0.193   4.412   1.931  0.1507 -1.6602  0.3071
 3168TIP3    H233700   0.111   4.450   2.052 -0.9687 -1.1149 -0.6037
 3169TIP3   OH233701   5.964   1.293   1.750  0.1343 -0.0849 -0.0159
 3169TIP3    H133702   5.998   1.219   1.699  1.7911  0.0410  0.8349
 3169TIP3    H233703   5.908   1.252   1.817  0.1597 -0.4786 -0.2315
 3170TIP3   OH233704   6.073   1.348   7.349  0.5759  0.2496  0.0024
 3170TIP3    H133705   6.135   1.406   7.305  1.7958 -0.6930  0.4124
 3170TIP3    H233706   6.008   1.328   7.282  0.9510  0.9234 -0.5735
 3171TIP3   OH233707   3.476   4.442   7.934 -0.5262  0.0957 -0.0222
 3171TIP3    H133708   3.455   4.432   8.027 -3.5755  1.2293 -0.5033
 3171TIP3    H233709   3.530   4.521   7.930  2.0341 -1.4795  0.9870
 3172TIP3   OH233710   0.389   0.597   7.102 -0.0624  0.4390 -0.8818
 3172TIP3    H133711   0.317   0.660   7.102 -0.0963  0.4595 -3.0869
 3172TIP3    H233712   0.354   0.521   7.148 -0.7213  1.2447 -0.0078
 3173TIP3   OH233713   3.260   6.172   9.735  0.2044 -0.2365 -0.2494
 3173TIP3    H133714   3.253   6.266   9.721 -0.4416 -0.2991 -0.3640
 3173TIP3    H233715   3.282   6.137   9.648  0.6955 -0.1692 -0.1558
 3174TIP3   OH233716   6.952   5.429   1.678  0.1097  0.0355 -0.2430
 3174TIP3    H133717   6.881   5.368   1.657  0.4043  0.1637 -1.7268
 3174TIP3    H233718   6.968   5.476   1.597  0.8883  1.0703  0.4851
 3175TIP3   OH233719   4.850   6.514   8.270  0.1661 -0.0939 -0.8015
 3175TIP3    H133720   4.890   6.488   8.353 -1.2557 -0.0029 -0.0761
 3175TIP3    H233721   4.814   6.601   8.286 -1.1594 -0.5628 -1.1520
 3176TIP3   OH233722   1.552   0.497   1.169 -0.2149  0.4510 -0.2855
 3176TIP3    H133723   1.564   0.403   1.157 -2.3109 -0.1711  1.9130
 3176TIP3    H233724   1.564   0.534   1.081  3.0560 -1.5003 -0.8169
 3177TIP3   OH233725   2.260   7.223   2.151  0.0612  0.0120 -0.2483
 3177TIP3    H133726   2.276   7.311   2.117 -0.7083  0.8759  1.5130
 3177TIP3    H233727   2.234   7.172   2.074 -2.4574  2.0850 -0.9114
 3178TIP3   OH233728   2.245   2.341   0.786  0.0594 -0.5370  0.5089
 3178TIP3    H133729   2.286   2.311   0.868 -1.5344 -0.7848  1.2417
 3178TIP3    H233730   2.158   2.301   0.786  0.1289 -0.7803 -1.4717
 3179TIP3   OH233731   2.850   1.400   2.284  0.6929 -0.2024  0.4317
 3179TIP3    H133732   2.870   1.318   2.240 -0.8318 -0.4037  0.0485
 3179TIP3    H233733   2.888   1.468   2.228  1.1044 -0.5932  0.2363
 3180TIP3   OH233734   7.035   0.514   7.945  0.0314  0.2282 -0.3424
 3180TIP3    H133735   7.128   0.507   7.965  0.0599  0.8131 -0.2413
 3180TIP3    H233736   7.031   0.524   7.850  0.0139 -0.6608 -0.4419
 3181TIP3   OH233737   5.578   0.187   1.964 -0.3648  0.8687  0.8624
 3181TIP3    H133738   5.500   0.220   2.008 -0.1018  3.1654 -0.1961
 3181TIP3    H233739   5.576   0.229   1.878  0.9411 -0.7015  0.0106
 3182TIP3   OH233740   5.937   0.842   9.594  0.1393  0.1336 -0.1768
 3182TIP3    H133741   5.857   0.791   9.579 -0.9268  1.6090  0.3194
 3182TIP3    H233742   5.913   0.932   9.572  1.8049  0.5420 -0.4508
 3183TIP3   OH233743   5.525   0.105   1.607  0.0144 -0.5588  0.3224
 3183TIP3    H133744   5.478   0.188   1.606  0.1943 -0.4380 -1.5957
 3183TIP3    H233745   5.613   0.127   1.575  0.1709 -1.4259  0.1288
 3184TIP3   OH233746   4.698   5.333   8.979  0.3052 -0.1772 -0.3568
 3184TIP3    H133747   4.698   5.408   9.039 -0.3249 -2.4182  2.6932
 3184TIP3    H233748   4.651   5.365   8.902  0.6391  2.7346  0.4980
 3185TIP3   OH233749   2.978   1.186   3.282 -0.0581 -0.3631  0.6081
 3185TIP3    H133750   3.034   1.244   3.334  1.3812  1.0859 -2.3587
 3185TIP3    H233751   2.904   1.240   3.257 -0.0966 -0.6565  0.0804
 3186TIP3   OH233752   1.062   5.069   0.190 -0.3078 -0.2365 -0.3034
 3186TIP3    H133753   1.027   5.047   0.277 -0.2820 -1.1618 -0.5113
 3186TIP3    H233754   1.156   5.049   0.197  0.0376  1.3247 -0.0389
 3187TIP3   OH233755   3.746   4.797   9.435  0.0566  0.9770  0.0046
 3187TIP3    H133756   3.786   4.881   9.414 -1.3002  1.7726  0.5094
 3187TIP3    H233757   3.740   4.752   9.351  2.3198  0.6516 -0.0425
 3188TIP3   OH233758   3.388   0.708   0.491  0.0516 -0.8413  0.6572
 3188TIP3    H133759   3.397   0.800   0.463 -0.6689 -1.0575 -0.3437
 3188TIP3    H233760   3.447   0.660   0.433 -0.1371 -1.0929  0.6729
 3189TIP3   OH233761   7.352   1.552   0.599  0.4611  0.2454  0.0672
 3189TIP3    H133762   7.343   1.581   0.689 -1.6264 -1.5952  0.5376
 3189TIP3    H233763   7.359   1.456   0.605 -0.2742  0.0333 -1.7245
 3190TIP3   OH233764   3.349   5.594   9.086  0.2123  0.5465  0.2046
 3190TIP3    H133765   3.326   5.582   9.178 -0.6012 -0.2739 -0.0822
 3190TIP3    H233766   3.434   5.637   9.087  0.1379  0.6869  1.3368
 3191TIP3   OH233767   4.764   7.793   9.616 -0.0844  0.1350  0.0726
 3191TIP3    H133768   4.711   7.844   9.555 -1.4244 -0.6197  0.5765
 3191TIP3    H233769   4.708   7.720   9.643  0.4466  0.4453  2.2165
 3192TIP3   OH233770   6.875   2.077   9.681 -0.0787  0.3556 -0.1588
 3192TIP3    H133771   6.936   2.112   9.616  0.9478 -0.0431  0.5803
 3192TIP3    H233772   6.909   2.106   9.765  0.3644 -1.7237  0.4193
 3193TIP3   OH233773   2.803   4.707   7.678 -0.4872  0.7107  0.1492
 3193TIP3    H133774   2.741   4.700   7.751 -0.4208  0.3322  0.1676
 3193TIP3    H233775   2.853   4.787   7.698 -1.6783  1.6264 -0.4244
 3194TIP3   OH233776   6.685   7.089   2.735 -0.6374 -0.2350 -0.2960
 3194TIP3    H133777   6.733   7.087   2.818  0.4892  2.3401 -0.7840
 3194TIP3    H233778   6.610   7.032   2.749  0.4229 -1.2094  1.8948
 3195TIP3   OH233779   6.705   6.986   0.986 -0.1168 -0.2408 -0.3599
 3195TIP3    H133780   6.766   7.027   1.047  0.2718 -1.0551 -0.1818
 3195TIP3    H233781   6.621   6.986   1.032  0.0474 -0.3259 -0.0565
 3196TIP3   OH233782   1.172   3.863   8.920 -0.6283  0.4107 -0.1168
 3196TIP3    H133783   1.194   3.956   8.914 -2.2737  0.9531  1.3572
 3196TIP3    H233784   1.184   3.841   9.012  1.5975 -1.4088 -0.7407
 3197TIP3   OH233785   6.089   4.173   9.511  0.0471 -0.8441  0.0480
 3197TIP3    H133786   6.024   4.125   9.459 -1.8110  1.5149  0.0468
 3197TIP3    H233787   6.148   4.210   9.446  0.3253 -1.4817 -0.0725
 3198TIP3   OH233788   6.161   4.797   9.243 -0.0748  0.1488  0.3799
 3198TIP3    H133789   6.143   4.847   9.164  0.2592 -0.2728  0.0337
 3198TIP3    H233790   6.080   4.804   9.295 -1.3925 -1.9082 -1.2349
 3199TIP3   OH233791   5.367   3.026   9.114  0.1841  0.1526 -0.1023
 3199TIP3    H133792   5.428   3.065   9.176 -0.5162  0.4310  0.4202
 3199TIP3    H233793   5.422   2.969   9.060  0.7305 -0.4160  1.0305
 3200TIP3   OH233794   2.686   2.728   0.842  0.4204  0.1472  0.4650
 3200TIP3    H133795   2.722   2.816   0.830 -0.2198  0.4786  0.9014
 3200TIP3    H233796   2.742   2.688   0.908  1.2095 -0.0752 -0.3145
 3201TIP3   OH233797   3.868   5.779   9.978  0.1431  0.2273 -0.1590
 3201TIP3    H133798   3.940   5.788   9.915  0.2714  0.3665  0.0028
 3201TIP3    H233799   3.912   5.782  10.063 -0.0755  0.5029 -0.0565
 3202TIP3   OH233800   1.329   5.973   1.898 -0.5594 -0.0150 -0.5443
 3202TIP3    H133801   1.257   6.000   1.956  0.5159 -0.2027  0.9320
 3202TIP3    H233802   1.404   6.026   1.927  0.4246 -1.3075 -0.6266
 3203TIP3   OH233803   7.086   2.670   1.707 -0.1244 -0.0480 -0.4425
 3203TIP3    H133804   7.003   2.702   1.744  0.4829  1.0778  0.0109
 3203TIP3    H233805   7.065   2.647   1.617 -1.2821 -1.3314  0.1181
 3204TIP3   OH233806   2.243   6.910   9.655 -0.2578  0.4806  0.4710
 3204TIP3    H133807   2.218   7.000   9.637 -1.6073  0.1939  0.8484
 3204TIP3    H233808   2.335   6.916   9.683 -0.6384  1.8563  1.5243
 3205TIP3   OH233809   3.985   0.789   1.952  0.3917  0.1143  0.0746
 3205TIP3    H133810   3.944   0.872   1.977  1.6045  0.9449 -0.5979
 3205TIP3    H233811   3.925   0.750   1.888  0.1548  0.7963 -0.1227
 3206TIP3   OH233812   7.360   2.923   7.838  0.1227 -0.1603  0.1404
 3206TIP3    H133813   7.276   2.968   7.832  0.9814  1.3463 -1.6381
 3206TIP3    H233814   7.358   2.859   7.766 -0.2914 -1.6267  1.4072
 3207TIP3   OH233815   0.537   1.801   8.776  0.3114 -0.0578 -0.5036
 3207TIP3    H133816   0.593   1.813   8.699  1.4799  0.9831  0.4901
 3207TIP3    H233817   0.505   1.889   8.797  0.8191 -0.1686  0.8053
 3208TIP3   OH233818   4.616   6.818   0.486  0.4133  0.8426  0.6152
 3208TIP3    H133819   4.678   6.752   0.456 -0.4889  0.3047 -0.1260
 3208TIP3    H233820   4.639   6.897   0.436 -1.3081 -0.1331 -1.9772
 3209TIP3   OH233821   6.130   5.164   9.739  0.4791  0.0805  0.2765
 3209TIP3    H133822   6.208   5.119   9.772  1.1667 -0.4745 -1.9862
 3209TIP3    H233823   6.071   5.093   9.714  0.3043  0.4759 -0.4277
 3210TIP3   OH233824   3.607   2.753   0.509 -0.7317  0.5402 -0.6418
 3210TIP3    H133825   3.657   2.706   0.576 -2.4738  0.8917  0.9755
 3210TIP3    H233826   3.542   2.803   0.558 -1.8577  1.0996 -2.5978
 3211TIP3   OH233827   0.065   7.016   1.978  0.3993  0.4989 -0.3517
 3211TIP3    H133828   0.089   7.105   1.954 -0.7383  0.4220 -1.9844
 3211TIP3    H233829  -0.003   7.026   2.044 -0.0989  0.8819 -0.9084
 3212TIP3   OH233830   2.389   6.829   7.679 -0.2822 -0.0852 -0.3347
 3212TIP3    H133831   2.443   6.905   7.657  0.1507 -0.5421 -0.8976
 3212TIP3    H233832   2.305   6.847   7.637 -0.4415  0.4458  0.2066
 3213TIP3   OH233833   1.542   2.749   0.916  0.3348 -0.1495 -0.0598
 3213TIP3    H133834   1.636   2.760   0.928  0.3520 -0.6878  0.3209
 3213TIP3    H233835   1.520   2.808   0.843  0.9890 -0.1443 -0.2579
 3214TIP3   OH233836   6.970   4.570   1.504 -0.4798  0.2418  0.3457
 3214TIP3    H133837   6.906   4.562   1.433 -1.3465  0.1910  1.1274
 3214TIP3    H233838   7.000   4.661   1.499 -0.8530  0.3556  0.1829
 3215TIP3   OH233839   3.025   1.530   8.456 -0.4854  0.8952  0.2294
 3215TIP3    H133840   3.035   1.435   8.460 -1.2134  0.8165  0.1670
 3215TIP3    H233841   3.115   1.562   8.444 -0.3977  0.1295 -1.5142
 3216TIP3   OH233842   6.424   2.284   1.225 -0.1022  0.2347  0.0575
 3216TIP3    H133843   6.422   2.331   1.141  0.8393  0.5595  0.1989
 3216TIP3    H233844   6.417   2.192   1.201  0.4101  0.3059 -0.4117
 3217TIP3   OH233845   6.526   3.036   8.769 -0.0761  0.0974 -0.0335
 3217TIP3    H133846   6.476   3.067   8.845  0.5950 -2.3676  1.5366
 3217TIP3    H233847   6.477   2.960   8.737  1.2521 -0.8086 -0.0455
 3218TIP3   OH233848   1.449   5.778   1.276  0.1106  0.3781 -0.4468
 3218TIP3    H133849   1.420   5.709   1.336  2.0950  1.5704  2.0748
 3218TIP3    H233850   1.540   5.795   1.302 -0.1503  3.5936 -1.2710
 3219TIP3   OH233851   2.800   4.156   8.168 -0.2768  0.1943 -0.0351
 3219TIP3    H133852   2.834   4.185   8.253  2.1175 -0.4888 -0.6697
 3219TIP3    H233853   2.849   4.208   8.104 -2.8183  1.4960 -1.0646
 3220TIP3   OH233854   4.077   3.780   9.492  0.3655  0.4942 -0.2595
 3220TIP3    H133855   4.091   3.795   9.398  2.0902  0.1004 -0.1060
 3220TIP3    H233856   3.995   3.824   9.512 -0.6789 -0.4476 -2.2013
 3221TIP3   OH233857   5.464   4.723   0.167  0.0512  0.0745 -0.3488
 3221TIP3    H133858   5.368   4.722   0.159  0.0977  1.4727 -1.5777
 3221TIP3    H233859   5.493   4.657   0.104 -0.0936 -0.7467  0.4195
 3222TIP3   OH233860   2.308   7.442   8.376 -0.1085  0.1860  0.0514
 3222TIP3    H133861   2.304   7.409   8.287 -0.1782 -1.5278  0.6478
 3222TIP3    H233862   2.225   7.488   8.389 -0.9862 -1.2629 -0.1657
 3223TIP3   OH233863   7.386   4.638   0.928 -0.1982 -0.0560 -0.3541
 3223TIP3    H133864   7.418   4.597   0.847 -0.7889 -1.0365 -0.1167
 3223TIP3    H233865   7.457   4.625   0.991  0.1412  0.4444 -0.6258
 3224TIP3   OH233866   5.043   2.030   9.039 -0.0392 -0.0256 -0.0365
 3224TIP3    H133867   5.070   1.940   9.060 -2.5059 -0.4632  1.7664
 3224TIP3    H233868   4.972   2.019   8.975 -1.1040  0.4923  1.0071
 3225TIP3   OH233869   1.640   2.859   1.743 -0.2916  0.3753 -0.3471
 3225TIP3    H133870   1.576   2.885   1.677 -1.0991  0.3091  0.3839
 3225TIP3    H233871   1.679   2.942   1.772 -1.2395  0.5868  0.3730
 3226TIP3   OH233872   2.422   0.498   0.556 -0.5755 -0.0023  0.3198
 3226TIP3    H133873   2.493   0.562   0.564  0.7587 -1.2768 -0.6886
 3226TIP3    H233874   2.466   0.417   0.531 -2.4475 -0.7007 -0.9514
 3227TIP3   OH233875   1.560   1.399   8.159 -0.1316 -0.0245  0.4282
 3227TIP3    H133876   1.573   1.493   8.171  1.8173  0.1383 -2.0250
 3227TIP3    H233877   1.537   1.390   8.067  0.5171 -1.9817  0.4132
 3228TIP3   OH233878   5.757   4.994   6.620 -0.1285  0.4400  0.1067
 3228TIP3    H133879   5.704   5.011   6.698 -0.7845 -1.8372  0.2371
 3228TIP3    H233880   5.694   4.965   6.554  0.7273 -0.4291 -0.3534
 3229TIP3   OH233881   0.886   2.431   0.299 -0.3223  0.2550  0.1234
 3229TIP3    H133882   0.906   2.456   0.209 -0.7935  0.9892  0.2080
 3229TIP3    H233883   0.825   2.358   0.291  0.4038 -0.3420 -0.1367
 3230TIP3   OH233884   4.477   5.166   8.459  0.4844  0.2251 -0.2013
 3230TIP3    H133885   4.564   5.204   8.453  0.6644 -0.3601 -2.1225
 3230TIP3    H233886   4.492   5.073   8.471  0.1992 -0.0807 -1.9227
 3231TIP3   OH233887   5.337   3.970   8.888 -0.3523 -0.3285 -0.1736
 3231TIP3    H133888   5.260   4.027   8.877 -0.5320 -0.3603  0.8200
 3231TIP3    H233889   5.391   3.988   8.811  0.1577  2.1030  0.6599
 3232TIP3   OH233890   6.045   4.023   9.008 -0.1742 -0.5642 -0.0703
 3232TIP3    H133891   6.056   3.942   8.958 -1.1093  0.4939 -2.0875
 3232TIP3    H233892   6.116   4.021   9.072  1.5380 -1.6640 -1.8857
 3233TIP3   OH233893   5.639   0.765   8.920 -0.1564 -0.5968 -0.5260
 3233TIP3    H133894   5.732   0.782   8.935 -0.6672 -0.0570  2.6937
 3233TIP3    H233895   5.595   0.847   8.942 -1.5007 -1.3099 -0.4091
 3234TIP3   OH233896   2.310   3.371   8.901 -0.5307 -0.0452  0.2093
 3234TIP3    H133897   2.220   3.391   8.928 -0.6072 -1.0274  0.7114
 3234TIP3    H233898   2.361   3.445   8.934 -0.9402 -0.1911  1.2228
 3235TIP3   OH233899   4.086   1.252   2.434  0.2760 -0.4797 -0.1333
 3235TIP3    H133900   4.165   1.198   2.435 -0.7207 -2.2267  3.5812
 3235TIP3    H233901   4.114   1.336   2.469  1.1263  0.2976 -2.4957
 3236TIP3   OH233902   5.177   7.550   2.651 -0.3313  0.3162  0.2945
 3236TIP3    H133903   5.193   7.615   2.582 -0.9321  0.7536  0.5607
 3236TIP3    H233904   5.265   7.523   2.679  0.0484  2.9493  2.0085
 3237TIP3   OH233905   1.550   1.084   9.368  0.1183 -0.0248  0.3102
 3237TIP3    H133906   1.495   1.031   9.427  0.0520  1.2800  1.4639
 3237TIP3    H233907   1.579   1.157   9.422  2.4215 -0.2911 -0.4796
 3238TIP3   OH233908   6.481   2.506   7.961 -0.3450 -0.2288 -0.1771
 3238TIP3    H133909   6.558   2.501   7.905 -1.3541  1.3485 -1.8186
 3238TIP3    H233910   6.425   2.571   7.919 -1.3793  0.6980  2.4253
 3239TIP3   OH233911   2.158   2.623   2.750  0.1427 -0.0235  0.1291
 3239TIP3    H133912   2.184   2.687   2.816  1.0992  0.5029 -0.7173
 3239TIP3    H233913   2.132   2.675   2.674  1.0501 -0.6134 -0.6171
 3240TIP3   OH233914   3.917   4.494   9.967  0.0449 -0.3870 -0.4156
 3240TIP3    H133915   3.855   4.557   9.931  1.5167  0.2931 -1.8827
 3240TIP3    H233916   3.907   4.416   9.911 -0.7266 -0.9656  0.4834
 3241TIP3   OH233917   1.316   7.646   7.053  0.1657  0.2140 -0.4804
 3241TIP3    H133918   1.345   7.724   7.005 -0.3435  0.3157 -0.6337
 3241TIP3    H233919   1.364   7.574   7.013  1.5435  0.5774  0.4496
 3242TIP3   OH233920   1.263   2.050   9.711 -0.4153  0.2046 -0.2124
 3242TIP3    H133921   1.325   2.026   9.642 -0.5548  1.4120 -0.7850
 3242TIP3    H233922   1.208   1.972   9.723  0.0517 -0.2522 -0.9810
 3243TIP3   OH233923   5.421   7.613   0.371  0.3253 -0.3223  0.1208
 3243TIP3    H133924   5.327   7.624   0.385  0.4802 -0.3473  1.3402
 3243TIP3    H233925   5.430   7.523   0.339  0.0748 -1.0940  2.0402
 3244TIP3   OH233926   3.715   1.625   9.239  0.0175 -0.3251  0.1503
 3244TIP3    H133927   3.768   1.559   9.284  0.5943  0.1389  0.1604
 3244TIP3    H233928   3.633   1.580   9.219 -0.8605 -0.1624  2.9071
 3245TIP3   OH233929   0.976   2.740   8.846 -0.2063 -0.2390  0.0553
 3245TIP3    H133930   1.033   2.675   8.804  0.0699  0.1850 -0.2295
 3245TIP3    H233931   0.982   2.720   8.940 -1.0716 -1.3920 -0.1028
 3246TIP3   OH233932   5.499   1.800   0.983  0.2196  0.4357  0.4755
 3246TIP3    H133933   5.466   1.731   1.040 -1.1180  0.1134 -0.6238
 3246TIP3    H233934   5.592   1.781   0.974  0.6763  1.0313  3.2087
 3247TIP3   OH233935   1.953   5.863   8.245 -0.1243 -0.5810 -0.5001
 3247TIP3    H133936   1.987   5.782   8.281  0.4593 -0.4275 -0.6980
 3247TIP3    H233937   1.935   5.843   8.153  0.2769 -0.4107 -0.6163
 3248TIP3   OH233938   1.296   7.351   3.053 -0.2056 -0.2373 -0.4794
 3248TIP3    H133939   1.241   7.274   3.060 -1.8386  0.8874 -0.2559
 3248TIP3    H233940   1.337   7.359   3.138 -0.0909 -0.8012 -0.4784
 3249TIP3   OH233941   0.398   1.671   7.210  0.1180  0.6067 -0.2016
 3249TIP3    H133942   0.447   1.648   7.289  0.1984 -1.0390 -0.6887
 3249TIP3    H233943   0.307   1.650   7.231  0.2757 -0.8870 -0.8708
 3250TIP3   OH233944   6.765   5.140   9.250  0.1178 -0.2422  0.1917
 3250TIP3    H133945   6.817   5.097   9.318  0.5878 -1.3118 -0.8131
 3250TIP3    H233946   6.774   5.083   9.174  0.3035  1.3774 -1.0358
 3251TIP3   OH233947   7.008   6.438   2.535 -0.0687  0.7311 -0.2677
 3251TIP3    H133948   7.032   6.349   2.508 -0.9367 -0.6948  3.1549
 3251TIP3    H233949   7.086   6.490   2.519  1.9169 -1.5595  1.3180
 3252TIP3   OH233950   2.348   4.784   1.361 -0.0629 -0.0552  0.0703
 3252TIP3    H133951   2.290   4.825   1.425  0.8711 -0.5075  1.2376
 3252TIP3    H233952   2.394   4.857   1.320 -0.1811  0.2114  0.4082
 3253TIP3   OH233953   3.839   5.167   7.606  0.0942  0.2968 -0.3358
 3253TIP3    H133954   3.897   5.091   7.593  0.1924  0.4885 -1.0468
 3253TIP3    H233955   3.805   5.155   7.695 -2.1117 -2.1213 -1.3747
 3254TIP3   OH233956   5.366   3.651   9.875  0.0739 -0.2793  0.4458
 3254TIP3    H133957   5.406   3.627   9.958  0.8440 -0.9102 -0.0820
 3254TIP3    H233958   5.316   3.573   9.849  0.1711 -0.2384  0.1295
 3255TIP3   OH233959   0.721   2.794   9.880  0.1818 -0.4398  0.1013
 3255TIP3    H133960   0.675   2.822   9.959 -0.2789 -0.4504 -0.1631
 3255TIP3    H233961   0.803   2.756   9.913 -0.3380 -1.1378  0.6297
 3256TIP3   OH233962   0.312   5.229   7.021  0.3379 -0.1593 -0.2494
 3256TIP3    H133963   0.260   5.167   7.073  0.1071  0.0630 -0.2124
 3256TIP3    H233964   0.284   5.213   6.931 -1.6780  1.6837 -0.0213
 3257TIP3   OH233965   4.001   0.054   9.047  0.1180 -1.2011 -0.3602
 3257TIP3    H133966   3.962  -0.033   9.049 -0.6266 -0.8546  0.7078
 3257TIP3    H233967   3.930   0.113   9.069  1.2444 -0.5843  1.9563
 3258TIP3   OH233968   7.035   1.771   0.609  0.8249  0.1279 -0.2945
 3258TIP3    H133969   7.116   1.740   0.649  1.0746  2.3434  1.0698
 3258TIP3    H233970   7.056   1.857   0.574 -0.7847  0.4968 -0.4375
 3259TIP3   OH233971   7.357   7.487   1.179  0.3548 -0.2282  0.2042
 3259TIP3    H133972   7.327   7.522   1.095  1.4964 -1.2522 -0.6522
 3259TIP3    H233973   7.283   7.436   1.211  0.3121 -0.7864 -0.7501
 3260TIP3   OH233974   7.349   7.322   0.846 -0.0083 -0.5722  0.3527
 3260TIP3    H133975   7.349   7.270   0.926  1.1315  1.3254  1.6686
 3260TIP3    H233976   7.307   7.404   0.870 -0.0771 -0.1373 -1.1445
 3261TIP3   OH233977   7.391   4.073   8.923 -0.1050  0.1796 -0.0858
 3261TIP3    H133978   7.412   4.111   8.837  0.6885 -0.7431 -0.3049
 3261TIP3    H233979   7.470   4.084   8.975  0.0828 -1.0316 -0.1014
 3262TIP3   OH233980   2.115   1.832   7.936  0.3779 -0.4669 -0.1837
 3262TIP3    H133981   2.125   1.809   7.843 -2.0851 -0.5353 -0.4981
 3262TIP3    H233982   2.031   1.794   7.961  0.4924  0.4700  1.7960
 3263TIP3   OH233983   4.969   5.524   9.215 -0.2445  0.2709 -0.2810
 3263TIP3    H133984   4.901   5.464   9.183 -1.7181  1.6533  0.1399
 3263TIP3    H233985   4.993   5.575   9.138 -0.6439  0.6725 -0.1397
 3264TIP3   OH233986   3.934   5.690   8.137  0.1325 -0.0376 -0.0364
 3264TIP3    H133987   3.993   5.646   8.198  0.6549 -0.1083 -0.5827
 3264TIP3    H233988   3.974   5.776   8.122 -0.5878  0.4244  0.5892
 3265TIP3   OH233989   3.500   1.003   0.750 -0.3874  0.4282 -0.0459
 3265TIP3    H133990   3.548   0.945   0.691 -0.0927 -0.0095  0.6153
 3265TIP3    H233991   3.431   1.040   0.696  1.1891  1.7573 -1.2841
 3266TIP3   OH233992   4.305   1.428   9.469  0.0272 -0.0308 -0.0095
 3266TIP3    H133993   4.320   1.353   9.526  1.7027 -0.0708 -0.4583
 3266TIP3    H233994   4.331   1.504   9.521  0.9368 -0.0124 -0.4770
 3267TIP3   OH233995   2.178   2.015   1.213 -0.6279 -0.3195  0.0478
 3267TIP3    H133996   2.240   1.967   1.267 -3.3380 -2.9313  1.1337
 3267TIP3    H233997   2.193   1.983   1.124 -0.1599 -0.6041  0.2254
 3268TIP3   OH233998   7.470   2.922   1.735 -0.1161 -0.2399  0.5314
 3268TIP3    H133999   7.492   3.006   1.697  1.9838 -1.6350 -1.6120
 3268TIP3    H234000   7.543   2.902   1.794 -0.7349 -0.4715  1.2403
 3269TIP3   OH234001   2.935   6.164   9.844  0.3132 -0.4186 -0.1039
 3269TIP3    H134002   2.945   6.246   9.892  1.3151 -0.6927  0.1692
 3269TIP3    H234003   2.993   6.102   9.888  0.7371 -0.8654 -1.2363
 3270TIP3   OH234004   2.873   1.528   8.014 -0.0124 -0.4143 -0.4139
 3270TIP3    H134005   2.890   1.577   8.095  0.8881 -0.1737 -0.7339
 3270TIP3    H234006   2.959   1.492   7.990 -0.7352 -2.6008  0.1020
 3271TIP3   OH234007   3.511   1.784   8.813 -0.0203 -0.7032 -0.3639
 3271TIP3    H134008   3.503   1.690   8.831  0.1888 -0.8237 -0.8915
 3271TIP3    H234009   3.484   1.794   8.722  0.5366 -0.3368 -0.4945
 3272TIP3   OH234010   1.029   5.013   0.467  0.0033 -0.3823  0.0394
 3272TIP3    H134011   1.011   5.061   0.548  0.7262 -0.1107  0.0449
 3272TIP3    H234012   1.002   4.923   0.486 -0.3590 -0.2010  0.3882
 3273TIP3   OH234013   5.367   7.605   0.102  0.0699  0.0001 -0.4665
 3273TIP3    H134014   5.384   7.520   0.063  1.8781 -0.2059  0.6560
 3273TIP3    H234015   5.283   7.632   0.065  0.2149 -1.5432 -2.0404
 3274TIP3   OH234016   3.078   0.355   0.215 -0.1081 -0.0899 -0.4881
 3274TIP3    H134017   3.171   0.339   0.195  0.3186  0.5934  0.8264
 3274TIP3    H234018   3.035   0.273   0.194  0.9187 -0.6506 -0.4911
 3275TIP3   OH234019   0.799   7.613   1.830  0.3783  0.1155  0.1571
 3275TIP3    H134020   0.761   7.692   1.792  0.2994 -0.1518 -0.3333
 3275TIP3    H234021   0.881   7.600   1.783 -0.6862 -1.3666 -1.4367
 3276TIP3   OH234022   1.663   5.938   7.813 -0.1984 -0.4544 -0.4640
 3276TIP3    H134023   1.659   5.844   7.798 -0.1917 -0.8420  1.6750
 3276TIP3    H234024   1.579   5.959   7.855 -0.3326  0.5570 -1.2077
 3277TIP3   OH234025   1.254   7.590   9.933  0.5168 -0.8198  0.3313
 3277TIP3    H134026   1.200   7.661   9.899  1.6052 -0.1169  0.0208
 3277TIP3    H234027   1.343   7.612   9.906  1.2893 -0.8532  2.6272
 3278TIP3   OH234028   1.436   2.556   8.783 -0.1035  0.4771 -0.6131
 3278TIP3    H134029   1.402   2.490   8.844  2.9336  2.0433  3.2892
 3278TIP3    H234030   1.525   2.526   8.763  0.4503  2.1049 -0.7624
 3279TIP3   OH234031   3.705   0.567   7.519 -0.3245  0.3292 -0.2960
 3279TIP3    H134032   3.645   0.529   7.582 -0.2068 -0.7086 -0.7967
 3279TIP3    H234033   3.661   0.647   7.489 -0.4346  0.7812  0.9850
 3280TIP3   OH234034   2.951   0.831   1.221  0.2133 -0.5044  0.0151
 3280TIP3    H134035   3.046   0.836   1.229  0.1599 -0.3474  0.6483
 3280TIP3    H234036   2.936   0.781   1.141  0.8266 -0.3176 -0.2229
 3281TIP3   OH234037   6.292   3.670   8.463  0.6320 -0.0773 -0.3548
 3281TIP3    H134038   6.258   3.584   8.436 -0.0032  0.2355 -0.5828
 3281TIP3    H234039   6.272   3.727   8.389  2.7351 -0.1066 -1.0030
 3282TIP3   OH234040   0.339   2.663   8.775  0.0588  0.1665  0.2064
 3282TIP3    H134041   0.341   2.587   8.717  0.9496  2.4227 -3.0244
 3282TIP3    H234042   0.427   2.700   8.769  0.5942 -0.0442  4.0808
 3283TIP3   OH234043   4.320   6.349   9.433 -0.6083  0.2643  0.4186
 3283TIP3    H134044   4.350   6.433   9.397 -0.2917 -0.3321 -0.7391
 3283TIP3    H234045   4.231   6.339   9.398 -0.2782 -0.3422 -0.2799
 3284TIP3   OH234046   5.970   3.202   8.724 -0.1498 -0.0962  1.2706
 3284TIP3    H134047   5.963   3.298   8.728 -0.6215 -0.0405 -0.3787
 3284TIP3    H234048   6.064   3.185   8.724 -0.0510  0.4293  0.5481
 3285TIP3   OH234049   6.563   6.856   8.674  0.2381 -0.1768  0.0502
 3285TIP3    H134050   6.495   6.901   8.624  0.4347 -0.2418 -0.2786
 3285TIP3    H234051   6.547   6.882   8.764 -1.4363 -1.7512  0.2490
 3286TIP3   OH234052   5.961   5.062   0.129 -0.3750  0.4706  0.5731
 3286TIP3    H134053   5.906   5.030   0.201 -0.5996 -1.0191 -0.2093
 3286TIP3    H234054   6.000   4.983   0.093  1.2499  1.3850  0.2566
 3287TIP3   OH234055   4.410   7.269   3.147  0.7342  0.1229 -0.1519
 3287TIP3    H134056   4.432   7.222   3.228  0.1481  1.7768  1.0335
 3287TIP3    H234057   4.491   7.268   3.096  0.6935 -2.2663 -0.2788
 3288TIP3   OH234058   4.655   6.353   0.434 -0.2037 -0.0514 -0.2652
 3288TIP3    H134059   4.681   6.275   0.385  0.4753 -0.9816  1.4924
 3288TIP3    H234060   4.571   6.330   0.473  1.4694 -1.3209  2.9891
 3289TIP3   OH234061   4.465   3.678   8.620 -0.4279  0.3519 -0.3633
 3289TIP3    H134062   4.396   3.623   8.657 -0.1614  1.0644  1.2693
 3289TIP3    H234063   4.489   3.634   8.538  0.1222 -2.2807  1.0907
 3290TIP3   OH234064   6.401   2.146   0.676 -0.1331  0.0565 -0.0614
 3290TIP3    H134065   6.379   2.208   0.745  0.7256  1.3823 -0.9340
 3290TIP3    H234066   6.322   2.140   0.623 -0.3854  0.0158  0.3189
 3291TIP3   OH234067   0.099   6.977   2.373 -0.1598  0.7224  0.2738
 3291TIP3    H134068   0.162   6.972   2.445  0.0028  2.0343  0.2441
 3291TIP3    H234069   0.138   7.038   2.310  0.6154 -1.8055 -1.8998
 3292TIP3   OH234070   4.437   1.319   0.568  0.1567 -0.0705  0.0851
 3292TIP3    H134071   4.489   1.358   0.498  1.6804 -0.0093  1.1916
 3292TIP3    H234072   4.466   1.364   0.647  0.2548 -1.8002  1.0775
 3293TIP3   OH234073   2.408   1.305   1.747  0.2826  0.6160 -0.3682
 3293TIP3    H134074   2.354   1.245   1.695 -0.5551  1.2015 -0.2036
 3293TIP3    H234075   2.354   1.324   1.824  0.4654  1.6909 -0.4907
 3294TIP3   OH234076   3.514   0.539   7.748  0.0918 -0.0265 -0.7826
 3294TIP3    H134077   3.519   0.630   7.777  0.0245 -0.3765  0.4062
 3294TIP3    H234078   3.420   0.522   7.737 -0.3852 -1.1205  3.2245
 3295TIP3   OH234079   0.604   4.661   7.485  0.5271 -0.3198 -0.3179
 3295TIP3    H134080   0.586   4.697   7.397 -2.8047  0.2805  0.4552
 3295TIP3    H234081   0.682   4.708   7.514  0.4806  1.0402 -2.1521
 3296TIP3   OH234082   0.846   4.711   2.314  0.1957 -0.1672  0.0965
 3296TIP3    H134083   0.753   4.718   2.295 -0.3466 -1.7687  1.8052
 3296TIP3    H234084   0.870   4.623   2.284  1.3429  0.4807 -0.9540
 3297TIP3   OH234085   2.011   4.412   1.256 -0.4095 -0.2910  0.2573
 3297TIP3    H134086   2.028   4.401   1.162 -1.5297 -0.6305  0.0778
 3297TIP3    H234087   1.937   4.354   1.273 -1.5321  1.2716  0.9257
 3298TIP3   OH234088   1.402   2.904   7.800  0.2930 -0.0512  0.3577
 3298TIP3    H134089   1.349   2.840   7.846  0.7410 -0.3757  0.4290
 3298TIP3    H234090   1.339   2.963   7.760 -0.1266 -0.5511  0.2704
 3299TIP3   OH234091   0.903   3.937   9.736  0.4986 -0.0991  0.0025
 3299TIP3    H134092   0.869   3.848   9.737 -0.4958  0.2721  0.9093
 3299TIP3    H234093   0.873   3.973   9.652  0.6844 -0.5228 -0.2495
 3300TIP3   OH234094   5.059   3.377   9.139 -0.2674 -0.1670  0.0244
 3300TIP3    H134095   5.048   3.283   9.125  1.9012 -0.3594 -0.9065
 3300TIP3    H234096   5.097   3.384   9.227  0.0795 -0.2227 -0.1184
 3301TIP3   OH234097   5.973   0.258   2.419  0.0553 -0.1521  0.2700
 3301TIP3    H134098   6.056   0.291   2.454  0.9797  0.0172 -1.9467
 3301TIP3    H234099   5.971   0.166   2.448 -0.4840  0.5890  2.8507
 3302TIP3   OH234100   1.273   5.133   7.821 -0.0647 -0.1396 -0.5903
 3302TIP3    H134101   1.334   5.199   7.788 -1.4901  1.7572  0.3756
 3302TIP3    H234102   1.221   5.108   7.745  0.9814 -0.7656 -1.1260
 3303TIP3   OH234103   3.624   0.146   7.076  0.1575  0.0688  0.2128
 3303TIP3    H134104   3.576   0.192   7.008  1.6635 -1.2736 -1.8818
 3303TIP3    H234105   3.663   0.071   7.032  0.5182 -1.3828  2.7537
 3304TIP3   OH234106   2.197   4.112   9.583  0.1776  0.5390 -0.6143
 3304TIP3    H134107   2.142   4.107   9.661  0.0500  1.5446 -0.6266
 3304TIP3    H234108   2.182   4.029   9.538 -0.1901  0.1887  0.1300
 3305TIP3   OH234109   0.994   4.869   1.029 -0.0683  0.6433  0.2895
 3305TIP3    H134110   1.066   4.830   1.077 -1.2165 -2.8953 -0.6154
 3305TIP3    H234111   1.036   4.915   0.956  1.3262 -0.9246  0.0578
 3306TIP3   OH234112   5.384   7.359   1.639  0.0668 -0.2069  0.1050
 3306TIP3    H134113   5.387   7.387   1.548 -0.9660 -2.4870 -0.6982
 3306TIP3    H234114   5.341   7.432   1.685  2.0183  1.6699 -0.8623
 3307TIP3   OH234115   4.779   3.296   7.899 -0.2089 -0.0524  0.0177
 3307TIP3    H134116   4.782   3.209   7.859  0.1864 -0.0961  0.1406
 3307TIP3    H234117   4.760   3.280   7.992  1.2074 -0.0960  0.3171
 3308TIP3   OH234118   0.312   4.037   8.520  0.1760  0.0563  0.3908
 3308TIP3    H134119   0.324   3.949   8.557 -0.0746 -0.5597 -0.9279
 3308TIP3    H234120   0.325   4.025   8.426  2.0378  1.8043  0.3577
 3309TIP3   OH234121   2.986   1.782   7.129 -0.9936  0.0983 -0.0104
 3309TIP3    H134122   3.068   1.738   7.107 -1.0162  0.2449 -0.3800
 3309TIP3    H234123   2.960   1.743   7.213 -0.8031 -0.3015 -0.1361
 3310TIP3   OH234124   0.514   2.449   1.284 -0.2216  0.1787  0.5250
 3310TIP3    H134125   0.492   2.390   1.356 -1.1104 -0.3209 -0.1333
 3310TIP3    H234126   0.559   2.522   1.326 -0.3176 -0.3133  1.5245
 3311TIP3   OH234127   2.477   3.265   7.775  0.5740  0.2613  0.1955
 3311TIP3    H134128   2.515   3.188   7.817  1.3461  0.0622 -0.8401
 3311TIP3    H234129   2.550   3.306   7.729  0.2105  1.7164  0.8479
 3312TIP3   OH234130   3.683   6.916   7.780 -0.3478  0.5744  0.1400
 3312TIP3    H134131   3.594   6.925   7.815  0.3712  0.9400  1.9651
 3312TIP3    H234132   3.739   6.911   7.857  0.9688 -2.9180 -0.8619
 3313TIP3   OH234133   0.337   0.788   9.986  0.4036  0.1061  0.1696
 3313TIP3    H134134   0.365   0.877  10.009 -0.8740  0.2570  1.2690
 3313TIP3    H234135   0.291   0.798   9.903 -0.3287  0.6196  0.6154
 3314TIP3   OH234136   7.209   7.344   0.171 -0.0796 -0.0834 -0.2370
 3314TIP3    H134137   7.171   7.408   0.232 -0.1149  1.0674 -1.4083
 3314TIP3    H234138   7.250   7.279   0.227 -2.9948 -0.9321  1.0904
 3315TIP3   OH234139   6.957   5.488   8.729  0.1697 -0.3745  0.0432
 3315TIP3    H134140   6.886   5.452   8.783 -1.2920  1.1014 -0.8099
 3315TIP3    H234141   7.036   5.469   8.779 -0.7528 -2.3629  0.8842
 3316TIP3   OH234142   2.397   3.592   0.548  0.1950 -0.0876  0.0486
 3316TIP3    H134143   2.453   3.556   0.616 -0.7414 -1.2775  0.2372
 3316TIP3    H234144   2.450   3.588   0.468  0.4013 -1.1978  0.2211
 3317TIP3   OH234145   1.216   4.542  -0.021 -0.4862  0.0593  0.4087
 3317TIP3    H134146   1.304   4.549   0.017 -1.2893 -0.0494  2.3866
 3317TIP3    H234147   1.178   4.628  -0.010  0.5352  1.2773 -3.7838
 3318TIP3   OH234148   1.976   2.605   1.294  0.4688  0.7867 -0.0860
 3318TIP3    H134149   1.963   2.521   1.338  0.8108  0.9379  0.3091
 3318TIP3    H234150   1.907   2.661   1.330  1.7240  1.3894  1.5035
 3319TIP3   OH234151   1.046   2.295   1.874  0.1776 -0.3956  0.3708
 3319TIP3    H134152   1.053   2.245   1.955 -0.3991 -0.2930  0.4886
 3319TIP3    H234153   1.135   2.327   1.857  0.7007 -2.0189 -0.0719
 3320TIP3   OH234154   2.303   3.915   9.047  0.2099 -0.3253 -0.0871
 3320TIP3    H134155   2.269   3.951   8.965 -0.2989  0.5097  0.4790
 3320TIP3    H234156   2.224   3.898   9.099  0.4733 -1.7455 -0.1246
 3321TIP3   OH234157   5.485   0.812   1.719  0.3589  0.0135  0.5187
 3321TIP3    H134158   5.509   0.904   1.729 -3.3160  1.2315 -0.2150
 3321TIP3    H234159   5.439   0.789   1.800  1.7447 -1.4516  0.9551
 3322TIP3   OH234160   1.538   2.523   2.296  0.1095 -0.4305  0.0707
 3322TIP3    H134161   1.599   2.508   2.368  0.8413  0.4435 -0.3381
 3322TIP3    H234162   1.556   2.613   2.268 -0.3603 -0.6560 -1.0095
 3323TIP3   OH234163   0.970   0.164   1.205 -0.3011 -0.2300 -0.2636
 3323TIP3    H134164   1.011   0.250   1.212 -0.6428 -0.0429 -0.4840
 3323TIP3    H234165   0.900   0.177   1.140 -2.3374  0.0983  1.8600
 3324TIP3   OH234166   1.901   5.422   1.791  0.3428 -0.0712  0.0827
 3324TIP3    H134167   1.967   5.390   1.852  0.1580 -0.3736  0.1259
 3324TIP3    H234168   1.831   5.356   1.794  1.2303 -1.2068 -1.9981
 3325TIP3   OH234169   4.141   6.646   0.885 -0.3533 -0.1029 -0.2114
 3325TIP3    H134170   4.182   6.705   0.822 -1.2672 -1.0641 -1.7601
 3325TIP3    H234171   4.215   6.613   0.937  0.3069  1.4396 -0.1046
 3326TIP3   OH234172   2.790   2.745   9.161 -0.0568  0.5753 -0.0774
 3326TIP3    H134173   2.750   2.722   9.244  0.6401  0.0500  0.1176
 3326TIP3    H234174   2.762   2.836   9.145  0.9610  1.1810  1.4188
 3327TIP3   OH234175   7.068   0.306   2.028  0.1530 -0.2923  0.2311
 3327TIP3    H134176   7.038   0.288   2.118 -1.7744  0.3965 -0.2255
 3327TIP3    H234177   7.147   0.358   2.040 -1.3288  1.8534  1.6322
 3328TIP3   OH234178   2.646   4.077   9.634 -0.5119 -0.3183 -0.3273
 3328TIP3    H134179   2.634   4.120   9.549 -1.7138 -0.1750 -0.0946
 3328TIP3    H234180   2.560   4.041   9.655 -0.4318  0.2999  1.1846
 3329TIP3   OH234181   2.958   1.959   8.852 -0.0472  0.3970 -0.1129
 3329TIP3    H134182   2.914   2.041   8.831 -1.2810 -0.6660 -1.9216
 3329TIP3    H234183   3.021   1.947   8.781 -0.3937 -0.5718 -0.2629
 3330TIP3   OH234184   3.859   3.512   0.082  0.0995 -0.2501  0.0371
 3330TIP3    H134185   3.851   3.470   0.168  0.8061 -0.3199  0.0730
 3330TIP3    H234186   3.768   3.518   0.050 -0.1174 -0.7602  0.5277
 3331TIP3   OH234187   6.802   3.183   0.976  0.2873 -0.8848 -0.0213
 3331TIP3    H134188   6.816   3.109   0.917  0.0047  0.7211 -2.2571
 3331TIP3    H234189   6.887   3.229   0.977 -0.3040  0.3087 -1.0441
 3332TIP3   OH234190   1.148   3.406   7.349  0.1582 -0.5192 -0.1016
 3332TIP3    H134191   1.193   3.365   7.276 -0.2152  0.0553 -0.6629
 3332TIP3    H234192   1.102   3.481   7.311  1.4621  0.9230  1.0101
 3333TIP3   OH234193   4.464   6.794   8.632  0.3526 -0.5773  0.0249
 3333TIP3    H134194   4.510   6.878   8.621  0.8848 -1.0051 -1.1675
 3333TIP3    H234195   4.409   6.807   8.710 -1.1120  1.5824 -1.2710
 3334TIP3   OH234196   4.237   2.333   8.752 -0.2444  0.4132 -0.1671
 3334TIP3    H134197   4.296   2.268   8.715 -1.4662 -0.7048 -0.2395
 3334TIP3    H234198   4.222   2.304   8.842  0.3293  1.4206  0.2685
 3335TIP3   OH234199   4.315   7.089   9.466 -0.3413  0.5221 -0.4668
 3335TIP3    H134200   4.329   7.140   9.546  1.5649  1.3834 -1.2954
 3335TIP3    H234201   4.382   7.021   9.470 -0.6246  0.2028 -1.0485
 3336TIP3   OH234202   5.526   2.915   0.587 -0.4049 -0.1351 -0.9478
 3336TIP3    H134203   5.485   2.856   0.650 -0.3459  0.6363 -0.1797
 3336TIP3    H234204   5.606   2.870   0.561  0.0159 -0.0683  0.1897
 3337TIP3   OH234205   5.985   4.254   8.469 -0.3332  0.2016 -0.1228
 3337TIP3    H134206   6.019   4.339   8.496 -0.5258 -0.1304  1.2633
 3337TIP3    H234207   6.042   4.190   8.513 -0.9140 -0.3781 -0.1887
 3338TIP3   OH234208   4.261   3.311   9.682 -0.1804 -0.1776 -0.0632
 3338TIP3    H134209   4.244   3.404   9.700  0.7763  0.3197 -1.6214
 3338TIP3    H234210   4.183   3.266   9.715  0.0610  0.9716  2.2691
 3339TIP3   OH234211   5.724   6.370   0.791 -0.4325  0.2832 -0.2021
 3339TIP3    H134212   5.743   6.459   0.762 -2.0468 -0.1729 -2.9709
 3339TIP3    H234213   5.629   6.367   0.798 -0.3184 -0.8702  1.2542
 3340TIP3   OH234214   5.897   2.332   0.946 -0.4342  0.3923  0.1580
 3340TIP3    H134215   5.806   2.357   0.955 -0.4414  0.2822  0.3882
 3340TIP3    H234216   5.928   2.379   0.868 -0.7906  0.1276 -0.1443
 3341TIP3   OH234217   1.443   2.545   8.381 -0.1435 -0.0363 -0.5763
 3341TIP3    H134218   1.355   2.518   8.355  0.2058 -2.2388  0.2725
 3341TIP3    H234219   1.488   2.463   8.402  2.3623  0.9599 -1.6526
 3342TIP3   OH234220   6.310   2.049   1.682 -0.9330  0.4458 -0.1852
 3342TIP3    H134221   6.309   2.133   1.728  0.5819 -0.2374  1.1957
 3342TIP3    H234222   6.354   2.067   1.599 -1.1562  1.1239 -0.1616
 3343TIP3   OH234223   7.089   0.674   2.168  0.5296  0.7602 -0.3935
 3343TIP3    H134224   7.180   0.701   2.178  1.5614 -2.2159 -0.7161
 3343TIP3    H234225   7.077   0.606   2.234 -1.2154  0.5477 -0.8787
 3344TIP3   OH234226   1.017   2.816   0.352 -0.2403  0.0802  0.2074
 3344TIP3    H134227   1.081   2.810   0.281 -0.1718  0.9295  0.1773
 3344TIP3    H234228   1.071   2.818   0.432 -0.3347 -1.3164  0.3306
 3345TIP3   OH234229   6.723   2.251   8.672  0.1076  0.1231 -0.1462
 3345TIP3    H134230   6.650   2.304   8.704  0.8821 -0.7262  3.4029
 3345TIP3    H234231   6.681   2.183   8.619 -1.5698  0.2717  0.9139
 3346TIP3   OH234232   0.137   4.024   9.019  0.1041 -0.1269  0.3932
 3346TIP3    H134233   0.215   4.074   9.043  0.1357 -0.5997  1.3332
 3346TIP3    H234234   0.139   4.021   8.923  1.0807  0.1075  0.3939
 3347TIP3   OH234235   3.045   0.696   1.686  0.2593 -0.1121  0.2860
 3347TIP3    H134236   3.017   0.676   1.596  0.9916 -1.3378  0.2944
 3347TIP3    H234237   3.083   0.783   1.681  2.0594 -0.8985 -1.0562
 3348TIP3   OH234238   2.173   6.701   1.645 -0.0188 -0.5687  0.4698
 3348TIP3    H134239   2.129   6.714   1.729  1.0802  0.5783  0.9039
 3348TIP3    H234240   2.141   6.617   1.614 -0.3996 -1.0555  2.0698
 3349TIP3   OH234241   0.604   6.295   7.959  0.1557  0.5489  0.5066
 3349TIP3    H134242   0.525   6.261   7.918 -0.2064  1.1163  0.7382
 3349TIP3    H234243   0.575   6.331   8.043  0.9141 -0.7688  1.3750
 3350TIP3   OH234244   3.477   0.110   0.990  0.3608  0.2160  0.3796
 3350TIP3    H134245   3.475   0.151   0.904 -0.2228  3.3063  1.7343
 3350TIP3    H234246   3.416   0.161   1.043  1.4800 -0.8868  2.9145
 3351TIP3   OH234247   6.774   4.508   1.308 -0.1449  0.7106  0.5001
 3351TIP3    H134248   6.823   4.442   1.259 -0.6770 -0.2139  1.1677
 3351TIP3    H234249   6.769   4.583   1.249 -2.9991 -1.2245 -2.0614
 3352TIP3   OH234250   3.689   7.340   7.401  0.2365  0.1178  0.1948
 3352TIP3    H134251   3.597   7.319   7.384 -0.2353  1.2065  1.2717
 3352TIP3    H234252   3.689   7.378   7.489  1.6993  0.2923  0.1382
 3353TIP3   OH234253   1.109   4.808   1.940 -0.0529  0.1035 -0.2776
 3353TIP3    H134254   1.196   4.846   1.935  0.4359  0.0811  4.1573
 3353TIP3    H234255   1.122   4.715   1.919  1.6664 -0.4833  2.8037
 3354TIP3   OH234256   7.231   5.522   6.933  0.0001  0.0019  0.4288
 3354TIP3    H134257   7.257   5.516   7.025  0.4628  0.8475  0.3573
 3354TIP3    H234258   7.305   5.486   6.885 -0.0186  0.0559  0.3599
 3355TIP3   OH234259   0.613   5.393   9.437  0.6437 -0.2266 -0.1724
 3355TIP3    H134260   0.700   5.371   9.405  0.8032  0.1801 -0.0202
 3355TIP3    H234261   0.598   5.483   9.407  0.0278 -0.4971 -0.7226
 3356TIP3   OH234262   6.229   2.217   7.265 -0.3835  0.1154  0.1546
 3356TIP3    H134263   6.196   2.302   7.293 -1.1902 -0.1316 -0.0256
 3356TIP3    H234264   6.184   2.199   7.183  1.5556  0.5842 -1.0940
 3357TIP3   OH234265   1.230   0.527   7.953 -0.4722 -0.0774  0.4803
 3357TIP3    H134266   1.169   0.544   7.882  0.2825  0.6796 -0.0026
 3357TIP3    H234267   1.212   0.436   7.979 -1.7279  0.1051  0.2974
 3358TIP3   OH234268   5.233   0.486   0.398 -0.4781 -0.0217  0.0045
 3358TIP3    H134269   5.206   0.398   0.372  3.6938 -1.0768 -1.6240
 3358TIP3    H234270   5.202   0.543   0.327  0.6226 -0.9812 -1.2974
 3359TIP3   OH234271   6.639   2.760   7.478  0.4975 -0.4623  0.1014
 3359TIP3    H134272   6.716   2.712   7.446  1.9531  1.1572  1.0132
 3359TIP3    H234273   6.642   2.749   7.573  1.3099  1.9851  0.4149
 3360TIP3   OH234274   1.761   6.885   2.697  0.7168  0.2189 -0.0240
 3360TIP3    H134275   1.733   6.834   2.773  1.0549 -0.3574 -0.2773
 3360TIP3    H234276   1.746   6.976   2.721  0.5895  0.0218  0.6375
 3361TIP3   OH234277   0.111   2.344   1.750  0.1875 -0.1174 -0.2231
 3361TIP3    H134278   0.160   2.376   1.826  0.4542 -1.1369  0.0539
 3361TIP3    H234279   0.178   2.324   1.685 -0.0465  0.8292 -0.7767
 3362TIP3   OH234280   7.412   6.626   9.878 -0.5069  0.1800 -0.3393
 3362TIP3    H134281   7.475   6.694   9.857 -1.9551  2.8913  3.0906
 3362TIP3    H234282   7.463   6.557   9.920  0.4549  1.4659  0.6745
 3363TIP3   OH234283   0.081   2.954   1.578  0.2218 -0.3569 -0.0836
 3363TIP3    H134284   0.092   2.924   1.488  0.3136 -0.3547 -0.0736
 3363TIP3    H234285   0.059   2.875   1.628 -1.3114 -0.1239 -0.3590
 3364TIP3   OH234286   6.085   6.890   9.224 -0.1090 -0.1379 -0.4493
 3364TIP3    H134287   6.133   6.813   9.194  0.2467  0.4928 -1.5701
 3364TIP3    H234288   6.064   6.872   9.315 -0.2206 -1.6511 -0.7570
 3365TIP3   OH234289   5.192   4.187   0.306 -0.3765  0.0519  0.9805
 3365TIP3    H134290   5.181   4.215   0.216  0.7606  0.6946  1.0163
 3365TIP3    H234291   5.161   4.097   0.308 -0.2170 -0.0299 -0.0935
 3366TIP3   OH234292   2.133   2.232   2.575  0.4285 -0.6654  0.0553
 3366TIP3    H134293   2.117   2.213   2.483  0.2288 -2.1009  0.3486
 3366TIP3    H234294   2.210   2.179   2.597 -0.0216 -0.9943  0.8983
 3367TIP3   OH234295   0.191   4.377   1.764  0.3256 -0.2180 -0.1652
 3367TIP3    H134296   0.243   4.390   1.685  2.2587 -0.6033  0.9773
 3367TIP3    H234297   0.136   4.456   1.770 -0.1243 -0.3455 -2.0347
 3368TIP3   OH234298   0.385   0.429   8.518 -0.2543  0.5789  0.0944
 3368TIP3    H134299   0.317   0.486   8.481 -0.2984  0.1313 -0.5316
 3368TIP3    H234300   0.344   0.343   8.521  0.8922 -0.1122 -2.1152
 3369TIP3   OH234301   2.040   5.770   8.931 -0.3541 -0.5603  0.0429
 3369TIP3    H134302   1.963   5.737   8.977 -0.6953  1.2776  0.8836
 3369TIP3    H234303   2.021   5.862   8.914  1.1613 -0.3605 -0.8262
 3370TIP3   OH234304   5.248   2.741   9.237 -0.2263  0.3443 -0.3278
 3370TIP3    H134305   5.218   2.657   9.203 -1.0633  0.2778  0.5423
 3370TIP3    H234306   5.324   2.763   9.183 -0.0680 -0.9063 -0.6425
 3371TIP3   OH234307   1.917   3.243   0.445 -0.5725 -0.1923  0.2003
 3371TIP3    H134308   1.925   3.180   0.517  1.2985 -0.0002  0.1974
 3371TIP3    H234309   1.977   3.211   0.377 -1.2617  0.3904 -0.7188
 3372TIP3   OH234310   3.525   0.731   2.334  0.1238  0.2416  0.2140
 3372TIP3    H134311   3.595   0.787   2.301  1.0708 -0.5931  0.7645
 3372TIP3    H234312   3.511   0.760   2.424  1.6981 -1.3645  1.0333
 3373TIP3   OH234313   6.387   5.415   7.870  0.0104 -0.4574  0.2922
 3373TIP3    H134314   6.470   5.424   7.917 -0.5305 -0.7211  1.3367
 3373TIP3    H234315   6.400   5.340   7.812  1.2172  0.8225 -1.1974
 3374TIP3   OH234316   6.586   5.645   2.765 -0.8073 -0.0619  0.0428
 3374TIP3    H134317   6.667   5.695   2.750  0.9197 -2.3752  0.9532
 3374TIP3    H234318   6.534   5.659   2.686  0.2658  1.8890 -0.3758
 3375TIP3   OH234319   7.284   5.474   8.999 -0.3613 -0.2404  0.2613
 3375TIP3    H134320   7.200   5.428   8.998 -0.0978 -0.7748 -1.8164
 3375TIP3    H234321   7.260   5.567   8.997 -1.0746 -0.3312 -3.7708
 3376TIP3   OH234322   4.560   7.737   1.460  0.1178  0.2221 -0.1041
 3376TIP3    H134323   4.650   7.708   1.474  1.5366  2.8408 -2.7364
 3376TIP3    H234324   4.517   7.662   1.419  1.5379 -0.6012 -0.1437
 3377TIP3   OH234325   4.446   3.142   9.794  0.0949  0.1238 -0.4325
 3377TIP3    H134326   4.517   3.181   9.844  1.0041 -1.9115 -0.0152
 3377TIP3    H234327   4.384   3.213   9.780  1.6513  1.6727  0.2216
 3378TIP3   OH234328   7.168   4.313   0.150  0.0295  0.6932 -0.0049
 3378TIP3    H134329   7.156   4.388   0.092  0.9592 -0.6935 -2.1014
 3378TIP3    H234330   7.178   4.352   0.237 -0.0147  2.9586 -0.9457
 3379TIP3   OH234331   0.514   4.791   1.158 -0.3241 -0.2038  0.3933
 3379TIP3    H134332   0.609   4.796   1.148 -0.3231  0.2915  0.6158
 3379TIP3    H234333   0.481   4.782   1.069 -0.1329  0.8984  0.1898
 3380TIP3   OH234334   6.618   3.354   9.542 -0.2537 -0.1713  0.6309
 3380TIP3    H134335   6.602   3.300   9.619  1.6183  0.0898  1.2671
 3380TIP3    H234336   6.531   3.376   9.509 -1.1567  0.7476  3.3825
 3381TIP3   OH234337   5.172   6.581   2.471 -0.6248  0.1987  0.3945
 3381TIP3    H134338   5.151   6.511   2.409 -0.3371  0.4511  0.0146
 3381TIP3    H234339   5.110   6.651   2.450  0.0619  0.6388 -0.2142
 3382TIP3   OH234340   1.185   7.246   1.180  0.2608  0.6168 -0.9594
 3382TIP3    H134341   1.106   7.211   1.220  0.6383  0.0899 -0.6682
 3382TIP3    H234342   1.186   7.338   1.205  0.2113  0.4161 -0.2191
 3383TIP3   OH234343   6.037   3.532   7.389 -0.7011 -0.2993 -0.1066
 3383TIP3    H134344   5.997   3.547   7.475  0.9413 -0.1167  0.6698
 3383TIP3    H234345   5.971   3.482   7.340 -1.6522 -0.4632  1.2719
 3384TIP3   OH234346   1.470   2.603   9.588  0.0518  0.0650  0.1428
 3384TIP3    H134347   1.488   2.509   9.595 -1.1203 -0.1565  0.4723
 3384TIP3    H234348   1.382   2.613   9.626  1.0455  1.6276  2.1676
 3385TIP3   OH234349   4.398   7.629   8.622  0.0022 -0.3191  0.0583
 3385TIP3    H134350   4.384   7.607   8.714  1.8766 -1.7905  0.0652
 3385TIP3    H234351   4.357   7.558   8.574 -1.4328  0.7161 -0.3132
 3386TIP3   OH234352   3.458   7.132   7.776  0.3018 -0.0809 -0.2020
 3386TIP3    H134353   3.376   7.108   7.819 -0.8101  0.8235 -1.7118
 3386TIP3    H234354   3.499   7.194   7.836 -0.8588  0.5807 -0.0561
 3387TIP3   OH234355   0.919   1.870   7.167 -0.0579 -0.0671 -0.1685
 3387TIP3    H134356   0.987   1.935   7.151 -0.5347  0.2577 -0.9000
 3387TIP3    H234357   0.963   1.786   7.154 -0.3193  0.1500 -2.9798
 3388TIP3   OH234358   5.419   3.567   0.153  0.4275 -0.2076 -0.0858
 3388TIP3    H134359   5.514   3.580   0.143  0.0749  1.5060 -1.7481
 3388TIP3    H234360   5.396   3.619   0.230  1.0224 -1.8980  1.2987
 3389TIP3   OH234361   5.834   3.862   0.207 -0.4122  0.1488  0.3671
 3389TIP3    H134362   5.797   3.781   0.171  0.2091 -0.6019  1.3778
 3389TIP3    H234363   5.868   3.908   0.130 -1.9668  0.1177 -0.3946
 3390TIP3   OH234364   6.333   3.901   1.433  0.1632  0.3876  0.0120
 3390TIP3    H134365   6.282   3.975   1.400 -1.0115 -0.5271 -0.3140
 3390TIP3    H234366   6.307   3.828   1.376  0.7313 -0.4367  0.7908
 3391TIP3   OH234367   5.996   5.363   8.641 -0.0712  0.2840  0.0659
 3391TIP3    H134368   5.995   5.322   8.554  2.3427  0.0018  0.0989
 3391TIP3    H234369   5.905   5.358   8.671 -1.2239  1.4168 -2.8693
 3392TIP3   OH234370   6.055   0.193   9.471  0.5576 -0.5587 -0.2754
 3392TIP3    H134371   6.100   0.174   9.553 -0.1259 -1.2118 -0.0341
 3392TIP3    H234372   6.089   0.127   9.410 -0.1413 -1.1412 -0.0565
 3393TIP3   OH234373   7.520   4.311   0.911  0.1101 -1.2274 -0.7591
 3393TIP3    H134374   7.492   4.297   1.002 -0.7033 -1.7876 -1.0864
 3393TIP3    H234375   7.438   4.328   0.864  0.4329 -1.8870 -1.5638
 3394TIP3   OH234376   2.975   5.222   0.152  0.0713  0.0630  0.0744
 3394TIP3    H134377   2.880   5.216   0.141  0.2221 -1.2330 -0.7073
 3394TIP3    H234378   3.001   5.295   0.095 -0.6588  1.9534  1.9863
 3395TIP3   OH234379   2.377   3.239   8.679  0.2446  0.0933  0.1874
 3395TIP3    H134380   2.322   3.300   8.630  0.9748  0.0560 -0.7096
 3395TIP3    H234381   2.356   3.256   8.771  0.5610  1.8199 -0.0303
 3396TIP3   OH234382   0.584   5.634   9.279 -0.0741  0.1564 -0.2224
 3396TIP3    H134383   0.626   5.592   9.204 -0.1071  0.8791 -0.6572
 3396TIP3    H234384   0.515   5.688   9.240 -1.2816 -0.8254  0.4615
 3397TIP3   OH234385   7.758   0.119   8.282  0.3730  0.1717  0.3558
 3397TIP3    H134386   7.668   0.151   8.289  0.0299 -0.8478  0.7845
 3397TIP3    H234387   7.807   0.193   8.246 -0.6973  0.6245 -0.2071
 3398TIP3   OH234388   3.924   0.856   2.527 -0.3438 -0.4936  0.5179
 3398TIP3    H134389   3.926   0.855   2.623 -0.2454  1.8849  0.6095
 3398TIP3    H234390   3.996   0.799   2.501  0.6199  0.0305  1.9112
 3399TIP3   OH234391   1.763   5.547   2.487  0.1670  0.1359 -0.1739
 3399TIP3    H134392   1.793   5.622   2.539  0.1961 -0.5514  0.8338
 3399TIP3    H234393   1.668   5.546   2.499 -0.0401  1.0216 -1.5952
 3400TIP3   OH234394   2.777   7.224   8.816 -0.3383 -1.0510  0.0811
 3400TIP3    H134395   2.845   7.162   8.842  1.4464 -0.0251 -1.8431
 3400TIP3    H234396   2.810   7.309   8.846 -1.0979 -0.6267 -0.2724
 3401TIP3   OH234397   7.310   4.255   2.375 -0.1259 -0.3396  0.9304
 3401TIP3    H134398   7.341   4.205   2.451 -1.1123 -1.4999  0.5961
 3401TIP3    H234399   7.226   4.215   2.353 -0.6297  1.0544  0.2229
 3402TIP3   OH234400   5.745   4.224   7.441  0.0913  0.3785  0.6100
 3402TIP3    H134401   5.788   4.252   7.523  1.5284  1.2641 -0.3941
 3402TIP3    H234402   5.804   4.157   7.406 -0.1252  0.5455 -0.0690
 3403TIP3   OH234403   6.975   5.624   0.488  0.2635 -0.1963  0.4939
 3403TIP3    H134404   6.930   5.543   0.464  0.4902 -0.4533  0.9209
 3403TIP3    H234405   7.016   5.653   0.406  0.2070 -0.5328  0.3425
 3404TIP3   OH234406   3.278   3.621   0.171 -0.3407 -0.2904 -0.3361
 3404TIP3    H134407   3.368   3.598   0.196 -0.9072 -1.5967  0.5782
 3404TIP3    H234408   3.278   3.618   0.075  0.6967  0.2026 -0.3660
 3405TIP3   OH234409   4.390   6.633   0.540 -0.0640  0.7383 -0.2128
 3405TIP3    H134410   4.455   6.666   0.478  0.7294 -1.1282 -0.4379
 3405TIP3    H234411   4.307   6.633   0.492  0.6532 -1.3006 -1.5781
 3406TIP3   OH234412   6.740   5.395   8.873  0.4157  0.1010 -0.0423
 3406TIP3    H134413   6.754   5.304   8.898 -0.8195  0.1278  0.8410
 3406TIP3    H234414   6.655   5.395   8.829 -0.7012  1.1363  1.9711
 3407TIP3   OH234415   7.416   4.520   0.649 -0.4603  0.4084  0.6171
 3407TIP3    H134416   7.375   4.597   0.609 -1.2112 -0.6245 -0.6923
 3407TIP3    H234417   7.509   4.540   0.650 -0.3079  0.3033 -2.2654
 3408TIP3   OH234418   1.717   3.425   9.929  0.0573 -0.5127  0.4369
 3408TIP3    H134419   1.793   3.480   9.946  0.4864 -0.4483 -1.4425
 3408TIP3    H234420   1.742   3.338   9.960  0.5247 -0.2789  0.7122
 3409TIP3   OH234421   4.634   1.919   7.542 -0.0509  0.0787 -0.3350
 3409TIP3    H134422   4.584   1.844   7.508 -1.3852  0.8319 -0.0878
 3409TIP3    H234423   4.725   1.889   7.541 -0.5767 -1.6291 -0.0448
 3410TIP3   OH234424   1.493   6.717   7.943  0.4489  0.2624 -0.0629
 3410TIP3    H134425   1.533   6.752   8.023  2.2528  0.1609 -0.8917
 3410TIP3    H234426   1.399   6.715   7.963  0.9649 -1.5113  2.7581
 3411TIP3   OH234427   6.171   5.124   9.388  0.1713 -0.4747 -0.1292
 3411TIP3    H134428   6.209   5.201   9.430 -0.7959  0.3010 -0.6367
 3411TIP3    H234429   6.247   5.076   9.354  0.9530 -0.9548  2.1386
 3412TIP3   OH234430   3.210   5.906   8.015  0.7177 -0.0671  0.4896
 3412TIP3    H134431   3.160   5.915   8.096 -1.9331  1.2542 -1.1546
 3412TIP3    H234432   3.227   5.812   8.006 -0.0415 -0.3615  1.9354
 3413TIP3   OH234433   5.655   2.136   2.111 -0.0913  0.6003  0.2761
 3413TIP3    H134434   5.665   2.231   2.110 -0.2940  0.6264 -0.9153
 3413TIP3    H234435   5.578   2.120   2.167  0.9038  1.0031  1.8159
 3414TIP3   OH234436   4.857   0.292   9.273  0.1254 -0.0362  0.2516
 3414TIP3    H134437   4.849   0.282   9.178 -0.7018 -0.2270  0.3368
 3414TIP3    H234438   4.770   0.319   9.301  0.5252  0.6348  0.8856
 3415TIP3   OH234439   1.455   0.122   8.891 -0.1204 -0.2573  0.1864
 3415TIP3    H134440   1.423   0.150   8.977 -0.7965 -3.4521  1.1064
 3415TIP3    H234441   1.550   0.125   8.899 -0.1725  0.3927  0.6868
 3416TIP3   OH234442   4.819   6.876   7.867  0.2065 -0.3164  0.1319
 3416TIP3    H134443   4.737   6.889   7.820  0.7548 -1.3148 -1.1472
 3416TIP3    H234444   4.794   6.876   7.959 -1.3195 -1.2259 -0.2516
 3417TIP3   OH234445   1.372   6.643   9.760  0.4754 -0.4976 -0.5139
 3417TIP3    H134446   1.310   6.683   9.700  0.0166 -0.1558  0.1684
 3417TIP3    H234447   1.433   6.596   9.704 -1.9276 -3.1355 -1.1246
 3418TIP3   OH234448   3.703   7.177   2.131 -0.3141 -0.1953 -0.1909
 3418TIP3    H134449   3.678   7.152   2.221  0.0424 -0.0744 -0.0580
 3418TIP3    H234450   3.622   7.170   2.081 -0.3920 -0.8563  0.0130
 3419TIP3   OH234451   0.706   4.264   7.297 -0.1082  0.3002  0.4260
 3419TIP3    H134452   0.738   4.354   7.288 -0.4405  0.3753  0.0168
 3419TIP3    H234453   0.612   4.269   7.278  0.2830 -0.5252 -1.9774
 3420TIP3   OH234454   6.617   2.386   0.905  0.4148 -0.1998 -0.0115
 3420TIP3    H134455   6.533   2.430   0.887 -0.0963 -0.8527  0.7070
 3420TIP3    H234456   6.628   2.326   0.831 -0.3310 -0.9228  0.4398
 3421TIP3   OH234457   2.300   3.585   0.959  0.4036 -0.0974 -0.8059
 3421TIP3    H134458   2.219   3.535   0.944  0.5815 -1.4282  1.9526
 3421TIP3    H234459   2.365   3.541   0.904 -0.2511 -0.5750 -1.2181
 3422TIP3   OH234460   5.596   1.311   2.008 -0.7187  0.0417 -0.5494
 3422TIP3    H134461   5.651   1.274   1.939  1.1232 -0.2665  0.9886
 3422TIP3    H234462   5.537   1.371   1.963 -1.9288 -2.6444 -2.7810
 3423TIP3   OH234463   5.045   7.381   9.185 -0.2384 -0.3786  0.1439
 3423TIP3    H134464   5.123   7.389   9.131  0.1712 -1.2343  0.5951
 3423TIP3    H234465   4.980   7.436   9.140  0.1923 -0.7800 -1.0157
 3424TIP3   OH234466   5.740   7.678   7.578  0.4689  0.2851 -0.2648
 3424TIP3    H134467   5.760   7.671   7.485 -0.4878  1.3245 -0.5640
 3424TIP3    H234468   5.659   7.630   7.590 -0.1950  1.3755 -0.2606
 3425TIP3   OH234469   2.918   0.855   7.696  0.3805 -0.1652 -0.0159
 3425TIP3    H134470   2.924   0.762   7.674 -2.7106 -0.3159 -0.6423
 3425TIP3    H234471   2.847   0.888   7.641  1.9890  2.8404 -0.5072
 3426TIP3   OH234472   2.591   1.723   8.723 -0.1098 -0.4011  0.4690
 3426TIP3    H134473   2.568   1.631   8.709  0.2275 -0.4258  0.0512
 3426TIP3    H234474   2.638   1.748   8.644  0.4411 -0.0758  0.8906
 3427TIP3   OH234475   2.309   2.196   8.157  0.4957 -0.0728 -0.0900
 3427TIP3    H134476   2.391   2.152   8.182  1.4018  0.6504 -1.6109
 3427TIP3    H234477   2.338   2.274   8.110 -1.0902  1.0013  0.6472
 3428TIP3   OH234478   2.783   1.585   0.336  0.8936  0.2193 -0.0294
 3428TIP3    H134479   2.844   1.603   0.407 -0.6069  1.0531  1.1193
 3428TIP3    H234480   2.830   1.525   0.278  1.9338 -1.0441  2.0064
 3429TIP3   OH234481   1.772   3.562   1.337 -0.0074  0.7296  0.8749
 3429TIP3    H134482   1.825   3.584   1.260 -0.4125  0.4145  0.5029
 3429TIP3    H234483   1.774   3.466   1.340 -0.8254  0.7047  0.6638
 3430TIP3   OH234484   0.279   3.576   0.341  0.3745 -0.7588 -0.0907
 3430TIP3    H134485   0.203   3.525   0.313  1.0661 -1.7420 -0.2175
 3430TIP3    H234486   0.333   3.513   0.390  0.4877  0.2415  1.1190
 3431TIP3   OH234487   1.614   0.379   2.390 -0.0436  0.1584 -0.1151
 3431TIP3    H134488   1.616   0.286   2.411  2.7374 -0.2394 -1.6559
 3431TIP3    H234489   1.565   0.384   2.308  0.7157 -0.1280 -0.5981
 3432TIP3   OH234490   1.758   0.103   8.492 -0.5512  0.8051  0.1865
 3432TIP3    H134491   1.782   0.017   8.460 -0.9343  1.5722 -2.3879
 3432TIP3    H234492   1.821   0.122   8.561 -1.0561 -1.8742  1.4773
 3433TIP3   OH234493   2.357   4.233   7.426  0.1055  0.4273  0.4382
 3433TIP3    H134494   2.344   4.156   7.371  3.1510 -0.6538  1.0671
 3433TIP3    H234495   2.413   4.291   7.373 -1.9197  2.1904  0.0776
 3434TIP3   OH234496   4.929   1.408   1.647 -0.0148  0.3024 -0.3410
 3434TIP3    H134497   4.941   1.366   1.732 -1.1061 -1.1941 -0.8576
 3434TIP3    H234498   4.981   1.355   1.587 -1.0796 -0.1038 -0.9431
 3435TIP3   OH234499   6.103   5.086   0.610 -0.2286 -0.0943  0.5861
 3435TIP3    H134500   6.144   5.132   0.683  1.2789 -0.0259 -0.2689
 3435TIP3    H234501   6.121   5.140   0.533 -1.6026 -0.2695  0.0991
 3436TIP3   OH234502   2.022   1.979   8.567  0.6418 -0.8695 -0.0414
 3436TIP3    H134503   1.970   1.900   8.555 -1.1506  0.1938  0.2854
 3436TIP3    H234504   1.985   2.021   8.645  1.4779  0.3218 -0.2570
 3437TIP3   OH234505   6.777   1.518   1.236 -0.2108  0.1015  0.6819
 3437TIP3    H134506   6.833   1.594   1.248  0.3196  0.0141 -0.9627
 3437TIP3    H234507   6.708   1.547   1.176  0.5952 -0.9504 -0.8289
 3438TIP3   OH234508   0.741   3.881   8.800 -0.0826 -0.1112  0.1914
 3438TIP3    H134509   0.734   3.937   8.722 -0.4247  1.0034  0.9971
 3438TIP3    H234510   0.755   3.793   8.765  1.7484  0.6332 -1.0869
 3439TIP3   OH234511   0.820   1.721   1.980 -0.5298  0.3459 -0.0186
 3439TIP3    H134512   0.872   1.798   1.956 -1.6968  0.8436 -1.0938
 3439TIP3    H234513   0.773   1.698   1.900 -2.9085  0.6975  1.1872
 3440TIP3   OH234514   1.070   1.744   2.803  0.7337 -0.3764  0.2355
 3440TIP3    H134515   1.134   1.729   2.733 -2.1376 -0.2720 -2.6229
 3440TIP3    H234516   1.025   1.661   2.814 -1.0895  0.4582 -0.5204
 3441TIP3   OH234517   5.606   2.675   2.533 -0.6113 -0.0951 -0.3343
 3441TIP3    H134518   5.634   2.722   2.611 -1.9247  0.2896 -0.0692
 3441TIP3    H234519   5.686   2.636   2.499  0.1218  0.4115  0.7380
 3442TIP3   OH234520   3.631   6.185   0.402 -0.1113  0.0508  0.3287
 3442TIP3    H134521   3.632   6.108   0.458  2.5496 -1.1936 -1.2486
 3442TIP3    H234522   3.631   6.259   0.463 -0.9005 -1.1637  1.8796
 3443TIP3   OH234523   2.191   3.983   7.476 -0.1965 -0.3652 -0.4005
 3443TIP3    H134524   2.188   3.916   7.544 -1.5118  1.2819  1.2814
 3443TIP3    H234525   2.162   3.938   7.397  0.4577 -2.1264  0.3099
 3444TIP3   OH234526   2.323   1.837   1.841  0.1681 -0.1373 -0.6663
 3444TIP3    H134527   2.360   1.760   1.797 -2.6495 -0.9782 -1.8179
 3444TIP3    H234528   2.252   1.802   1.895  0.8220  1.3806  1.3032
 3445TIP3   OH234529   1.746   2.095   2.404 -0.3041  0.9985  0.2321
 3445TIP3    H134530   1.778   2.131   2.487  0.6003  1.2616 -0.2230
 3445TIP3    H234531   1.651   2.112   2.406 -0.4233  0.3411  1.5314
 3446TIP3   OH234532   5.302   6.016   8.595 -0.4111 -0.1856 -0.0782
 3446TIP3    H134533   5.329   6.094   8.546 -0.2975  1.1379  1.9589
 3446TIP3    H234534   5.366   5.949   8.573  0.2817  0.7118 -0.8476
 3447TIP3   OH234535   6.606   2.185   7.647 -0.3368  0.0610 -0.0829
 3447TIP3    H134536   6.634   2.277   7.650  0.7169 -0.2671  0.5109
 3447TIP3    H234537   6.656   2.142   7.716  0.1404 -1.2193 -1.1688
 3448TIP3   OH234538   6.601   4.101   9.698  0.4297  0.0749  0.2009
 3448TIP3    H134539   6.671   4.039   9.679 -0.8018 -1.7507  1.2401
 3448TIP3    H234540   6.546   4.101   9.620  1.7131  1.8175 -0.7768
 3449TIP3   OH234541   4.515   7.562   6.981  0.0463  0.7114 -0.2514
 3449TIP3    H134542   4.582   7.509   6.938  1.3270  1.3601  0.8735
 3449TIP3    H234543   4.518   7.647   6.937 -2.4653 -0.2140 -2.5102
 3450TIP3   OH234544   2.341   3.795   1.634 -0.2584 -0.3399 -0.4837
 3450TIP3    H134545   2.304   3.812   1.547 -2.2072  0.0635  0.3861
 3450TIP3    H234546   2.426   3.839   1.633 -0.7364  0.6199 -1.8023
 3451TIP3   OH234547   2.603   6.204   1.487  0.3679 -0.2609 -0.3116
 3451TIP3    H134548   2.610   6.183   1.394 -0.4401 -0.5082 -0.3233
 3451TIP3    H234549   2.544   6.137   1.522  0.0198  0.3101  0.2092
 3452TIP3   OH234550   7.332   7.011   9.296  0.7155  0.4029  0.2879
 3452TIP3    H134551   7.421   6.980   9.312  0.1578 -1.1175  0.6330
 3452TIP3    H234552   7.344   7.095   9.253  2.3672 -0.9297 -2.0866
 3453TIP3   OH234553   4.606   6.344   6.772  0.0290 -0.4630 -0.2471
 3453TIP3    H134554   4.571   6.337   6.684  1.6703 -1.3844 -0.8687
 3453TIP3    H234555   4.619   6.438   6.785 -1.5117 -0.1921 -0.4103
 3454TIP3   OH234556   6.348   6.419   2.713  0.5788  0.1139  0.2048
 3454TIP3    H134557   6.422   6.383   2.763  0.1305 -0.9147  0.1425
 3454TIP3    H234558   6.272   6.371   2.744  0.0672  0.5179 -0.4000
 3455TIP3   OH234559   5.334   1.455   9.091 -0.0304 -0.5130  0.1087
 3455TIP3    H134560   5.407   1.400   9.062 -0.8624 -0.8304 -1.4939
 3455TIP3    H234561   5.310   1.419   9.177 -0.0993 -2.2189 -0.5907
 3456TIP3   OH234562   2.500   1.186   0.818 -0.5593 -0.0294 -0.6275
 3456TIP3    H134563   2.509   1.138   0.736 -1.6404  0.8027 -1.2590
 3456TIP3    H234564   2.465   1.122   0.880 -3.3609  0.1874 -1.8242
 3457TIP3   OH234565   1.734   0.778   1.606  0.6929 -0.5489  0.7215
 3457TIP3    H134566   1.811   0.826   1.578  0.4519 -0.4479  0.2189
 3457TIP3    H234567   1.702   0.735   1.527  0.4918 -0.9518  1.0169
 3458TIP3   OH234568   7.019   0.305   1.125 -0.6047 -0.0435  0.1978
 3458TIP3    H134569   7.064   0.328   1.207 -0.1456  0.6360 -0.2362
 3458TIP3    H234570   6.988   0.216   1.140  0.6308 -0.4285  0.6299
 3459TIP3   OH234571   4.502   1.343   3.052 -0.1577  0.4623 -0.1537
 3459TIP3    H134572   4.527   1.289   3.127  1.4641  0.7258 -0.4747
 3459TIP3    H234573   4.485   1.280   2.982  0.8359  0.3105 -0.2721
 3460TIP3   OH234574   4.979   0.097   1.605  0.0672 -0.0868 -0.0648
 3460TIP3    H134575   4.911   0.153   1.643 -1.2905 -1.5395 -0.2447
 3460TIP3    H234576   4.931   0.023   1.568  1.8073 -1.5107  0.4010
 3461TIP3   OH234577   5.562   2.928   1.449  0.0450 -0.5838 -0.0662
 3461TIP3    H134578   5.600   2.918   1.361  0.2920 -2.9371  0.2608
 3461TIP3    H234579   5.501   3.001   1.439 -1.6543 -2.1811 -2.8496
 3462TIP3   OH234580   1.673   2.839   7.714  0.3673  0.1893  0.4234
 3462TIP3    H134581   1.588   2.865   7.748 -0.1161  1.8196 -1.8433
 3462TIP3    H234582   1.692   2.756   7.757 -2.3834 -0.2515  0.9201
 3463TIP3   OH234583  -0.003   0.914   2.751 -0.5377 -0.3370  0.4995
 3463TIP3    H134584   0.061   0.867   2.804 -0.5379 -2.2227 -1.0478
 3463TIP3    H234585   0.038   0.998   2.732  0.7914 -0.8727  0.8759
 3464TIP3   OH234586   1.095   7.280   7.895  0.4154 -0.0865 -0.6297
 3464TIP3    H134587   1.004   7.307   7.876 -0.4756 -1.1648  1.7835
 3464TIP3    H234588   1.142   7.362   7.907 -0.3809  0.4827 -1.2672
 3465TIP3   OH234589   1.658   5.773   7.558  0.4878 -0.5315  0.1912
 3465TIP3    H134590   1.745   5.794   7.590  0.8206  0.0829 -1.0634
 3465TIP3    H234591   1.670   5.751   7.465 -0.5831 -1.1947  0.1858
 3466TIP3   OH234592   3.039   2.394   0.064 -0.1196  0.8802  0.1933
 3466TIP3    H134593   3.122   2.418   0.107 -0.3176 -1.1476  1.8838
 3466TIP3    H234594   3.018   2.469   0.009  3.1386  1.2391 -0.7629
 3467TIP3   OH234595   0.671   1.822   6.959  0.1518 -0.6046  0.1085
 3467TIP3    H134596   0.757   1.862   6.966 -0.2901  0.2233  0.9888
 3467TIP3    H234597   0.686   1.728   6.973  0.8018 -0.3657  1.0522
 3468TIP3   OH234598   3.026   6.338   1.289 -0.9988  0.3780 -0.1214
 3468TIP3    H134599   3.073   6.346   1.372  0.0804 -1.9905 -0.4109
 3468TIP3    H234600   3.093   6.306   1.227 -2.0680  0.8852 -1.5872
 3469TIP3   OH234601   7.344   1.223   2.088 -0.6240  0.2333 -0.1017
 3469TIP3    H134602   7.415   1.243   2.149 -1.4266  1.8234  0.3830
 3469TIP3    H234603   7.353   1.288   2.018 -0.6773 -0.5496 -0.8479
 3470TIP3   OH234604   6.965   1.087   0.843 -0.4666  0.1668  0.0341
 3470TIP3    H134605   6.923   1.162   0.884  0.0060  0.9464 -0.8695
 3470TIP3    H234606   6.905   1.014   0.858 -0.5727  0.5360  1.5930
 3471TIP3   OH234607   4.744   4.067   9.700  0.4223 -0.5682  0.3268
 3471TIP3    H134608   4.654   4.078   9.731  0.3408 -0.7225  0.1490
 3471TIP3    H234609   4.735   4.043   9.608  0.6623 -0.0474  0.1652
 3472TIP3   OH234610   0.719   2.913   9.637  0.1244 -0.4762 -0.1007
 3472TIP3    H134611   0.715   2.857   9.715  1.8650 -0.0680  0.3388
 3472TIP3    H234612   0.755   2.996   9.669  0.6491 -0.2163 -1.2869
 3473TIP3   OH234613   7.319   1.321   7.685  0.4174  0.0555 -0.0155
 3473TIP3    H134614   7.288   1.308   7.596 -0.5921  1.2890  0.1331
 3473TIP3    H234615   7.376   1.397   7.681  0.5273 -0.0008  0.3636
 3474TIP3   OH234616   4.651   1.178   0.812  0.4324 -0.5746 -0.0561
 3474TIP3    H134617   4.614   1.267   0.812  0.4643 -0.5618 -0.1015
 3474TIP3    H234618   4.684   1.166   0.901  1.7611  0.0021 -0.4526
 3475TIP3   OH234619   2.650   1.963   7.933 -0.1652 -0.1431  0.1678
 3475TIP3    H134620   2.662   1.871   7.958  0.3421 -0.3292 -0.7093
 3475TIP3    H234621   2.710   1.975   7.859 -1.1817  0.5347 -0.5617
 3476TIP3   OH234622   5.631   6.935   2.848  0.2007 -0.5890  0.6418
 3476TIP3    H134623   5.569   7.008   2.846  0.0402 -0.7274 -0.2206
 3476TIP3    H234624   5.639   6.911   2.940 -0.1189  0.2037  0.8768
 3477TIP3   OH234625   3.499   2.703   2.014 -0.4869  0.1743  0.8427
 3477TIP3    H134626   3.408   2.681   1.996 -0.7518  1.1538  0.9257
 3477TIP3    H234627   3.508   2.695   2.109 -0.4610  0.0026  0.8266
 3478TIP3   OH234628   2.591   1.600   2.186 -0.2224 -0.7025  0.0993
 3478TIP3    H134629   2.597   1.696   2.178  1.4590 -0.5986  1.7633
 3478TIP3    H234630   2.674   1.569   2.149  0.3771 -1.2850  1.8320
 3479TIP3   OH234631   5.617   0.036   9.270 -0.0014  0.6073 -0.8112
 3479TIP3    H134632   5.657   0.078   9.347 -0.7924  1.4653 -0.8466
 3479TIP3    H234633   5.608  -0.056   9.295  1.8961  0.4008 -0.7765
 3480TIP3   OH234634   1.604   7.256   1.082  0.4438  0.6177  0.0223
 3480TIP3    H134635   1.622   7.198   1.008  1.3870  0.6429  0.2089
 3480TIP3    H234636   1.561   7.200   1.147  0.9155  0.2268  0.0104
 3481TIP3   OH234637   1.362   5.256   2.148  0.5425  0.1505 -0.2823
 3481TIP3    H134638   1.275   5.221   2.131  0.8166 -0.7096 -0.0135
 3481TIP3    H234639   1.421   5.196   2.102  0.9635  1.1216 -1.0351
 3482TIP3   OH234640   5.378   5.379   9.077 -0.0008 -0.4483 -0.6306
 3482TIP3    H134641   5.346   5.447   9.018 -0.2383 -0.8587 -0.9793
 3482TIP3    H234642   5.303   5.356   9.131 -0.0358 -0.7444 -0.8084
 3483TIP3   OH234643   1.883   6.650   9.330 -0.1400 -0.2711  0.1342
 3483TIP3    H134644   1.835   6.607   9.400 -0.4403  1.3425  0.9761
 3483TIP3    H234645   1.965   6.679   9.370 -0.1438  0.3322 -0.2731
 3484TIP3   OH234646   2.336   1.036   8.991 -0.2776  0.7119 -0.6500
 3484TIP3    H134647   2.315   0.946   8.965  1.4837 -0.2935  1.1865
 3484TIP3    H234648   2.295   1.046   9.077  0.0730  1.4482 -0.5688
 3485TIP3   OH234649   0.989   4.897   0.748 -0.4617 -0.2281  0.0541
 3485TIP3    H134650   0.904   4.902   0.703 -0.4227  1.3991  0.0899
 3485TIP3    H234651   1.003   4.804   0.763 -2.8532 -0.4814  1.1614
 3486TIP3   OH234652   0.972   7.622   9.804  0.1070 -0.1067 -0.3234
 3486TIP3    H134653   0.959   7.528   9.818 -0.6690  0.0832  0.2738
 3486TIP3    H234654   0.938   7.639   9.716 -0.7564 -0.1937 -0.0107
 3487TIP3   OH234655   3.097   0.337   1.315  0.5131  0.0566  0.0449
 3487TIP3    H134656   3.010   0.314   1.283  1.0234  0.0951 -1.4585
 3487TIP3    H234657   3.116   0.271   1.382 -0.6991  0.1033  0.4482
 3488TIP3   OH234658   0.646   5.252   2.252  0.1063  0.6611 -0.1157
 3488TIP3    H134659   0.656   5.282   2.342  1.4779 -0.9223  0.3220
 3488TIP3    H234660   0.701   5.312   2.201 -0.7584  1.6295  0.0712
 3489TIP3   OH234661   3.442   1.045   2.474  0.2026  0.5529 -0.1848
 3489TIP3    H134662   3.420   1.117   2.533  2.2324  0.8119  0.3210
 3489TIP3    H234663   3.443   0.967   2.529 -0.1548  0.4277 -0.3520
 3490TIP3   OH234664   1.981   3.062   7.676  0.0552 -0.5101 -0.0006
 3490TIP3    H134665   1.990   2.966   7.678  1.3039 -0.4115 -0.3958
 3490TIP3    H234666   2.070   3.095   7.678 -0.3848  0.6865  1.0420
 3491TIP3   OH234667   6.150   5.510  10.032  0.1799 -0.4500 -0.2232
 3491TIP3    H134668   6.163   5.600  10.061  1.2657 -1.0608  1.3045
 3491TIP3    H234669   6.212   5.498   9.960  0.2944 -0.0863 -0.1853
 3492TIP3   OH234670   1.006   3.928   1.671 -0.4493  0.8577 -0.7774
 3492TIP3    H134671   0.944   3.892   1.608  0.2334  0.1679 -1.0687
 3492TIP3    H234672   1.088   3.936   1.621  0.5632 -1.2691  0.4262
 3493TIP3   OH234673   6.460   0.583   2.558 -0.0563 -0.0495 -0.3785
 3493TIP3    H134674   6.528   0.580   2.625  0.3980  1.0994 -0.7684
 3493TIP3    H234675   6.379   0.598   2.606  0.0234 -0.8659  0.0403
 3494TIP3   OH234676   7.053   6.380   1.141 -0.2730  0.1033  0.6316
 3494TIP3    H134677   7.011   6.346   1.063  0.5760 -0.0988  0.2449
 3494TIP3    H234678   7.039   6.474   1.138  0.8904  0.2613 -0.4829
 3495TIP3   OH234679   1.738   0.618   1.392 -0.0150 -0.1820 -0.2676
 3495TIP3    H134680   1.674   0.612   1.321  0.8309  1.8445 -1.2919
 3495TIP3    H234681   1.784   0.533   1.390 -0.5501 -0.4716 -1.6193
 3496TIP3   OH234682   1.483   6.166   0.197  0.2455 -0.2339  0.1960
 3496TIP3    H134683   1.455   6.202   0.281  1.3091  1.9640 -0.3295
 3496TIP3    H234684   1.447   6.226   0.131  0.3327 -1.3057 -0.8753
 3497TIP3   OH234685   2.268   3.969   8.772  0.1149 -0.1272 -0.0067
 3497TIP3    H134686   2.196   3.968   8.709 -0.6121 -1.1353  0.8045
 3497TIP3    H234687   2.316   3.888   8.755  1.2474  0.6617 -0.7163
 3498TIP3   OH234688   6.246   7.438   3.333  0.6177  0.7827 -0.2295
 3498TIP3    H134689   6.247   7.532   3.347  0.2733  0.5100  2.0772
 3498TIP3    H234690   6.222   7.401   3.419 -0.0969 -1.3584 -1.2639
 3499TIP3   OH234691   2.120   6.894   2.393 -0.0900  0.2139  0.2059
 3499TIP3    H134692   2.031   6.894   2.360 -0.0518 -0.2726  0.0950
 3499TIP3    H234693   2.147   6.986   2.392 -0.6768  0.3892  0.4811
 3500TIP3   OH234694   5.067   2.491   2.078  0.3182 -0.1679 -0.0512
 3500TIP3    H134695   5.124   2.567   2.080  2.0357 -1.3456  3.2174
 3500TIP3    H234696   5.126   2.417   2.067 -1.0676 -1.2270 -0.7238
 3501TIP3   OH234697   3.658   2.601   0.108  0.0225  0.4759  0.4860
 3501TIP3    H134698   3.590   2.637   0.165 -0.1291  0.4224  0.3402
 3501TIP3    H234699   3.735   2.593   0.164  0.1419  1.2818  0.4576
 3502TIP3   OH234700   0.746   4.052   9.471 -0.2097  0.0850 -0.0285
 3502TIP3    H134701   0.680   4.001   9.424 -2.5594  1.3401  1.6518
 3502TIP3    H234702   0.696   4.121   9.514  2.0634  0.4309  2.3176
 3503TIP3   OH234703   4.572   1.415   0.346  0.0430 -0.1557  0.7106
 3503TIP3    H134704   4.523   1.431   0.266 -0.5543  1.1580  1.3097
 3503TIP3    H234705   4.661   1.396   0.316 -0.0161  0.9613 -0.2470
 3504TIP3   OH234706   0.290   2.239   7.765  0.2823  0.0332 -0.1557
 3504TIP3    H134707   0.317   2.251   7.674 -0.6051 -2.0644 -0.7511
 3504TIP3    H234708   0.311   2.323   7.807  2.0655  0.5616 -1.9183
 3505TIP3   OH234709   6.399   1.084   7.930  0.0535 -0.2701 -0.0679
 3505TIP3    H134710   6.468   1.073   7.995  1.3559  0.4889 -1.2448
 3505TIP3    H234711   6.319   1.094   7.981  0.9616 -0.1252  1.3978
 3506TIP3   OH234712   5.838   6.840   0.189  0.1015  0.0497 -0.1020
 3506TIP3    H134713   5.784   6.769   0.224 -0.9676  1.0457  0.3484
 3506TIP3    H234714   5.922   6.799   0.168 -0.5192 -1.3522  0.0615
 3507TIP3   OH234715   4.061   6.840   9.018  0.1370 -0.4331  0.5639
 3507TIP3    H134716   4.098   6.879   9.097  0.5635 -2.8588  1.6715
 3507TIP3    H234717   3.983   6.891   9.000  1.6153  2.0434  0.7672
 3508TIP3   OH234718   6.155   6.891   2.709  0.0514  0.7042 -0.3481
 3508TIP3    H134719   6.192   6.804   2.694 -2.3307 -0.2263 -1.1459
 3508TIP3    H234720   6.145   6.898   2.804 -0.2997 -0.1429 -0.3196
 3509TIP3   OH234721   0.277   6.728   9.252  0.2837 -0.4256 -0.1526
 3509TIP3    H134722   0.361   6.734   9.206  0.1054 -0.7456 -0.5205
 3509TIP3    H234723   0.301   6.709   9.342  0.6442  0.3398 -0.0769
 3510TIP3   OH234724   5.164   2.020   9.754 -0.3298 -0.0367 -1.0284
 3510TIP3    H134725   5.245   2.015   9.805 -0.2294 -2.8438 -1.3064
 3510TIP3    H234726   5.121   2.099   9.784  2.2823  1.2908 -0.5271
 3511TIP3   OH234727   4.550   7.071   9.277  0.7006  0.0788 -0.6263
 3511TIP3    H134728   4.567   6.997   9.335 -0.6125 -1.0192 -1.5938
 3511TIP3    H234729   4.512   7.138   9.334  2.0907  0.1173  0.2964
 3512TIP3   OH234730   2.949   1.808   2.431  0.0867  0.0798  0.3132
 3512TIP3    H134731   2.901   1.732   2.465  1.7658 -0.4380  1.6381
 3512TIP3    H234732   3.013   1.771   2.370  1.0423  0.3786  1.1052
 3513TIP3   OH234733   5.984   1.733   8.411 -0.8245 -0.0653 -0.1225
 3513TIP3    H134734   6.010   1.755   8.321 -1.0625 -1.4745 -0.5591
 3513TIP3    H234735   6.066   1.724   8.459 -0.6509 -0.3623 -0.4689
 3514TIP3   OH234736   2.769   6.288   8.409 -0.1149  0.1095 -0.3736
 3514TIP3    H134737   2.741   6.282   8.501 -0.8714  0.0352 -0.6048
 3514TIP3    H234738   2.765   6.198   8.377 -0.8606  0.2822 -0.7734
 3515TIP3   OH234739   0.738   7.222   1.629 -0.0472 -0.3715  0.0477
 3515TIP3    H134740   0.774   7.226   1.541  0.3446 -1.1660  0.1634
 3515TIP3    H234741   0.700   7.135   1.636 -3.3393  0.8631 -0.5614
 3516TIP3   OH234742   6.444   2.190   7.963  0.1338 -0.9067 -0.5475
 3516TIP3    H134743   6.444   2.280   7.931  2.1607 -0.7508 -0.1807
 3516TIP3    H234744   6.361   2.154   7.931 -0.9571  1.2049 -0.2817
 3517TIP3   OH234745   0.433   3.168   2.210 -0.2162 -0.1804  0.2231
 3517TIP3    H134746   0.528   3.165   2.215 -0.2912 -1.5060  1.6598
 3517TIP3    H234747   0.404   3.159   2.301 -1.7151 -2.1471 -0.3699
 3518TIP3   OH234748   7.370   6.183   0.827 -0.4543  0.4895  0.3334
 3518TIP3    H134749   7.335   6.170   0.739 -1.5361  0.4117  0.7593
 3518TIP3    H234750   7.449   6.129   0.830 -1.6831 -1.4445  0.1491
 3519TIP3   OH234751   1.008   0.553   2.867  0.2313 -0.2940  0.1336
 3519TIP3    H134752   1.049   0.543   2.953  2.8201 -1.3785 -1.0857
 3519TIP3    H234753   1.031   0.472   2.821 -1.4608  0.0621 -1.4466
 3520TIP3   OH234754   1.952   5.056   8.803 -0.8908 -0.5044 -0.1687
 3520TIP3    H134755   1.878   5.093   8.755 -1.6566 -1.8639 -0.0802
 3520TIP3    H234756   1.922   4.969   8.830 -0.4722  0.1261  2.6748
 3521TIP3   OH234757   1.990   6.039   8.889 -0.1190  0.5249 -0.7495
 3521TIP3    H134758   2.069   6.067   8.935  0.0939  0.1828 -0.8980
 3521TIP3    H234759   1.957   6.118   8.847  1.4622  0.2426 -2.6450
 3522TIP3   OH234760   1.666   6.201   1.426 -0.1939 -0.2884  0.7052
 3522TIP3    H134761   1.587   6.231   1.471 -1.7352 -2.5159 -0.3477
 3522TIP3    H234762   1.633   6.146   1.354  2.2990 -0.4690 -0.3921
 3523TIP3   OH234763   1.618   6.350   3.276 -0.3931  0.0491 -0.1456
 3523TIP3    H134764   1.671   6.273   3.294 -2.1432 -1.0242  0.6691
 3523TIP3    H234765   1.672   6.404   3.218  1.8142 -0.6369  1.2019
 3524TIP3   OH234766   6.552   1.034   9.549  0.0784 -0.9260  0.2692
 3524TIP3    H134767   6.566   1.112   9.602  2.2464 -0.4955 -0.8348
 3524TIP3    H234768   6.611   0.968   9.585 -0.4462 -1.5109  0.0898
 3525TIP3   OH234769   5.465   4.831   8.002  0.0252  0.0348  0.3285
 3525TIP3    H134770   5.511   4.843   7.919  1.0521  1.4633  1.0516
 3525TIP3    H234771   5.528   4.787   8.059 -0.1056  0.4594  0.8122
 3526TIP3   OH234772   1.443   3.947   9.967  0.3879 -0.9017  0.1454
 3526TIP3    H134773   1.350   3.925   9.955 -0.0309  0.6569  0.3204
 3526TIP3    H234774   1.453   3.955  10.062  0.2385  0.6993  0.0505
 3527TIP3   OH234775   0.736   1.432   2.243  0.1440  0.0820 -0.2433
 3527TIP3    H134776   0.822   1.465   2.270 -0.7515 -1.0080  4.8965
 3527TIP3    H234777   0.693   1.508   2.204  3.0669  0.8415 -2.3768
 3528TIP3   OH234778   3.430   4.693   9.955  0.3001 -0.0741  0.0394
 3528TIP3    H134779   3.454   4.675  10.046 -0.7703  1.1438  0.6029
 3528TIP3    H234780   3.367   4.765   9.961  2.1292  1.8244 -1.8343
 3529TIP3   OH234781   0.706   2.225   8.141 -0.3727 -0.5284  0.3837
 3529TIP3    H134782   0.666   2.172   8.071 -0.6541 -0.1857  0.2842
 3529TIP3    H234783   0.738   2.160   8.204  2.3474 -1.0274 -1.3266
 3530TIP3   OH234784   5.837   2.638   0.128 -0.1559  0.2906 -0.3407
 3530TIP3    H134785   5.824   2.717   0.076  1.3882  1.3738  0.7953
 3530TIP3    H234786   5.916   2.598   0.091  0.6099  0.7538  0.7242
 3531TIP3   OH234787   4.013   4.923   9.780 -0.4396 -0.3983 -0.3619
 3531TIP3    H134788   3.925   4.945   9.811  0.3490  0.8818  1.1681
 3531TIP3    H234789   4.019   4.963   9.693 -0.8245  0.9742  0.2199
 3532TIP3   OH234790   1.449   5.322   0.429 -0.5962 -0.1135  0.6405
 3532TIP3    H134791   1.419   5.327   0.338  0.3200  1.4399  0.3784
 3532TIP3    H234792   1.462   5.229   0.445  0.5434 -0.3432 -1.2897
 3533TIP3   OH234793   4.504   7.349   8.317  0.0167  0.7594  0.0369
 3533TIP3    H134794   4.539   7.343   8.406  0.4811  1.3900 -0.0903
 3533TIP3    H234795   4.582   7.346   8.261 -0.0079  3.0521 -0.2209
 3534TIP3   OH234796   1.563   3.882   1.756  0.4401 -0.4522 -0.3785
 3534TIP3    H134797   1.650   3.859   1.723 -0.0358 -0.7359 -1.4777
 3534TIP3    H234798   1.571   3.877   1.851  2.3769  2.1989 -0.2880
 3535TIP3   OH234799   7.293   2.389   8.939 -0.1678  0.0292  0.3261
 3535TIP3    H134800   7.227   2.448   8.976  1.0182  1.4477  0.2516
 3535TIP3    H234801   7.376   2.436   8.948  0.9066 -1.8425  0.6862
 3536TIP3   OH234802   1.841   6.245   7.724 -0.4461  0.2009 -0.5529
 3536TIP3    H134803   1.794   6.327   7.711 -0.6416  0.1479 -0.2078
 3536TIP3    H234804   1.791   6.200   7.793  0.8019  0.6819  0.7205
 3537TIP3   OH234805   3.722   0.025   3.233  0.1026 -0.5241 -0.7351
 3537TIP3    H134806   3.679  -0.050   3.192 -0.9227  0.3989 -1.4077
 3537TIP3    H234807   3.813   0.020   3.203  0.6197 -2.6564  0.9259
 3538TIP3   OH234808   7.308   1.983   7.845  0.4166 -0.3774 -0.4336
 3538TIP3    H134809   7.399   2.002   7.822  0.1504  0.9562 -0.5043
 3538TIP3    H234810   7.306   1.984   7.941  0.5501 -0.8419 -0.4227
 3539TIP3   OH234811   6.908   1.587   9.467  0.3851 -0.1939 -0.5010
 3539TIP3    H134812   6.912   1.639   9.547 -1.3016 -0.4395 -0.2203
 3539TIP3    H234813   6.904   1.496   9.496  0.3600 -0.3169 -0.8803
 3540TIP3   OH234814   0.132   0.225   1.967 -0.1685  0.5504 -0.4175
 3540TIP3    H134815   0.115   0.143   2.014  0.1704  1.2539  1.0164
 3540TIP3    H234816   0.046   0.254   1.937 -0.3303 -0.1655 -0.6596
 3541TIP3   OH234817   3.395   3.795   8.975  0.0520 -0.0393 -0.6693
 3541TIP3    H134818   3.442   3.730   8.925  0.3927 -0.7540  0.5346
 3541TIP3    H234819   3.438   3.878   8.954  1.9383 -0.6825  0.4530
 3542TIP3   OH234820   2.043   5.737   0.481 -0.0286  0.2005 -0.1079
 3542TIP3    H134821   2.039   5.682   0.403 -2.2373  0.2497 -0.0883
 3542TIP3    H234822   2.062   5.824   0.448 -2.3395  0.5039 -0.8274
 3543TIP3   OH234823   3.621   6.846   1.402 -0.0437 -0.1438 -0.0036
 3543TIP3    H134824   3.656   6.926   1.443 -1.0529  0.8616 -1.0278
 3543TIP3    H234825   3.527   6.849   1.422 -0.7055  0.7159 -2.7968
 3544TIP3   OH234826   3.117   6.633   9.682  0.0582 -0.0409  0.0227
 3544TIP3    H134827   3.046   6.569   9.684  0.6295 -0.6897 -0.1530
 3544TIP3    H234828   3.170   6.608   9.606 -0.9880  2.0404 -1.5268
 3545TIP3   OH234829   2.279   3.490   2.595 -0.3010  0.3231 -0.4805
 3545TIP3    H134830   2.317   3.577   2.602 -1.3481  0.7110  0.6662
 3545TIP3    H234831   2.216   3.497   2.523 -0.0080  0.3571 -0.7378
 3546TIP3   OH234832   6.929   4.406   7.395 -0.3900 -0.1352 -0.3104
 3546TIP3    H134833   6.977   4.455   7.462 -1.0316 -0.5944  0.5046
 3546TIP3    H234834   6.997   4.364   7.342  0.1770  1.6111 -1.0296
 3547TIP3   OH234835   6.099   6.023   0.888  0.2475 -0.0249 -0.1071
 3547TIP3    H134836   6.006   6.000   0.886  0.0707  0.5455  1.0567
 3547TIP3    H234837   6.100   6.118   0.876  0.5407  0.2460  1.8003
 3548TIP3   OH234838   3.728   5.292   9.726  0.3709  0.2656  0.0500
 3548TIP3    H134839   3.792   5.361   9.743  3.0967 -1.7650 -1.2831
 3548TIP3    H234840   3.721   5.244   9.808  2.5992 -1.0074 -0.4377
 3549TIP3   OH234841   4.450   7.060   1.416  0.2614 -0.3120  0.6610
 3549TIP3    H134842   4.440   7.129   1.482  0.7919  0.8315 -0.4295
 3549TIP3    H234843   4.368   7.010   1.421 -0.7432  1.2510  0.5090
 3550TIP3   OH234844   0.230   2.142   1.076 -0.5823  0.4104 -0.0352
 3550TIP3    H134845   0.196   2.058   1.044 -1.0048  0.4042  0.4192
 3550TIP3    H234846   0.192   2.151   1.163  0.6281  0.3744  0.5210
 3551TIP3   OH234847   6.072   0.097   7.308  0.1176  0.9392 -0.7274
 3551TIP3    H134848   6.152   0.078   7.260 -0.8986 -2.7253 -1.3200
 3551TIP3    H234849   6.084   0.052   7.392 -1.8070 -1.1537 -1.4603
 3552TIP3   OH234850   5.596   3.108   9.265  0.8022  0.2843  0.3253
 3552TIP3    H134851   5.684   3.078   9.245 -0.2303 -1.3479 -2.2067
 3552TIP3    H234852   5.586   3.189   9.215  0.3550 -0.4014 -0.7228
 3553TIP3   OH234853   0.211   7.142   7.025  0.0642  0.4688 -0.2657
 3553TIP3    H134854   0.128   7.160   6.981 -1.3550  1.5012  2.5293
 3553TIP3    H234855   0.213   7.046   7.034 -1.3533  0.4784  0.4679
 3554TIP3   OH234856   1.016   2.684   9.479 -0.2804  0.0658  0.3281
 3554TIP3    H134857   1.079   2.664   9.548 -0.9067 -0.4086  0.7684
 3554TIP3    H234858   1.022   2.779   9.467 -0.4895  0.2115  1.3452
 3555TIP3   OH234859   3.086   6.427   8.661 -0.1494  0.5724  0.3389
 3555TIP3    H134860   3.050   6.512   8.685 -2.3146 -0.5883  1.4829
 3555TIP3    H234861   3.061   6.369   8.733 -0.2764 -1.4160 -1.2231
 3556TIP3   OH234862   0.851   4.955  -0.020 -0.6680 -0.5248 -0.4987
 3556TIP3    H134863   0.759   4.957   0.005 -0.1598 -1.4933  1.6875
 3556TIP3    H234864   0.855   4.891  -0.091 -1.3653 -2.3633  1.0539
 3557TIP3   OH234865   1.297   4.044   9.613  0.7626  0.6170  0.0315
 3557TIP3    H134866   1.256   4.094   9.543  0.3255  1.5718  0.9288
 3557TIP3    H234867   1.287   3.953   9.587 -2.1155  0.7622  0.2369
 3558TIP3   OH234868   2.026   3.361   9.733 -0.8048  0.3274 -0.1886
 3558TIP3    H134869   2.021   3.412   9.813  0.1703  1.3927 -0.7669
 3558TIP3    H234870   1.956   3.396   9.677 -3.3742 -2.2937  1.1353
 3559TIP3   OH234871   3.015   0.210   0.879 -0.8550 -0.7703  0.0923
 3559TIP3    H134872   2.997   0.149   0.951 -1.6194  0.0432  0.6160
 3559TIP3    H234873   3.078   0.164   0.823  0.0217 -1.2784  1.4568
 3560TIP3   OH234874   4.105   4.603   7.285  0.5558 -0.3432  1.0593
 3560TIP3    H134875   4.189   4.583   7.243  0.6845  1.7965  0.1838
 3560TIP3    H234876   4.064   4.667   7.227 -1.5734 -1.1099  1.6316
 3561TIP3   OH234877   7.075   3.051   9.302 -0.4091  0.4915  0.4643
 3561TIP3    H134878   7.169   3.067   9.305 -0.3404  0.0502  3.0534
 3561TIP3    H234879   7.035   3.136   9.318 -0.5053  0.7335 -0.9164
 3562TIP3   OH234880   1.761   3.301   0.786 -0.0717 -0.0137  0.0499
 3562TIP3    H134881   1.836   3.242   0.776 -0.1543  0.0048 -0.7832
 3562TIP3    H234882   1.691   3.259   0.735 -0.7329 -0.2017  1.0856
 3563TIP3   OH234883   3.001   6.249   0.625  0.0705 -0.1610  0.2048
 3563TIP3    H134884   2.958   6.207   0.699 -2.1005 -0.6835 -1.2298
 3563TIP3    H234885   2.985   6.189   0.552  0.5452  1.1814 -1.0440
 3564TIP3   OH234886   4.709   5.567   9.110 -0.3561  0.5905 -0.2867
 3564TIP3    H134887   4.698   5.620   9.189 -0.6385  0.4692 -0.2416
 3564TIP3    H234888   4.729   5.630   9.041 -0.5196  0.7371 -0.1998
 3565TIP3   OH234889   2.293   0.039   7.816  0.3912  0.3070  0.2666
 3565TIP3    H134890   2.354   0.113   7.822  1.6031 -0.7347  1.3896
 3565TIP3    H234891   2.212   0.072   7.854  0.9120  1.0805  0.7368
 3566TIP3   OH234892   4.663   4.692   9.002 -0.3124 -0.1347  0.0291
 3566TIP3    H134893   4.744   4.664   9.045  0.4307  0.6270 -0.8240
 3566TIP3    H234894   4.645   4.778   9.040 -0.3811 -0.0344 -0.2329
 3567TIP3   OH234895   1.166   4.066   0.386  0.0475 -0.1430  0.0238
 3567TIP3    H134896   1.199   3.978   0.399 -1.1342 -0.7088 -0.6301
 3567TIP3    H234897   1.154   4.074   0.292 -0.4251  0.4899  0.1299
 3568TIP3   OH234898   6.688   2.870   9.320  0.1132 -0.5713 -0.0217
 3568TIP3    H134899   6.631   2.856   9.244 -0.7864  0.3291  0.4646
 3568TIP3    H234900   6.647   2.941   9.369  0.4107 -1.4135  1.5547
 3569TIP3   OH234901   1.318   3.026   3.350 -0.3304  0.5782  0.1818
 3569TIP3    H134902   1.361   2.941   3.353 -2.9639 -0.8420 -0.0405
 3569TIP3    H234903   1.359   3.076   3.420  1.5457 -0.6886  0.0595
 3570TIP3   OH234904   3.967   1.713   0.386 -0.2912 -0.2031 -0.1590
 3570TIP3    H134905   3.953   1.622   0.413 -0.3764 -0.0602  0.2917
 3570TIP3    H234906   3.967   1.710   0.291  0.0704 -0.7312 -0.1456
 3571TIP3   OH234907   4.458   7.334   9.379 -0.3920  0.3254 -0.5790
 3571TIP3    H134908   4.520   7.326   9.307  0.6039 -0.1398  0.3151
 3571TIP3    H234909   4.381   7.285   9.349 -0.1971  0.5600 -1.5199
 3572TIP3   OH234910   0.658   5.904   8.620 -0.2780 -0.2842 -0.0354
 3572TIP3    H134911   0.689   5.993   8.641 -1.2931  0.1672 -0.3987
 3572TIP3    H234912   0.738   5.856   8.597  0.5294  0.0122  1.8991
 3573TIP3   OH234913   5.852   2.996   9.223 -0.4330  0.6572 -0.5158
 3573TIP3    H134914   5.826   2.905   9.212  1.0157  0.2683 -0.9647
 3573TIP3    H234915   5.880   3.024   9.136 -0.2969  1.3387 -0.2610
 3574TIP3   OH234916   3.255   2.153   8.716  0.4442  0.2234 -0.2696
 3574TIP3    H134917   3.341   2.118   8.739 -0.1146 -0.7604  0.4282
 3574TIP3    H234918   3.211   2.165   8.801 -0.4653 -0.2817 -0.6522
 3575TIP3   OH234919   6.234   7.114   1.463 -0.1755 -0.0486 -0.3607
 3575TIP3    H134920   6.284   7.091   1.384 -0.6223  3.7996 -1.9658
 3575TIP3    H234921   6.142   7.103   1.437 -0.3200  1.0287 -0.3341
 3576TIP3   OH234922   2.096   6.255   2.083  0.4198  0.1403 -0.3920
 3576TIP3    H134923   2.088   6.264   1.988 -0.1242  0.9567 -0.2863
 3576TIP3    H234924   2.171   6.310   2.106  0.6561 -0.1923 -0.3682
 3577TIP3   OH234925   7.150   6.957   7.277 -0.2502  0.9876  0.4510
 3577TIP3    H134926   7.148   6.869   7.315 -1.3834  0.4381 -0.7993
 3577TIP3    H234927   7.232   6.961   7.228 -0.1043  0.6986  0.6723
 3578TIP3   OH234928   3.957   7.668   6.669  0.2114 -0.5593 -0.6270
 3578TIP3    H134929   3.917   7.602   6.725 -1.4869 -0.7728 -2.0173
 3578TIP3    H234930   3.899   7.743   6.675  1.6662  0.5432  0.2582
 3579TIP3   OH234931   3.026   1.886   7.589  0.2190  0.5562 -0.3576
 3579TIP3    H134932   3.088   1.854   7.655  1.3111  0.7102 -1.2604
 3579TIP3    H234933   3.050   1.978   7.578 -0.7092  0.8250 -0.1487
 3580TIP3   OH234934   1.220   6.724   2.003  0.3609  0.0985  0.1104
 3580TIP3    H134935   1.161   6.782   2.051 -0.8674  0.2205 -1.4583
 3580TIP3    H234936   1.216   6.641   2.050 -0.3305  0.3879  0.5694
 3581TIP3   OH234937   1.196   2.908   8.275 -0.0859 -0.8884 -0.2740
 3581TIP3    H134938   1.180   2.814   8.260 -0.0338 -0.6938 -1.6685
 3581TIP3    H234939   1.288   2.913   8.298  0.0288 -1.1440 -0.6551
 3582TIP3   OH234940   5.863   6.493   0.066  0.2493 -0.2986  0.1963
 3582TIP3    H134941   5.775   6.523   0.044  0.9725  1.7694 -0.1100
 3582TIP3    H234942   5.898   6.562   0.122  2.0694 -0.5018 -0.6226
 3583TIP3   OH234943   6.734   2.716   9.042 -0.1687  0.5069  0.3988
 3583TIP3    H134944   6.725   2.679   8.954 -1.0035  0.2900  0.5714
 3583TIP3    H234945   6.749   2.810   9.027  1.3848  0.2242 -0.0205
 3584TIP3   OH234946   3.477   2.655   9.278  0.1842 -0.2851  0.3565
 3584TIP3    H134947   3.452   2.668   9.369  0.0298 -0.1188  0.2905
 3584TIP3    H234948   3.545   2.721   9.262  0.1493 -0.2556  0.3278
 3585TIP3   OH234949   3.503   7.248   8.057  0.4024  0.2502  0.1383
 3585TIP3    H134950   3.424   7.197   8.077 -0.0800  1.0653  0.3679
 3585TIP3    H234951   3.533   7.279   8.142  0.4199  0.7412 -0.0460
 3586TIP3   OH234952   5.162   3.359   8.845 -0.2002 -0.6376 -0.1333
 3586TIP3    H134953   5.109   3.332   8.920  0.3681 -0.1503  0.4497
 3586TIP3    H234954   5.252   3.334   8.869  0.0681  0.0616 -0.3866
 3587TIP3   OH234955   5.124   4.502   7.644 -0.4317  0.0071 -0.0765
 3587TIP3    H134956   5.036   4.536   7.633 -0.3571  0.3390  0.3365
 3587TIP3    H234957   5.135   4.439   7.573 -1.9756 -2.0292  1.3769
 3588TIP3   OH234958   7.049   0.175  -0.022  0.5625  0.1209 -0.4337
 3588TIP3    H134959   7.123   0.193  -0.080  0.8400 -1.3236 -0.5674
 3588TIP3    H234960   7.078   0.203   0.065  1.2578 -0.3900 -0.4940
 3589TIP3   OH234961   6.060   0.135   0.547  0.5256  0.2118  0.3319
 3589TIP3    H134962   6.030   0.125   0.637 -0.4563 -2.1812 -0.2075
 3589TIP3    H234963   6.096   0.050   0.523 -0.8407  0.2245 -2.0995
 3590TIP3   OH234964   6.326   0.278   0.864  0.2256  0.4513 -0.0326
 3590TIP3    H134965   6.250   0.336   0.862 -0.2490 -0.0569  1.7269
 3590TIP3    H234966   6.373   0.303   0.943  0.8499 -0.5366 -0.0781
 3591TIP3   OH234967   2.520   1.782   8.167  0.4372  0.5359 -0.2171
 3591TIP3    H134968   2.492   1.866   8.203  1.9863  0.8985  0.2193
 3591TIP3    H234969   2.555   1.735   8.243 -2.8213 -1.6737  0.1436
 3592TIP3   OH234970   4.031   1.209   2.154 -0.5305  0.1700 -0.1052
 3592TIP3    H134971   3.945   1.169   2.170 -1.1800  1.1648 -0.9755
 3592TIP3    H234972   4.064   1.229   2.242 -1.3856  0.1593  0.2376
 3593TIP3   OH234973   6.792   6.663   2.343 -0.2473 -0.5049 -0.2017
 3593TIP3    H134974   6.827   6.735   2.397  0.3728  0.7094 -2.1245
 3593TIP3    H234975   6.697   6.674   2.347 -0.1606  0.4603 -0.4856
 3594TIP3   OH234976   3.997   0.273   9.813 -0.0739  0.2047  0.1828
 3594TIP3    H134977   3.940   0.335   9.768  0.6628 -0.1651 -1.2981
 3594TIP3    H234978   3.957   0.188   9.798  0.5536  0.0026 -0.3920
 3595TIP3   OH234979   2.483   4.338   0.263 -0.4998  0.2418  0.1775
 3595TIP3    H134980   2.549   4.304   0.202 -0.2343  1.8968 -0.5253
 3595TIP3    H234981   2.400   4.306   0.227 -0.3517  1.2431 -1.1356
 3596TIP3   OH234982   3.208   7.233   9.956 -0.4208  0.1624 -0.6499
 3596TIP3    H134983   3.152   7.156   9.965  0.9081 -0.7426  0.0257
 3596TIP3    H234984   3.232   7.256  10.046 -0.1078  0.8532 -0.9013
 3597TIP3   OH234985   6.438   0.706   7.018  0.1567 -0.0029 -0.1346
 3597TIP3    H134986   6.376   0.654   7.069  0.8814  0.1263  0.9120
 3597TIP3    H234987   6.386   0.739   6.944 -0.9113 -0.2466  0.4768
 3598TIP3   OH234988   2.181   6.160   1.007  0.3795 -0.0144 -0.0222
 3598TIP3    H134989   2.272   6.167   1.037  0.2668 -0.4917  0.4694
 3598TIP3    H234990   2.148   6.249   1.008  1.0584  0.2607 -0.9208
 3599TIP3   OH234991   5.501   1.092   2.129 -0.0615 -0.2790 -0.3906
 3599TIP3    H134992   5.553   1.172   2.117 -1.2273  0.4936 -0.3925
 3599TIP3    H234993   5.545   1.027   2.074  0.6848  0.4546 -0.6848
 3600TIP3   OH234994   6.226   5.968   8.541  0.0288 -0.0518 -0.0947
 3600TIP3    H134995   6.254   5.879   8.563  0.0713  0.4203  1.9440
 3600TIP3    H234996   6.146   5.981   8.592  0.4961  1.3687  0.3076
 3601TIP3   OH234997   1.737   5.923   2.769 -0.3241 -0.0148 -0.1131
 3601TIP3    H134998   1.713   6.010   2.737 -1.4868  0.0396  0.8263
 3601TIP3    H234999   1.815   5.938   2.823 -1.8649  0.9025  2.0288
 3602TIP3   OH235000   7.549   7.109   8.377  0.5727  0.4068  0.5551
 3602TIP3    H135001   7.496   7.173   8.330  0.7993 -0.7099 -1.3606
 3602TIP3    H235002   7.576   7.047   8.309  0.1332 -1.8749  2.3655
 3603TIP3   OH235003   7.366   3.111   8.069  0.4306  0.0455  0.0801
 3603TIP3    H135004   7.366   3.026   8.026 -0.9376  0.0290  0.0755
 3603TIP3    H235005   7.286   3.112   8.121  0.9342  0.9452  0.8851
 3604TIP3   OH235006   6.505   1.348   9.210 -0.4476  0.2744 -0.0808
 3604TIP3    H135007   6.445   1.357   9.136 -1.1368  1.2882  0.5739
 3604TIP3    H235008   6.555   1.430   9.210 -0.4628  0.2885  0.5843
 3605TIP3   OH235009   1.678   4.726   1.251  0.2706 -0.3530 -0.1988
 3605TIP3    H135010   1.727   4.768   1.180  1.0634 -0.6640  0.1493
 3605TIP3    H235011   1.728   4.747   1.330  0.4070 -1.5252  0.0401
 3606TIP3   OH235012   4.176   0.308   8.591 -0.0046 -0.2061 -0.1741
 3606TIP3    H135013   4.110   0.265   8.537 -0.9097 -0.2016  0.8962
 3606TIP3    H235014   4.128   0.375   8.639  0.7065 -0.4203  0.8666
 3607TIP3   OH235015   6.044   3.348   7.860 -0.3569  0.5791  0.1676
 3607TIP3    H135016   6.029   3.434   7.899  0.1661  0.7101  0.0790
 3607TIP3    H235017   5.956   3.314   7.842 -0.5559  1.3509 -0.3430
 3608TIP3   OH235018   6.474   5.042   8.713 -0.2392 -0.2353 -0.2730
 3608TIP3    H135019   6.503   5.113   8.770  0.6976 -0.7576 -0.0719
 3608TIP3    H235020   6.540   5.038   8.644  0.3663 -1.6357  0.3453
 3609TIP3   OH235021   1.826   5.442   8.904 -0.1580 -0.2241 -0.3537
 3609TIP3    H135022   1.766   5.371   8.928  0.3026 -1.2255 -1.9797
 3609TIP3    H235023   1.914   5.404   8.917  0.0933  0.1219 -0.9938
 3610TIP3   OH235024   5.175   5.559   7.764  0.2505 -0.2050 -0.4814
 3610TIP3    H135025   5.153   5.608   7.844  0.4512 -0.7307 -0.0952
 3610TIP3    H235026   5.092   5.521   7.736  0.1585  0.0723 -0.5907
 3611TIP3   OH235027   0.965   0.797   2.322  0.3759 -0.0961 -0.1064
 3611TIP3    H135028   0.999   0.755   2.401 -1.3578 -0.9566  0.2470
 3611TIP3    H235029   0.996   0.887   2.327  1.1806 -0.4145  1.0070
 3612TIP3   OH235030   6.713   1.045   2.336  0.1526  0.4138 -0.3116
 3612TIP3    H135031   6.643   1.110   2.337 -1.1314 -0.8829 -1.3464
 3612TIP3    H235032   6.678   0.972   2.285  1.9502 -0.6488 -0.1374
 3613TIP3   OH235033   5.528   2.673   2.273 -0.9726 -0.6390 -0.6714
 3613TIP3    H135034   5.536   2.578   2.264  0.7686 -0.4129 -2.3126
 3613TIP3    H235035   5.548   2.690   2.365  2.2900 -1.6482 -1.0616
 3614TIP3   OH235036   2.800   6.260   1.898 -0.0326  0.2821  0.0557
 3614TIP3    H135037   2.730   6.285   1.959  0.2931  0.9730  0.1553
 3614TIP3    H235038   2.861   6.209   1.950  0.1764  0.7555  0.2788
 3615TIP3   OH235039   6.263   1.068   0.799  0.2151  0.4664 -0.1365
 3615TIP3    H135040   6.226   1.026   0.876 -1.9337  0.8977 -0.8589
 3615TIP3    H235041   6.187   1.093   0.747  1.5710  1.2287 -1.8464
 3616TIP3   OH235042   4.329   4.222   7.435  0.4623  0.1614 -0.0787
 3616TIP3    H135043   4.423   4.235   7.445  0.2701  2.4194 -0.7004
 3616TIP3    H235044   4.302   4.176   7.515  1.9500  0.1991  0.4726
 3617TIP3   OH235045   0.535   3.080   0.425  0.1825  0.0985  0.1653
 3617TIP3    H135046   0.450   3.081   0.380  0.4557  0.1937 -0.3566
 3617TIP3    H235047   0.513   3.070   0.517 -0.3615 -0.9285 -0.0561
 3618TIP3   OH235048   7.596   4.527   1.096 -0.3664  0.1390  0.0679
 3618TIP3    H135049   7.661   4.492   1.034 -0.2238 -0.2229  0.4144
 3618TIP3    H235050   7.628   4.615   1.117 -0.4647  0.2957 -0.4416
 3619TIP3   OH235051   3.870   2.274   2.049  0.3461  0.2086 -0.2814
 3619TIP3    H135052   3.957   2.280   2.087  0.8423 -0.6540 -1.2186
 3619TIP3    H235053   3.863   2.351   1.993  0.2972  0.5568  0.2030
 3620TIP3   OH235054   3.621   2.245   7.883  0.1729 -0.5186 -0.5205
 3620TIP3    H135055   3.611   2.335   7.851  1.3857 -0.1537  0.0881
 3620TIP3    H235056   3.647   2.196   7.805 -0.5648 -0.3709 -0.8720
 3621TIP3   OH235057   7.136   5.902   2.336  0.6177  0.0464  0.1762
 3621TIP3    H135058   7.208   5.903   2.273  0.6067 -0.0252  0.1619
 3621TIP3    H235059   7.178   5.873   2.418  0.3354 -1.4470 -0.1773
 3622TIP3   OH235060   1.283   2.962   1.335 -0.1335  0.6074 -0.3824
 3622TIP3    H135061   1.327   3.005   1.262 -1.1878  0.9962 -0.8030
 3622TIP3    H235062   1.275   2.870   1.309  1.4440  0.2682  0.1974
 3623TIP3   OH235063   1.333   2.276   1.164 -0.7317  0.2325  0.2620
 3623TIP3    H135064   1.303   2.214   1.098 -2.2155 -1.2626  2.1969
 3623TIP3    H235065   1.303   2.361   1.134 -1.5023 -0.4244 -0.8909
 3624TIP3   OH235066   3.465   7.131   9.260 -0.2346  0.2770  0.3205
 3624TIP3    H135067   3.429   7.148   9.173  2.0400 -0.8247 -0.9155
 3624TIP3    H235068   3.432   7.044   9.283 -1.6938  0.9865  1.1066
 3625TIP3   OH235069   0.165   1.168   1.587  0.3741 -0.4439  0.2310
 3625TIP3    H135070   0.112   1.122   1.522 -0.2203 -1.5140  1.4283
 3625TIP3    H235071   0.108   1.236   1.621  0.1732 -0.8227  0.6612
 3626TIP3   OH235072   5.539   1.653   1.706  0.1882  0.4544 -0.3700
 3626TIP3    H135073   5.523   1.746   1.687  0.8933  0.7811  0.5780
 3626TIP3    H235074   5.537   1.611   1.620 -3.4911  0.7679 -0.6159
 3627TIP3   OH235075   7.343   4.373   1.973 -0.2614  0.5054 -0.3146
 3627TIP3    H135076   7.334   4.401   2.064  0.2499 -1.3725  0.3588
 3627TIP3    H235077   7.265   4.407   1.929 -1.2457  0.2005  1.1500
 3628TIP3   OH235078   0.369   7.586   8.019  0.3833 -0.4898 -0.2017
 3628TIP3    H135079   0.449   7.607   7.970  0.4857  0.1555  0.2236
 3628TIP3    H235080   0.298   7.598   7.956  0.5828 -0.5290 -0.4341
 3629TIP3   OH235081   5.928   7.504   9.461 -0.3149 -0.8518  0.0103
 3629TIP3    H135082   5.956   7.459   9.541  1.1556 -0.5436 -0.2868
 3629TIP3    H235083   6.008   7.509   9.408 -0.3158  2.2836  0.1286
 3630TIP3   OH235084   3.938   6.829   9.823 -0.2314  0.4341 -0.6026
 3630TIP3    H135085   3.849   6.816   9.790 -1.2574  1.5082  1.5070
 3630TIP3    H235086   3.944   6.769   9.898  0.3506  1.2897  0.0575
 3631TIP3   OH235087  -0.054   3.176   9.554 -0.0393 -0.3589 -0.2182
 3631TIP3    H135088  -0.137   3.171   9.603 -0.0590 -2.9963 -0.3483
 3631TIP3    H235089  -0.004   3.101   9.586  1.4854  0.0291 -1.5971
 3632TIP3   OH235090   0.860   1.603   8.101 -0.3637 -0.2361  0.2772
 3632TIP3    H135091   0.917   1.528   8.082 -0.4668 -0.4722  0.8836
 3632TIP3    H235092   0.920   1.673   8.126 -0.2970 -0.2891  0.2663
 3633TIP3   OH235093   7.128   3.070   7.742  0.3028  0.6331  0.2550
 3633TIP3    H135094   7.154   3.132   7.674  0.8819  2.4040  1.9915
 3633TIP3    H235095   7.034   3.056   7.726  0.5318  0.5689 -1.2042
 3634TIP3   OH235096   3.538   5.583   9.393 -0.2034 -0.8497 -0.4181
 3634TIP3    H135097   3.527   5.601   9.300 -0.4547 -0.0196 -0.2339
 3634TIP3    H235098   3.633   5.582   9.406 -0.1738  0.0235 -0.5023
 3635TIP3   OH235099   7.179   3.480   9.085 -0.1425  0.5211 -0.6484
 3635TIP3    H135100   7.189   3.564   9.131 -0.8490  0.2783 -0.0302
 3635TIP3    H235101   7.093   3.485   9.044 -0.0825  0.1934 -0.8174
 3636TIP3   OH235102   1.333   3.289   7.979  0.6214 -0.1936  0.6727
 3636TIP3    H135103   1.377   3.345   8.043 -0.8843  0.4768  1.1622
 3636TIP3    H235104   1.317   3.346   7.904  0.7549 -0.4902  0.4153
 3637TIP3   OH235105   4.389   6.948   0.439  0.4210 -0.3802  0.0365
 3637TIP3    H135106   4.462   6.887   0.433  0.8234 -0.1336  1.8438
 3637TIP3    H235107   4.382   6.986   0.351 -0.2012 -3.3698 -1.3317
 3638TIP3   OH235108   4.721   3.183   9.169  0.0580  0.1426  0.1909
 3638TIP3    H135109   4.686   3.105   9.125 -3.1119  0.4786  1.8373
 3638TIP3    H235110   4.714   3.252   9.103  0.3362 -0.3904 -0.4159
 3639TIP3   OH235111   7.324   6.112   0.566 -0.0657 -0.1088 -0.0836
 3639TIP3    H135112   7.319   6.196   0.521 -0.1949  1.6554  2.9704
 3639TIP3    H235113   7.411   6.078   0.542  0.8601  1.9008  0.1987
 3640TIP3   OH235114   2.674   0.217   2.412 -0.4855  0.2336 -0.2649
 3640TIP3    H135115   2.746   0.201   2.351 -0.9130  1.9771 -1.2971
 3640TIP3    H235116   2.712   0.271   2.481 -0.0875 -1.4532  0.8994
 3641TIP3   OH235117   7.321   5.812   9.413  0.6240  0.0207  0.6512
 3641TIP3    H135118   7.298   5.721   9.398  0.4844  0.1398  0.1172
 3641TIP3    H235119   7.352   5.815   9.503  1.3678 -0.7026  0.4286
 3642TIP3   OH235120   4.278   2.381   0.499  0.1959  0.1802 -0.0834
 3642TIP3    H135121   4.348   2.428   0.454  0.5674  0.3968  0.7040
 3642TIP3    H235122   4.230   2.336   0.429  1.3773 -0.3099 -0.5961
 3643TIP3   OH235123   2.005   6.730   0.520  0.3251 -0.5912  0.4640
 3643TIP3    H135124   1.910   6.723   0.535  0.3721 -1.1690  0.5129
 3643TIP3    H235125   2.023   6.824   0.522 -0.5361 -0.3392 -1.3040
 3644TIP3   OH235126   6.365   3.315   8.168  0.2153  0.5628 -0.0827
 3644TIP3    H135127   6.333   3.333   8.257 -0.0015  1.5461 -0.3542
 3644TIP3    H235128   6.340   3.392   8.117 -0.9269 -0.5848 -1.3353
 3645TIP3   OH235129   6.952   3.062   8.373 -0.1531  0.3100 -0.0886
 3645TIP3    H135130   7.022   3.103   8.425  1.0609  0.9625 -2.0955
 3645TIP3    H235131   6.905   3.136   8.334 -0.6987 -0.1647 -0.3511
 3646TIP3   OH235132   0.728   6.303   2.298  0.2244 -0.3749  1.1348
 3646TIP3    H135133   0.681   6.327   2.218 -2.6625 -1.7285  2.3045
 3646TIP3    H235134   0.796   6.370   2.306 -0.4902  0.8241 -1.4767
 3647TIP3   OH235135   0.984   5.268   8.691 -0.3373 -0.5780  0.2044
 3647TIP3    H135136   1.047   5.233   8.755 -1.3641 -1.7097  0.6325
 3647TIP3    H235137   1.001   5.363   8.691 -1.0199 -0.3373  3.0417
 3648TIP3   OH235138   5.931   3.080   8.090 -0.1754 -0.1743  0.1384
 3648TIP3    H135139   5.975   3.027   8.023  0.4213  0.5273 -0.0248
 3648TIP3    H235140   5.898   3.015   8.153  0.7223 -0.7317  0.0523
 3649TIP3   OH235141   0.592   5.609   2.371  0.1553 -0.1727  0.5990
 3649TIP3    H135142   0.553   5.695   2.384  0.9901  0.4203 -0.6143
 3649TIP3    H235143   0.522   5.557   2.331 -0.1583  0.1348  0.7446
 3650TIP3   OH235144   0.289   7.089   7.403  0.3700  0.0311  0.3223
 3650TIP3    H135145   0.313   7.180   7.384  0.8970  0.0723  1.1350
 3650TIP3    H235146   0.317   7.075   7.493 -0.9136 -0.5324  0.6632
 3651TIP3   OH235147   2.311   4.707   8.246 -0.4814  0.2730 -0.0029
 3651TIP3    H135148   2.354   4.787   8.215 -0.6769  0.3967  0.0405
 3651TIP3    H235149   2.228   4.705   8.197 -0.9979  0.7083  0.8335
 3652TIP3   OH235150   1.768   3.966   0.765 -0.2956 -0.2004  0.6325
 3652TIP3    H135151   1.715   4.042   0.739  0.9636  1.0193  1.4887
 3652TIP3    H235152   1.731   3.940   0.850  0.8353  1.0714  1.5550
 3653TIP3   OH235153   3.011   6.391   8.060 -0.0892  0.5733 -0.4208
 3653TIP3    H135154   3.026   6.297   8.052 -0.3502  0.2654  1.9642
 3653TIP3    H235155   2.917   6.401   8.045 -0.3203  0.2208  0.6599
 3654TIP3   OH235156   2.949   3.388   0.033  0.4924 -0.2237  0.2638
 3654TIP3    H135157   3.005   3.363  -0.040 -0.2540 -0.7029 -0.1532
 3654TIP3    H235158   2.860   3.372   0.002  0.1958 -2.3180  1.9400
 3655TIP3   OH235159   3.625   4.484   9.907  0.4319 -0.0935 -0.1965
 3655TIP3    H135160   3.606   4.412   9.847 -1.6943  0.3785 -0.1548
 3655TIP3    H235161   3.560   4.551   9.886  1.7098  1.4260  0.4556
 3656TIP3   OH235162   2.116   5.438   2.018 -0.6226 -0.1365 -0.0218
 3656TIP3    H135163   2.112   5.529   2.047 -1.8160 -0.5338  1.1731
 3656TIP3    H235164   2.191   5.401   2.065 -0.2687  0.1549 -0.3439
 3657TIP3   OH235165   6.521   6.165   9.175  0.2124 -0.1045  0.0391
 3657TIP3    H135166   6.529   6.070   9.167 -0.8412 -0.1491 -0.6060
 3657TIP3    H235167   6.430   6.184   9.153  0.2587  1.0014  0.7334
 3658TIP3   OH235168   6.949   1.673   8.633  0.4594 -0.0040 -0.4986
 3658TIP3    H135169   7.029   1.675   8.687 -0.3270 -1.6263  0.8351
 3658TIP3    H235170   6.889   1.732   8.677  0.1560 -0.5578 -0.1618
 3659TIP3   OH235171   0.339   4.601   0.141 -0.2392 -0.0768  0.5063
 3659TIP3    H135172   0.282   4.619   0.066  0.5601  0.2265 -0.0432
 3659TIP3    H235173   0.337   4.505   0.149  0.3060 -0.1785 -0.4239
 3660TIP3   OH235174   5.932   3.778   9.658  0.0407  0.0503 -0.7553
 3660TIP3    H135175   5.972   3.829   9.729  0.4720 -0.6987 -0.4431
 3660TIP3    H235176   5.907   3.695   9.700 -1.7049  0.4202 -0.9791
 3661TIP3   OH235177   6.452   2.049   9.307  0.0776 -0.1655  0.1035
 3661TIP3    H135178   6.421   2.130   9.268  0.8327 -0.5169 -1.2819
 3661TIP3    H235179   6.537   2.032   9.265 -0.4635 -2.1134 -0.3166
 3662TIP3   OH235180   2.221   3.838   9.393 -0.3137 -0.4049 -0.2460
 3662TIP3    H135181   2.154   3.867   9.331 -1.2149  2.3796  1.8212
 3662TIP3    H235182   2.175   3.777   9.451 -0.9225  0.9441  0.7291
 3663TIP3   OH235183   3.054   3.056   9.389 -0.2508  0.7140  0.1086
 3663TIP3    H135184   3.135   3.052   9.441 -0.8581  0.4655  1.0542
 3663TIP3    H235185   3.006   3.130   9.426 -1.1698 -0.1195  0.6326
 3664TIP3   OH235186   2.559   2.258   8.583  0.8469 -0.2204 -0.2834
 3664TIP3    H135187   2.510   2.268   8.665 -1.0225  0.0243 -1.3653
 3664TIP3    H235188   2.558   2.345   8.543  0.4984 -0.6337 -1.2113
 3665TIP3   OH235189   4.607   2.906   7.169 -0.0522  0.0268  0.1410
 3665TIP3    H135190   4.681   2.955   7.133  1.0450 -2.1985 -0.8473
 3665TIP3    H235191   4.541   2.907   7.100  0.1948 -0.3327 -0.1044
 3666TIP3   OH235192   7.660   4.821   7.945 -0.4767 -0.2690  0.0349
 3666TIP3    H135193   7.684   4.777   7.863 -0.9391 -0.4498 -0.0089
 3666TIP3    H235194   7.579   4.777   7.973 -0.2818 -0.2611  0.6294
 3667TIP3   OH235195   6.791   3.500   1.166  0.0663  0.5431 -0.1024
 3667TIP3    H135196   6.727   3.508   1.237 -1.0313 -2.6476 -0.5692
 3667TIP3    H235197   6.761   3.562   1.099 -3.0889 -1.3205 -0.5992
 3668TIP3   OH235198   2.673   7.488   8.065  0.4532  0.3105  0.1748
 3668TIP3    H135199   2.671   7.422   8.134 -1.3447 -0.4477 -0.5623
 3668TIP3    H235200   2.699   7.440   7.986  1.2927  0.9357  0.0539
 3669TIP3   OH235201   1.169   0.631   8.952 -0.1719  0.3388 -0.8577
 3669TIP3    H135202   1.186   0.684   8.874  0.5288 -0.0426 -0.9751
 3669TIP3    H235203   1.229   0.557   8.944  0.4847  0.6927  0.4295
 3670TIP3   OH235204   7.048   4.224   0.919 -0.7430  0.7443  0.1833
 3670TIP3    H135205   7.138   4.220   0.887 -0.6595 -0.2607  0.5051
 3670TIP3    H235206   7.017   4.311   0.894  0.3586  1.1480  0.1860
 3671TIP3   OH235207   1.620   0.221   1.088  0.1730 -0.1554  0.1402
 3671TIP3    H135208   1.708   0.254   1.104  0.9401 -0.3867 -2.9376
 3671TIP3    H235209   1.611   0.222   0.993 -3.3554  0.2968  0.3346
 3672TIP3   OH235210   3.573   1.038   7.263  0.0718  0.6500  0.0270
 3672TIP3    H135211   3.508   1.086   7.315  0.4573 -0.6761  1.8416
 3672TIP3    H235212   3.622   1.106   7.217 -0.2235  1.9277  1.5081
 3673TIP3   OH235213   3.986   4.083   9.357  0.1919  0.3487  0.8970
 3673TIP3    H135214   4.056   4.070   9.292 -0.2443 -1.9276  0.8303
 3673TIP3    H235215   3.908   4.044   9.317 -1.4062  3.4447  0.6597
 3674TIP3   OH235216   5.454   6.514   8.070 -0.2724 -0.1303 -0.7874
 3674TIP3    H135217   5.496   6.523   7.984  0.4098  0.1008 -0.4327
 3674TIP3    H235218   5.385   6.581   8.069 -0.9573 -0.8330 -1.5546
 3675TIP3   OH235219   1.420   6.586   2.144 -0.0947  0.1490 -0.3285
 3675TIP3    H135220   1.384   6.614   2.228 -0.4049 -0.8827 -0.1047
 3675TIP3    H235221   1.442   6.667   2.099 -0.7180  0.7368  0.4021
 3676TIP3   OH235222   2.418   3.209   1.077  0.3565  0.0172 -0.0076
 3676TIP3    H135223   2.486   3.164   1.127 -1.0691 -1.4474  0.6911
 3676TIP3    H235224   2.379   3.141   1.022 -0.7474  0.7428 -0.1572
 3677TIP3   OH235225   2.412   2.601   7.931  0.5695 -0.1983 -0.2939
 3677TIP3    H135226   2.505   2.583   7.913  0.5740 -2.1306  1.2961
 3677TIP3    H235227   2.400   2.573   8.021 -1.3160  1.1647 -0.0882
 3678TIP3   OH235228   0.449   7.216   0.301 -0.3668 -0.4422 -0.4166
 3678TIP3    H135229   0.358   7.248   0.300 -0.1683  0.2240  0.8179
 3678TIP3    H235230   0.478   7.232   0.391  1.5504  1.0123 -1.2365
 3679TIP3   OH235231   2.528   6.835   2.141  0.1920 -0.2155 -0.1462
 3679TIP3    H135232   2.446   6.874   2.111  0.5137 -0.6550 -1.6901
 3679TIP3    H235233   2.594   6.901   2.122  0.3219 -0.2306  0.2452
 3680TIP3   OH235234   0.111   2.185   1.360 -0.5962 -0.0012 -0.2943
 3680TIP3    H135235   0.194   2.206   1.402 -1.1511  0.8810  0.4010
 3680TIP3    H235236   0.084   2.102   1.401 -0.6061  0.2992  0.3212
 3681TIP3   OH235237   4.726   1.502   9.897 -0.2495  0.0679  0.4609
 3681TIP3    H135238   4.711   1.565   9.967  0.8867  0.8951 -0.0114
 3681TIP3    H235239   4.813   1.523   9.864 -0.4479 -0.8078 -0.6832
 3682TIP3   OH235240   5.435   4.337   7.910 -0.3529 -0.5213  0.1211
 3682TIP3    H135241   5.430   4.371   7.821  0.0911 -1.3329 -0.2191
 3682TIP3    H235242   5.422   4.243   7.902  0.2977 -0.6869  0.8408
 3683TIP3   OH235243   2.233   2.813   1.186  0.1119  0.1436  0.1973
 3683TIP3    H135244   2.144   2.848   1.177  0.2437 -0.0779 -3.0776
 3683TIP3    H235245   2.221   2.718   1.184  0.4257  0.0884 -1.9025
 3684TIP3   OH235246   5.449   5.279   8.611 -0.2090 -0.0403  0.6936
 3684TIP3    H135247   5.487   5.193   8.628  0.1013 -0.1160 -0.3268
 3684TIP3    H235248   5.500   5.314   8.539  0.6304  1.6425  2.0490
 3685TIP3   OH235249   4.343   2.292   7.646 -0.6660 -0.7701 -0.2115
 3685TIP3    H135250   4.433   2.263   7.629 -0.3329  0.7863 -1.3793
 3685TIP3    H235251   4.327   2.267   7.737  1.3101 -0.2831  0.3265
 3686TIP3   OH235252   1.372   5.433   1.195 -0.1872  0.2831  0.3071
 3686TIP3    H135253   1.440   5.458   1.258  0.1610 -0.8167  0.3847
 3686TIP3    H235254   1.393   5.483   1.116 -0.9024  2.0483  1.1577
 3687TIP3   OH235255   2.632   2.108   1.259 -0.6697  0.0740  0.5043
 3687TIP3    H135256   2.703   2.047   1.280  0.4349  1.5848  1.4304
 3687TIP3    H235257   2.656   2.142   1.173 -1.6140 -1.2082 -0.2901
 3688TIP3   OH235258   1.921   0.289   1.163  0.3557  0.2946  0.4604
 3688TIP3    H135259   1.907   0.194   1.154 -0.6515  0.5038 -0.3754
 3688TIP3    H235260   1.930   0.302   1.257  0.2851 -0.6119  0.6063
 3689TIP3   OH235261   4.859   6.729   6.900 -0.3579 -0.0626  0.5351
 3689TIP3    H135262   4.840   6.770   6.984  4.1606  0.2848  1.6432
 3689TIP3    H235263   4.859   6.801   6.837  1.1502  0.6326  1.2714
 3690TIP3   OH235264   0.789   0.892   9.621  0.1550 -0.4444  0.3710
 3690TIP3    H135265   0.848   0.829   9.663 -0.6418 -1.2167  0.3629
 3690TIP3    H235266   0.818   0.977   9.653  0.4774 -0.9127  1.3635
 3691TIP3   OH235267   6.016   1.351   2.548 -0.2679 -0.0100 -0.3974
 3691TIP3    H135268   6.075   1.279   2.572  0.5629  0.8542  0.2511
 3691TIP3    H235269   5.960   1.363   2.624 -2.8894 -2.2613 -1.7726
 3692TIP3   OH235270   1.804   7.667   0.772 -0.1917  0.1996 -0.4311
 3692TIP3    H135271   1.746   7.641   0.700  1.0563 -0.0590 -1.3687
 3692TIP3    H235272   1.811   7.762   0.763 -1.5841  0.4235  0.5674
 3693TIP3   OH235273   3.206   6.203   8.425  0.3023  0.2696  0.3782
 3693TIP3    H135274   3.178   6.235   8.339 -0.5106 -2.8088 -0.6441
 3693TIP3    H235275   3.174   6.269   8.486 -3.2985  0.3977 -1.3402
 3694TIP3   OH235276   0.478   3.058   1.959  0.0423  0.6993 -0.6557
 3694TIP3    H135277   0.430   3.072   1.878  0.4922  1.4342 -0.8115
 3694TIP3    H235278   0.447   3.127   2.018 -1.5575 -0.8426  0.4372
 3695TIP3   OH235279   4.965   1.145   8.308 -0.0456  0.2926  0.4406
 3695TIP3    H135280   5.050   1.141   8.353  1.1066  0.3147 -1.6209
 3695TIP3    H235281   4.985   1.185   8.223 -1.8882 -0.8399 -0.5786
 3696TIP3   OH235282   2.870   7.071   0.792 -0.4470 -0.1119  0.5793
 3696TIP3    H135283   2.896   6.980   0.780  1.5351  0.4721  0.1323
 3696TIP3    H235284   2.952   7.119   0.803 -1.4136  1.6859  0.4253
 3697TIP3   OH235285   3.665   6.251   7.807  0.3756 -0.1547 -0.0969
 3697TIP3    H135286   3.709   6.179   7.760  1.4905  1.4001 -1.5532
 3697TIP3    H235287   3.573   6.241   7.784  0.9136  0.8080 -3.1870
 3698TIP3   OH235288   7.343   4.481   1.608 -0.4548  0.6339 -0.1223
 3698TIP3    H135289   7.255   4.449   1.586 -0.0940  0.2474 -1.0762
 3698TIP3    H235290   7.400   4.406   1.595 -0.1048  0.5861  1.5451
 3699TIP3   OH235291   6.301   2.930   9.376 -0.0468  0.3385  0.3234
 3699TIP3    H135292   6.312   3.015   9.332  1.3155  0.1751  0.2988
 3699TIP3    H235293   6.288   2.952   9.468 -1.2076  0.6194  0.1034
 3700TIP3   OH235294   3.051   0.762   2.138  0.0825  0.1866  0.3942
 3700TIP3    H135295   3.013   0.847   2.158  1.9037  1.1127  0.1302
 3700TIP3    H235296   2.986   0.720   2.082 -0.9731  1.2825  0.7513
 3701TIP3   OH235297   3.530   4.882   7.102  0.1645  0.5071 -0.2225
 3701TIP3    H135298   3.469   4.825   7.055  0.6140 -0.1804  0.0157
 3701TIP3    H235299   3.605   4.891   7.044  0.7359 -0.3728  0.3605
 3702TIP3   OH235300   0.909   1.195   1.527 -0.1627  0.0594 -0.2164
 3702TIP3    H135301   0.972   1.232   1.588  0.1335 -1.5111  0.4667
 3702TIP3    H235302   0.939   1.225   1.441  2.0440 -1.3239  0.0012
 3703TIP3   OH235303   5.689   4.497   7.947 -0.1228  0.3204  0.2731
 3703TIP3    H135304   5.637   4.422   7.976 -0.4799  0.6500  0.4993
 3703TIP3    H235305   5.678   4.500   7.852  1.8627 -1.3828 -0.0845
 3704TIP3   OH235306   3.411   7.704   0.144 -0.3853 -0.8316  0.2830
 3704TIP3    H135307   3.426   7.617   0.106 -1.5753 -0.3407 -1.4490
 3704TIP3    H235308   3.330   7.695   0.195 -0.9590 -0.5852 -0.5565
 3705TIP3   OH235309   1.077   1.162   2.334  0.5291 -0.0559 -0.4196
 3705TIP3    H135310   1.032   1.158   2.250  1.6967 -1.0410 -1.0378
 3705TIP3    H235311   1.010   1.190   2.396 -0.2043  1.3266 -1.7666
 3706TIP3   OH235312   2.983   2.544   0.352  0.4252 -0.1422  0.4726
 3706TIP3    H135313   3.034   2.612   0.307  0.1322 -0.8947 -1.0764
 3706TIP3    H235314   2.910   2.592   0.391  1.0015  0.6228  0.6502
 3707TIP3   OH235315   1.105   4.095   0.799  0.0479  0.3264  0.0557
 3707TIP3    H135316   1.101   4.003   0.771 -0.4247  0.0837  0.8819
 3707TIP3    H235317   1.179   4.099   0.859  0.8251  0.7653 -0.9062
 3708TIP3   OH235318   1.685   6.314   2.907  0.0118  0.0457  0.1282
 3708TIP3    H135319   1.682   6.406   2.936  1.6557  0.2967 -0.3780
 3708TIP3    H235320   1.727   6.268   2.980  0.7175  0.0097 -0.2936
 3709TIP3   OH235321   0.889   7.140   9.599 -1.3063 -0.1443 -0.1152
 3709TIP3    H135322   0.907   7.077   9.529 -2.9686  0.0616 -0.7711
 3709TIP3    H235323   0.873   7.223   9.553  0.0274  0.5916  0.6888
 3710TIP3   OH235324   0.420   0.286   1.948 -0.1357 -0.3841  0.3579
 3710TIP3    H135325   0.444   0.240   1.867  0.0998 -2.9491  1.7593
 3710TIP3    H235326   0.327   0.267   1.960 -0.1325 -0.1537  0.7600
 3711TIP3   OH235327   5.665   4.343   0.016 -0.2450  0.2373 -0.0837
 3711TIP3    H135328   5.665   4.279   0.087  0.8898 -1.3677 -1.4447
 3711TIP3    H235329   5.749   4.389   0.026 -0.2920  0.3313 -0.1174
 3712TIP3   OH235330   4.322   0.397   8.878  0.2909 -0.0388 -0.2655
 3712TIP3    H135331   4.364   0.413   8.793  0.7323 -0.5340 -0.1451
 3712TIP3    H235332   4.246   0.344   8.857 -0.4666  1.1103 -0.5207
 3713TIP3   OH235333   6.185   3.819   8.897  0.2677  0.2118 -0.0810
 3713TIP3    H135334   6.134   3.739   8.884  0.5434 -0.1036  0.7596
 3713TIP3    H235335   6.226   3.835   8.812  0.6130 -0.8118 -0.1141
 3714TIP3   OH235336   1.647   1.745   2.099 -0.0261  0.5221  0.5617
 3714TIP3    H135337   1.666   1.662   2.056  0.7633  1.0003 -0.0674
 3714TIP3    H235338   1.728   1.795   2.090 -0.6880  1.5951  0.3428
 3715TIP3   OH235339   3.618   3.333   9.492  0.3651 -0.2431 -0.2182
 3715TIP3    H135340   3.694   3.392   9.500  0.0661  0.3017 -1.2131
 3715TIP3    H235341   3.607   3.296   9.579  0.2259  1.6066  0.5914
 3716TIP3   OH235342   5.655   2.222   9.440  0.2583  0.2530  0.2292
 3716TIP3    H135343   5.660   2.207   9.535  2.9351 -1.4029 -0.0540
 3716TIP3    H235344   5.732   2.275   9.421 -0.9224  1.6302 -0.9229
 3717TIP3   OH235345   3.798   2.472   9.773  0.2996  0.1484  0.3162
 3717TIP3    H135346   3.873   2.522   9.805  1.6061 -1.3187 -0.3285
 3717TIP3    H235347   3.821   2.449   9.683 -1.6093  0.9229 -0.4155
 3718TIP3   OH235348   3.783   4.233   0.410  0.1488  0.0882 -0.0696
 3718TIP3    H135349   3.855   4.190   0.456 -0.1948 -1.5684 -1.0121
 3718TIP3    H235350   3.820   4.256   0.325 -0.1076  0.3037 -0.1243
 3719TIP3   OH235351   5.963   1.915   8.708 -0.0536  0.3332  0.0218
 3719TIP3    H135352   6.027   1.845   8.714  0.0284  0.4325  0.3441
 3719TIP3    H235353   5.992   1.968   8.633  0.3551  0.4924  0.2901
 3720TIP3   OH235354   7.367   5.354   1.075 -0.3888 -0.3317  0.0103
 3720TIP3    H135355   7.328   5.380   0.992  0.7721 -0.3803 -0.5651
 3720TIP3    H235356   7.460   5.340   1.055 -0.2931 -1.3632  1.0902
 3721TIP3   OH235357   5.061   1.986   0.202  0.4923  0.5126  0.4316
 3721TIP3    H135358   4.982   2.040   0.200  0.0545 -0.1232  0.2720
 3721TIP3    H235359   5.029   1.896   0.198  1.3216  0.2485 -2.8252
 3722TIP3   OH235360   1.179   3.059   8.038  0.0939  0.0221  0.0459
 3722TIP3    H135361   1.202   3.022   8.123 -1.8313  1.1301  1.1099
 3722TIP3    H235362   1.251   3.120   8.018  1.5029 -1.6126 -0.0665
 3723TIP3   OH235363   0.260   2.677   9.238 -0.6752  0.0984  0.0095
 3723TIP3    H135364   0.227   2.672   9.148  0.6804  0.9141 -0.5505
 3723TIP3    H235365   0.322   2.604   9.244  1.6191  1.8951 -0.7676
 3724TIP3   OH235366  -0.014   5.416   0.130 -0.2212  0.5628  0.1319
 3724TIP3    H135367   0.069   5.395   0.173 -0.2366 -0.6062 -0.3722
 3724TIP3    H235368  -0.071   5.341   0.149 -0.2114 -0.0449 -1.9391
 3725TIP3   OH235369   6.949   0.312   9.708  0.0516 -0.6763 -0.1748
 3725TIP3    H135370   6.928   0.382   9.646 -0.2834 -0.3437  0.3101
 3725TIP3    H235371   6.899   0.236   9.677 -1.1053 -0.1639  0.3978
 3726TIP3   OH235372   3.587   6.319   1.103  0.1326  0.0028  0.3987
 3726TIP3    H135373   3.556   6.230   1.122  0.0405 -0.8553 -3.0931
 3726TIP3    H235374   3.510   6.362   1.065  0.7903  0.8475  0.0183
 3727TIP3   OH235375   2.287   3.660   0.150 -0.3776 -0.0069  0.0526
 3727TIP3    H135376   2.250   3.616   0.226  0.5155 -0.0470  0.4822
 3727TIP3    H235377   2.212   3.680   0.094 -0.9891 -0.4138  0.7164
 3728TIP3   OH235378   0.664   1.178   9.990  0.5762  0.2296  0.3511
 3728TIP3    H135379   0.693   1.257   9.945 -2.2100  1.5758  0.6959
 3728TIP3    H235380   0.627   1.124   9.920  1.1936 -0.1443  0.3092
 3729TIP3   OH235381   5.164   2.757   0.732 -0.2994 -0.1437 -0.2890
 3729TIP3    H135382   5.153   2.670   0.770  0.4802 -0.0058  0.2749
 3729TIP3    H235383   5.258   2.775   0.740 -0.6927  1.5026  1.3367
 3730TIP3   OH235384   4.821   7.171   1.275 -0.2067  0.2946 -0.2350
 3730TIP3    H135385   4.792   7.085   1.307  1.4001 -0.4358 -0.6052
 3730TIP3    H235386   4.812   7.165   1.180 -0.5503  0.7292 -0.2311
 3731TIP3   OH235387   6.399   1.123   9.344 -0.4994 -0.1675 -0.3382
 3731TIP3    H135388   6.429   1.209   9.314 -2.0069  0.5423  0.1166
 3731TIP3    H235389   6.456   1.102   9.418 -1.3369  1.3356  0.7676
 3732TIP3   OH235390   4.529   0.068   6.767 -0.0775  0.3486 -0.3469
 3732TIP3    H135391   4.535   0.140   6.830  3.2763 -0.6836  0.7101
 3732TIP3    H235392   4.615   0.064   6.725  1.2096 -4.8542  1.9279
 3733TIP3   OH235393   1.552   1.082   9.092 -0.1817  0.3075 -0.0529
 3733TIP3    H135394   1.527   1.173   9.072  1.0901  1.2672  2.3120
 3733TIP3    H235395   1.563   1.081   9.187  1.3140 -1.9519 -0.1883
 3734TIP3   OH235396   4.141   4.770   9.162 -0.0196  0.8419 -0.1264
 3734TIP3    H135397   4.184   4.685   9.173 -0.8193  0.5815  1.3337
 3734TIP3    H235398   4.129   4.802   9.252 -2.5149  1.0448 -0.4716
 3735TIP3   OH235399   3.392   2.437   8.930 -0.4306 -0.1429 -0.1192
 3735TIP3    H135400   3.476   2.482   8.922 -0.9582  0.8160 -0.4491
 3735TIP3    H235401   3.347   2.483   9.001 -0.1521 -1.5287  0.9970
 3736TIP3   OH235402   3.176   7.584   7.279  0.0158  0.4630  0.1684
 3736TIP3    H135403   3.097   7.578   7.226  0.9051  1.6785 -1.3733
 3736TIP3    H235404   3.194   7.494   7.306 -0.9494 -0.0652 -0.8719
 3737TIP3   OH235405   1.907   6.176   9.741 -0.4810  0.2744 -0.4180
 3737TIP3    H135406   1.862   6.225   9.672 -2.4942 -1.0272 -0.0984
 3737TIP3    H235407   1.890   6.225   9.821  1.5109  1.5574 -0.7006
 3738TIP3   OH235408   6.429   1.820   2.411  0.1230  0.0730 -0.1058
 3738TIP3    H135409   6.370   1.744   2.404  0.2780  0.0316 -1.0035
 3738TIP3    H235410   6.384   1.880   2.470 -0.1890 -0.5439  0.2939
 3739TIP3   OH235411   0.545   0.177   8.777 -0.2366  0.2902 -0.2957
 3739TIP3    H135412   0.457   0.166   8.813 -0.1111  1.2981  0.3595
 3739TIP3    H235413   0.574   0.262   8.811  1.7632 -0.8850  1.1771
 3740TIP3   OH235414   1.459   2.095   9.059 -0.1722  0.2176 -0.2182
 3740TIP3    H135415   1.395   2.043   9.012 -0.4365  2.3076 -2.3604
 3740TIP3    H235416   1.409   2.167   9.098  0.2755 -0.6116  2.0325
 3741TIP3   OH235417   1.130   6.084   2.379  0.0110  0.1295  0.3027
 3741TIP3    H135418   1.044   6.043   2.392  0.0886 -0.1659 -0.1047
 3741TIP3    H235419   1.172   6.080   2.465  0.0825 -0.8002  0.2347
 3742TIP3   OH235420   7.005   0.193   1.540  0.2850 -0.5135  0.2544
 3742TIP3    H135421   7.034   0.245   1.466 -0.9394  1.0471  0.8295
 3742TIP3    H235422   7.046   0.235   1.616  1.0127 -1.7062  0.5495
 3743TIP3   OH235423   7.539   0.660   0.095  0.1460 -0.0503 -0.1026
 3743TIP3    H135424   7.540   0.729   0.162  1.0708 -0.9883  0.8952
 3743TIP3    H235425   7.631   0.650   0.070 -0.0431 -0.5720 -0.5924
 3744TIP3   OH235426   7.271   1.529   8.471 -0.3168  0.0642 -0.1903
 3744TIP3    H135427   7.199   1.468   8.483 -0.7683  0.7174  0.5429
 3744TIP3    H235428   7.291   1.525   8.378 -0.0787 -1.4565 -0.1032
 3745TIP3   OH235429   2.754   4.978   8.820  0.8683  0.1336 -0.6208
 3745TIP3    H135430   2.789   4.895   8.787  2.2036  0.7776 -0.9058
 3745TIP3    H235431   2.683   5.001   8.759 -0.2575 -1.3154  0.1002
 3746TIP3   OH235432   1.138   4.622   2.574 -0.0769  0.5871 -0.2982
 3746TIP3    H135433   1.119   4.531   2.551 -0.0313  0.8276 -1.3151
 3746TIP3    H235434   1.230   4.634   2.550  0.4684  0.3925  1.5302
 3747TIP3   OH235435   4.887   7.165   2.520 -0.4859 -0.0787  0.8237
 3747TIP3    H135436   4.842   7.211   2.448 -0.9239  1.3043  1.9257
 3747TIP3    H235437   4.817   7.145   2.582  0.2659  1.5995  2.3093
 3748TIP3   OH235438   1.411   7.429   0.930  0.0820  0.2073  0.8040
 3748TIP3    H135439   1.411   7.382   0.846 -0.8379  0.8467  0.4316
 3748TIP3    H235440   1.437   7.362   0.994 -0.9089 -0.7534  0.2446
 3749TIP3   OH235441   6.160   0.601   9.175 -0.5035 -0.3993  0.1745
 3749TIP3    H135442   6.250   0.569   9.179 -0.4937 -0.3492  0.3775
 3749TIP3    H235443   6.149   0.633   9.085 -0.0754  0.3011  0.3688
 3750TIP3   OH235444   1.236   1.658   2.077  0.4080 -0.3059  0.2772
 3750TIP3    H135445   1.279   1.573   2.078  0.7317 -0.1604 -0.4131
 3750TIP3    H235446   1.230   1.680   1.984  1.0635  0.7956  0.4801
 3751TIP3   OH235447   1.259   2.046   1.018 -0.4454  0.1022  0.0375
 3751TIP3    H135448   1.200   1.998   0.961  0.6439 -0.7012 -0.4544
 3751TIP3    H235449   1.300   1.979   1.072  0.0795  0.6287  0.3064
 3752TIP3   OH235450   0.978   2.571   8.294  0.1553 -0.4802  0.4974
 3752TIP3    H135451   1.048   2.541   8.352  0.0559  0.2548  1.0135
 3752TIP3    H235452   0.962   2.497   8.236  2.2190 -0.2549 -0.4612
 3753TIP3   OH235453   5.600   2.633   9.300 -0.8921 -0.3149 -0.1969
 3753TIP3    H135454   5.584   2.549   9.343 -0.3596 -0.9746 -1.2298
 3753TIP3    H235455   5.659   2.680   9.360  0.0271 -1.3056 -0.3034
 3754TIP3   OH235456   1.088   1.673   0.499  0.1522  0.0107 -0.0544
 3754TIP3    H135457   1.162   1.708   0.549  0.5090 -0.0049 -0.5636
 3754TIP3    H235458   1.102   1.704   0.409  1.6679 -3.1104 -1.0569
 3755TIP3   OH235459   3.145   5.421   9.684  0.0144  0.5243  0.5214
 3755TIP3    H135460   3.149   5.325   9.680 -0.1017  0.4346  1.9751
 3755TIP3    H235461   3.143   5.448   9.592 -0.2122 -0.8739  0.0753
 3756TIP3   OH235462   2.367   1.770   9.688 -0.2595  0.1972  0.4006
 3756TIP3    H135463   2.303   1.838   9.712 -2.3320 -1.4071 -0.2198
 3756TIP3    H235464   2.340   1.693   9.738 -0.6991 -1.3689 -2.0445
 3757TIP3   OH235465   2.445   1.336   7.906 -0.0349 -0.0442  0.5250
 3757TIP3    H135466   2.367   1.283   7.922 -0.3230 -0.2792 -1.3991
 3757TIP3    H235467   2.504   1.315   7.979 -1.7518  0.1422  2.0117
 3758TIP3   OH235468   6.767   6.065   0.717 -0.2311 -0.0420 -0.2449
 3758TIP3    H135469   6.843   6.010   0.696 -1.3906 -2.5635  1.5766
 3758TIP3    H235470   6.703   6.044   0.649 -0.6381 -0.9197  0.3943
 3759TIP3   OH235471   5.076   2.129   8.223  0.3814 -0.6919  0.0832
 3759TIP3    H135472   5.145   2.095   8.167  1.6732 -0.9912  1.7541
 3759TIP3    H235473   5.053   2.056   8.280  0.8573  0.2277  1.5289
 3760TIP3   OH235474   7.381   0.519   9.391  0.0818  0.3402  0.2170
 3760TIP3    H135475   7.315   0.479   9.334 -1.3064  0.3827  1.7190
 3760TIP3    H235476   7.347   0.505   9.479  2.8636 -1.0209  1.1718
 3761TIP3   OH235477   3.182   6.421   7.520  0.3414  0.0482  0.0425
 3761TIP3    H135478   3.215   6.416   7.430 -1.1856  0.8589 -0.6010
 3761TIP3    H235479   3.180   6.515   7.540 -2.4062  0.1670 -0.3483
 3762TIP3   OH235480   2.098   6.633   1.966 -0.4119 -0.2079  0.1701
 3762TIP3    H135481   2.087   6.621   2.061  0.4880 -0.1810  0.2854
 3762TIP3    H235482   2.102   6.544   1.932  0.5776 -0.2423  0.3321
 3763TIP3   OH235483   1.627   1.764   1.466 -0.5812  0.6800 -0.1240
 3763TIP3    H135484   1.575   1.826   1.415  0.6733  1.3344 -0.6477
 3763TIP3    H235485   1.718   1.785   1.445 -0.0676 -0.0478  1.2050
 3764TIP3   OH235486   0.159   2.339   8.194  0.3853  0.3210 -0.3167
 3764TIP3    H135487   0.180   2.430   8.214  0.5747 -0.2250  2.3807
 3764TIP3    H235488   0.129   2.302   8.278 -2.1264 -1.4577 -1.8556
 3765TIP3   OH235489   5.405   7.507   9.561  0.1881 -0.0607  0.1390
 3765TIP3    H135490   5.424   7.525   9.652  0.3462  0.3867  0.0157
 3765TIP3    H235491   5.491   7.498   9.519  0.1884  2.3512 -0.4946
 3766TIP3   OH235492   5.976   5.777   7.858 -0.1776  0.3909  0.2872
 3766TIP3    H135493   6.011   5.735   7.937 -2.1713 -2.8133 -0.3443
 3766TIP3    H235494   5.959   5.704   7.798 -0.6232  2.5234 -2.3556
 3767TIP3   OH235495   0.036   3.904   0.870  0.1664 -0.3940 -0.2719
 3767TIP3    H135496   0.108   3.858   0.829  0.2350  1.5189 -2.5086
 3767TIP3    H235497   0.063   3.915   0.961  1.8157 -1.3613 -0.6167
 3768TIP3   OH235498   2.156   7.077   6.990  0.3031 -0.4615 -0.5490
 3768TIP3    H135499   2.220   7.036   6.932  1.5282 -0.0665  0.4794
 3768TIP3    H235500   2.196   7.073   7.076 -0.9768  0.0083  0.0884
 3769TIP3   OH235501   7.452   4.323   7.694  0.1714 -0.9792 -0.0021
 3769TIP3    H135502   7.527   4.370   7.729  0.6698 -1.9039  0.2063
 3769TIP3    H235503   7.478   4.230   7.697 -1.0898 -1.3439  0.3586
 3770TIP3   OH235504   0.952   5.277   0.979 -0.2944 -0.2633  0.1972
 3770TIP3    H135505   0.889   5.347   0.998 -2.4095 -2.0187  0.1076
 3770TIP3    H235506   0.936   5.212   1.048  0.8290 -1.1447 -0.3461
 3771TIP3   OH235507   1.743   1.886   8.106  0.7396  0.1948 -0.8675
 3771TIP3    H135508   1.686   1.951   8.065 -0.0304 -0.4981 -0.9342
 3771TIP3    H235509   1.827   1.930   8.116  0.1044  1.3618 -0.4646
 3772TIP3   OH235510   6.512   3.105   1.183 -0.6665 -0.3537 -0.7131
 3772TIP3    H135511   6.584   3.162   1.212 -0.3980 -0.4943 -1.0936
 3772TIP3    H235512   6.504   3.040   1.253 -1.8778  0.9217  0.3957
 3773TIP3   OH235513   5.102   2.896   8.758 -0.4296  0.5680  0.4733
 3773TIP3    H135514   5.181   2.909   8.706  0.0334  1.4659  1.3532
 3773TIP3    H235515   5.129   2.838   8.829 -0.3732  1.3526  1.1190
 3774TIP3   OH235516   6.966   1.496   8.256  0.1593 -0.2180 -0.1091
 3774TIP3    H135517   6.958   1.481   8.162  1.3102  1.4276 -0.5011
 3774TIP3    H235518   6.971   1.591   8.265  1.3921 -0.3893  1.4857
 3775TIP3   OH235519   2.927   1.698   7.396 -0.0222 -0.1267 -0.2490
 3775TIP3    H135520   2.905   1.632   7.461  1.1064 -1.0670 -0.7791
 3775TIP3    H235521   2.965   1.770   7.446 -2.4144  0.7314  0.4687
 3776TIP3   OH235522   5.260   7.176   8.592  0.5641 -0.6245  0.3003
 3776TIP3    H135523   5.165   7.188   8.593  0.6488  0.0789  1.2876
 3776TIP3    H235524   5.289   7.220   8.511 -0.0312 -1.6674 -0.5026
 3777TIP3   OH235525   2.052   6.528   9.924  0.4526  0.6259 -0.4801
 3777TIP3    H135526   2.088   6.596   9.867  2.6065  1.1904  1.4282
 3777TIP3    H235527   2.006   6.577   9.993  2.5273  0.2575  1.2433
 3778TIP3   OH235528   1.623   3.290   7.423  0.1659  0.2233 -0.4777
 3778TIP3    H135529   1.630   3.317   7.332  1.1423 -1.6557 -0.9940
 3778TIP3    H235530   1.546   3.234   7.426  0.3438 -0.0084 -0.2232
 3779TIP3   OH235531   1.716   0.532   0.701 -0.2865  0.1927 -0.1891
 3779TIP3    H135532   1.685   0.561   0.615  0.9015  1.6850 -0.1622
 3779TIP3    H235533   1.810   0.517   0.688 -0.5902 -2.4386  0.1612
 3780TIP3   OH235534   1.452   2.248   8.124  0.1037 -0.1406 -0.2626
 3780TIP3    H135535   1.477   2.258   8.216 -0.7507 -1.8884  0.2081
 3780TIP3    H235536   1.357   2.238   8.127  0.2632 -2.7160 -1.0149
 3781TIP3   OH235537   6.210   1.185   1.144  0.1787  0.2928  0.3710
 3781TIP3    H135538   6.127   1.152   1.176  1.2590 -0.3246  2.7208
 3781TIP3    H235539   6.258   1.108   1.115 -0.5897  0.7887 -2.5406
 3782TIP3   OH235540   7.342   2.889   0.688  0.4736  0.4511  0.2319
 3782TIP3    H135541   7.291   2.880   0.769  0.9782  0.5330  0.5632
 3782TIP3    H235542   7.366   2.981   0.684 -2.1486  1.1888 -1.6218
 3783TIP3   OH235543   3.377   5.735   7.510  0.1281 -0.9483  0.3648
 3783TIP3    H135544   3.457   5.788   7.515 -0.3244 -0.1830 -0.2352
 3783TIP3    H235545   3.311   5.788   7.555 -0.1241 -1.4093  0.5358
 3784TIP3   OH235546   1.563   1.155   8.494 -0.2133 -0.2436 -0.4848
 3784TIP3    H135547   1.620   1.179   8.421 -0.1892 -1.6592 -0.9600
 3784TIP3    H235548   1.548   1.061   8.483 -0.2715 -0.4769  1.3002
 3785TIP3   OH235549   6.479   6.160   2.010  0.1480 -0.3634  0.1664
 3785TIP3    H135550   6.467   6.069   2.035  1.2600 -0.1762  1.5061
 3785TIP3    H235551   6.425   6.210   2.072 -0.0245 -0.0771 -0.2098
 3786TIP3   OH235552   2.948   0.112   0.163  0.3888 -0.4272 -0.4416
 3786TIP3    H135553   2.893   0.071   0.097  0.1008 -0.5800 -0.1108
 3786TIP3    H235554   2.887   0.144   0.229  0.7181 -0.9873  0.1513
 3787TIP3   OH235555   1.347   2.644   7.603 -0.3867  0.2238  0.0142
 3787TIP3    H135556   1.270   2.587   7.601 -1.4988  1.6742 -1.3337
 3787TIP3    H235557   1.339   2.692   7.685 -1.2758  0.7592 -0.3581
 3788TIP3   OH235558   1.905   4.140   8.958  0.2571 -0.0871 -0.3772
 3788TIP3    H135559   1.965   4.207   8.927  1.0275 -0.4035  0.3747
 3788TIP3    H235560   1.878   4.170   9.044  0.9751 -0.9422  0.1673
 3789TIP3   OH235561   3.212   7.134   2.688  0.5023  0.3308 -0.1661
 3789TIP3    H135562   3.158   7.084   2.627 -2.2671  1.4101  1.2170
 3789TIP3    H235563   3.206   7.085   2.770  1.7068  0.4945  0.0425
 3790TIP3   OH235564   1.585   2.406   0.004  0.4867  0.3853 -0.2516
 3790TIP3    H135565   1.538   2.327  -0.022  1.2956 -0.5635  1.0694
 3790TIP3    H235566   1.668   2.402  -0.045  1.6640 -0.9922  1.7034
 3791TIP3   OH235567   2.995   1.224   0.138 -0.8733 -0.3903 -0.0856
 3791TIP3    H135568   2.968   1.314   0.122  1.0791  0.3509  0.4776
 3791TIP3    H235569   3.023   1.222   0.229  1.4174 -0.8639 -0.7122
 3792TIP3   OH235570   3.648   2.862   1.240  0.5859  0.5161 -0.1116
 3792TIP3    H135571   3.606   2.939   1.277 -0.0014  0.9535 -1.6131
 3792TIP3    H235572   3.663   2.884   1.148  1.8413 -0.5779 -0.2062
 3793TIP3   OH235573   5.887   5.308   0.488 -0.0419  0.3537  0.3706
 3793TIP3    H135574   5.926   5.312   0.575  0.0579  1.6192  0.2873
 3793TIP3    H235575   5.961   5.320   0.428  0.0139 -1.3028  0.0585
 3794TIP3   OH235576   5.268   1.248   0.274 -0.1364  0.3248 -0.6334
 3794TIP3    H135577   5.325   1.186   0.229 -0.7689 -0.4476 -0.4000
 3794TIP3    H235578   5.197   1.265   0.212 -1.6714 -1.7011  0.4612
 3795TIP3   OH235579   6.952   1.656   2.691 -0.1495  0.4095  0.3217
 3795TIP3    H135580   6.947   1.637   2.785 -0.1955  0.2021  0.2779
 3795TIP3    H235581   7.016   1.594   2.657 -0.5391  0.1130  0.1230
 3796TIP3   OH235582   0.660   5.938   9.715  0.3262 -0.0295  0.1926
 3796TIP3    H135583   0.603   5.889   9.655  0.9038  1.0791 -1.3088
 3796TIP3    H235584   0.607   6.013   9.742  0.2281 -0.2895  0.7343
 3797TIP3   OH235585   0.839   7.317   2.440  0.0121  0.5513 -0.1155
 3797TIP3    H135586   0.755   7.338   2.398  0.6908  0.5661 -1.5088
 3797TIP3    H235587   0.905   7.337   2.374  1.0827 -0.1491  0.7042
 3798TIP3   OH235588   1.001   3.140   8.791  0.1328  0.6792  0.2509
 3798TIP3    H135589   1.095   3.132   8.805  0.2544  2.1481  0.4167
 3798TIP3    H235590   0.963   3.068   8.843  1.2094 -0.9847 -1.1492
 3799TIP3   OH235591   4.627   6.961  10.007  0.3407  0.4830  0.4131
 3799TIP3    H135592   4.583   7.041   9.976 -0.1324 -0.0882 -0.4125
 3799TIP3    H235593   4.681   6.934   9.933 -0.9517 -1.0082 -0.0318
 3800TIP3   OH235594   6.970   4.514   8.583  0.1161 -0.0963 -0.0509
 3800TIP3    H135595   6.988   4.603   8.554 -2.5067  0.7009  0.4816
 3800TIP3    H235596   6.922   4.525   8.665  3.1312 -2.1566  2.1939
 3801TIP3   OH235597   2.825   1.036   8.748  0.2221  0.1269 -0.4640
 3801TIP3    H135598   2.853   0.949   8.778  1.8196  1.0586  0.8611
 3801TIP3    H235599   2.746   1.054   8.799  0.9947  0.2473  0.7311
 3802TIP3   OH235600   1.810   6.875   9.198 -0.2792 -0.0827 -0.1697
 3802TIP3    H135601   1.728   6.880   9.150  0.4535 -3.1122 -2.0018
 3802TIP3    H235602   1.803   6.796   9.251  1.1004  0.1167  0.3753
 3803TIP3   OH235603   1.833   1.557   9.256  0.0314  0.0062 -0.4631
 3803TIP3    H135604   1.826   1.607   9.338  0.1845  1.4963 -1.3144
 3803TIP3    H235605   1.907   1.499   9.269 -1.1891 -1.2731  1.1947
 3804TIP3   OH235606   6.024   2.918   0.100 -0.3439  0.3056  0.3863
 3804TIP3    H135607   6.012   2.997   0.048 -1.3603 -0.2778 -0.2995
 3804TIP3    H235608   6.110   2.885   0.076  0.0556  1.1484  0.6219
 3805TIP3   OH235609   6.462   4.304   8.926  0.0062  0.2175 -0.4441
 3805TIP3    H135610   6.495   4.387   8.962  1.7296 -1.4566  2.1547
 3805TIP3    H235611   6.539   4.263   8.887 -0.4595 -0.8277 -0.2965
 3806TIP3   OH235612   6.368   2.292   9.217 -0.0820 -0.0774 -0.1949
 3806TIP3    H135613   6.347   2.363   9.277  1.4891  1.2439 -1.1403
 3806TIP3    H235614   6.462   2.301   9.201 -0.4427 -0.3224 -2.8703
 3807TIP3   OH235615   5.426   5.690   9.317 -0.0088  0.3041  0.2796
 3807TIP3    H135616   5.403   5.704   9.225  1.6330 -1.3123 -0.4344
 3807TIP3    H235617   5.521   5.686   9.318 -0.0368 -3.2339  1.4360
 3808TIP3   OH235618   6.467   6.333   2.931 -0.0630 -0.4531  0.1354
 3808TIP3    H135619   6.496   6.267   2.993  4.3387  0.4346 -0.6522
 3808TIP3    H235620   6.429   6.402   2.985  0.7381 -1.0572  1.5085
 3809TIP3   OH235621   1.787   6.818   0.955  0.1933  0.1134  0.7946
 3809TIP3    H135622   1.719   6.872   0.916 -1.1764 -2.9686 -1.4920
 3809TIP3    H235623   1.744   6.778   1.031 -0.6888 -1.7996 -0.6250
 3810TIP3   OH235624   5.542   0.614   7.443 -0.3365 -0.6331 -0.0484
 3810TIP3    H135625   5.523   0.616   7.349 -0.9107  0.0341  0.0752
 3810TIP3    H235626   5.540   0.706   7.469 -0.7819 -0.8606  0.7385
 3811TIP3   OH235627   3.959   0.790   0.329  0.5748 -0.0435  0.0535
 3811TIP3    H135628   3.900   0.837   0.269  0.0844 -0.1642  0.4396
 3811TIP3    H235629   4.004   0.860   0.377 -0.5641  0.0433  1.0261
 3812TIP3   OH235630   2.097   0.689   7.332  0.6085 -0.0050  0.2968
 3812TIP3    H135631   2.132   0.778   7.335 -0.2178  0.3128  0.5809
 3812TIP3    H235632   2.074   0.668   7.422  1.5572 -0.8248  0.3667
 3813TIP3   OH235633   4.798   0.258   9.834  0.0638 -0.0641 -0.1756
 3813TIP3    H135634   4.797   0.220   9.746  1.2420 -0.3242 -0.0969
 3813TIP3    H235635   4.736   0.331   9.830 -0.9065 -0.8942 -0.8286
 3814TIP3   OH235636   0.533   3.737   1.096  0.0253  0.7471 -0.0490
 3814TIP3    H135637   0.617   3.772   1.068  0.0917  1.1620  0.6686
 3814TIP3    H235638   0.497   3.802   1.156 -1.1583  0.9464 -0.9279
 3815TIP3   OH235639   5.710   2.412   2.067 -0.1780 -0.4930  0.0731
 3815TIP3    H135640   5.643   2.433   2.133 -0.1540 -1.7361  0.5254
 3815TIP3    H235641   5.681   2.459   1.988 -0.7592  0.2033  0.6783
 3816TIP3   OH235642   6.897   0.967   8.122 -0.5408  0.2642  0.0475
 3816TIP3    H135643   6.820   0.942   8.174 -0.9992  1.2944 -0.1126
 3816TIP3    H235644   6.927   1.049   8.162 -0.2564  0.5056 -0.6467
 3817TIP3   OH235645   1.713   7.134   9.849 -0.2562  0.1193 -0.4557
 3817TIP3    H135646   1.645   7.186   9.806  0.4895  0.5115 -1.2116
 3817TIP3    H235647   1.742   7.073   9.781 -0.5925 -0.7877  0.1917
 3818TIP3   OH235648   5.604   4.921   8.598  0.5836 -0.2689 -0.2020
 3818TIP3    H135649   5.591   4.854   8.531  0.3703  0.5280 -0.9788
 3818TIP3    H235650   5.646   4.993   8.552 -1.3160  1.0729  0.0213
 3819TIP3   OH235651   1.314   0.772   2.471 -0.4388 -0.1310 -0.2187
 3819TIP3    H135652   1.230   0.761   2.516 -0.6901 -0.4843 -0.7623
 3819TIP3    H235653   1.370   0.817   2.534 -0.5836 -1.1906  0.6842
 3820TIP3   OH235654   7.372   2.617   0.568 -0.2047 -0.0118 -0.3797
 3820TIP3    H135655   7.460   2.597   0.536  0.3287  1.7860 -0.1615
 3820TIP3    H235656   7.386   2.683   0.636 -1.5693 -1.2860  1.2456
 3821TIP3   OH235657   6.646   6.786   7.229  0.1895  0.0932 -0.1842
 3821TIP3    H135658   6.672   6.745   7.311 -0.8434  0.4653  0.3496
 3821TIP3    H235659   6.589   6.721   7.187  1.4770 -0.4935 -1.0812
 3822TIP3   OH235660   7.093   6.263   9.240 -0.7377  0.3229 -0.1298
 3822TIP3    H135661   7.123   6.187   9.291  0.7155  0.5473 -0.5910
 3822TIP3    H235662   7.059   6.324   9.305  0.6283  0.3930  0.5654
 3823TIP3   OH235663   6.317   0.217   8.992  0.0158  0.0987  0.4091
 3823TIP3    H135664   6.223   0.199   8.983  0.3205 -2.3526  1.3227
 3823TIP3    H235665   6.349   0.148   9.049  2.5414  0.4036 -0.5230
 3824TIP3   OH235666   0.305   1.917   1.739 -0.2723 -0.3330 -0.1359
 3824TIP3    H135667   0.387   1.915   1.788 -1.3981 -1.7264  1.8261
 3824TIP3    H235668   0.323   1.867   1.659  0.4334 -1.8485  0.9375
 3825TIP3   OH235669   1.585   1.771   8.447  0.3565 -0.2577 -0.2447
 3825TIP3    H135670   1.626   1.855   8.466 -0.1381  0.1070 -0.7340
 3825TIP3    H235671   1.547   1.783   8.360  0.9955 -1.2633 -0.6785
 3826TIP3   OH235672   4.326   4.997   7.827  0.1227 -0.3657  0.3758
 3826TIP3    H135673   4.401   5.000   7.887  0.7927 -1.1711 -0.4003
 3826TIP3    H235674   4.252   5.026   7.880  0.7251 -0.9200  1.5591
 3827TIP3   OH235675   3.209   3.544   9.209  0.1598 -0.2099  0.2368
 3827TIP3    H135676   3.239   3.501   9.289 -0.9240  0.1361  0.8584
 3827TIP3    H235677   3.131   3.494   9.183  0.6266 -0.4528 -0.7327
 3828TIP3   OH235678   3.602   1.730   1.711 -0.4781  0.4626 -0.0587
 3828TIP3    H135679   3.605   1.743   1.616  2.0442  1.5407  0.0833
 3828TIP3    H235680   3.569   1.812   1.745 -2.4410 -0.2983  0.0148
 3829TIP3   OH235681   6.932   3.466   9.007  0.4723  0.0310  0.2691
 3829TIP3    H135682   6.848   3.483   9.051  0.2611  0.8125 -0.4125
 3829TIP3    H235683   6.907   3.430   8.922  0.8993 -2.6152  1.1825
 3830TIP3   OH235684   6.209   4.471   8.084 -0.1326 -0.6200  0.6474
 3830TIP3    H135685   6.247   4.522   8.155 -0.5425 -0.4296  0.7368
 3830TIP3    H235686   6.214   4.529   8.008  0.7132 -0.9897  0.4114
 3831TIP3   OH235687   5.445   4.992   0.090 -0.2781  0.5000  0.3012
 3831TIP3    H135688   5.435   4.950   0.005  1.5069  0.7356 -0.0551
 3831TIP3    H235689   5.469   4.921   0.150 -0.4111  0.5193  0.3794
 3832TIP3   OH235690   6.177   7.106   0.789 -0.1171 -0.1896 -0.2056
 3832TIP3    H135691   6.247   7.166   0.816 -0.0264 -0.8302  1.0757
 3832TIP3    H235692   6.097   7.147   0.823 -0.2848  0.1753 -1.0311
 3833TIP3   OH235693   2.963   5.972   7.559 -0.2456  0.0206  0.2636
 3833TIP3    H135694   2.875   5.949   7.588 -0.6214  1.1178  0.0444
 3833TIP3    H235695   2.964   6.068   7.561  1.0451  0.0152  0.5714
 3834TIP3   OH235696   2.383   3.864   7.062 -0.2771 -0.0644  0.2208
 3834TIP3    H135697   2.412   3.952   7.085  1.3336 -1.0026  2.0855
 3834TIP3    H235698   2.388   3.861   6.966  1.8655  1.1682  0.2265
 3835TIP3   OH235699   2.569   0.109   1.500  0.3026  0.0556 -0.4880
 3835TIP3    H135700   2.480   0.106   1.466 -0.1553 -0.9570  0.7123
 3835TIP3    H235701   2.625   0.096   1.424 -0.5336  1.4728 -1.3809
 3836TIP3   OH235702   5.137   0.360   8.521 -0.0093  0.1160  0.3816
 3836TIP3    H135703   5.130   0.348   8.616 -0.2866 -0.6015  0.2808
 3836TIP3    H235704   5.159   0.273   8.488  0.1781  0.3837 -0.2032
 3837TIP3   OH235705   2.542   0.345   1.151  0.0264 -0.5129 -0.5220
 3837TIP3    H135706   2.625   0.342   1.199 -1.3749  0.4889  2.2270
 3837TIP3    H235707   2.546   0.426   1.101 -0.1033  0.7308  1.3765
 3838TIP3   OH235708   7.354   1.865   2.324  0.7037  0.1208  0.2875
 3838TIP3    H135709   7.290   1.843   2.257  0.1227  0.1067  0.8364
 3838TIP3    H235710   7.341   1.959   2.339 -0.1957 -0.1702  1.4274
 3839TIP3   OH235711   1.419   2.751   3.514 -0.1371 -0.2056  0.2236
 3839TIP3    H135712   1.377   2.798   3.586 -1.0839 -0.7077  0.0246
 3839TIP3    H235713   1.479   2.690   3.557  0.0397  0.1818  0.5359
 3840TIP3   OH235714   0.727   0.271   8.021  0.3204  0.3401 -0.2216
 3840TIP3    H135715   0.822   0.282   8.012  0.8306 -3.4193 -0.9228
 3840TIP3    H235716   0.714   0.248   8.112 -0.2119  2.3625  0.2678
 3841TIP3   OH235717   0.628   4.596   1.330 -0.2411  0.0989 -0.0474
 3841TIP3    H135718   0.560   4.640   1.279 -1.7054 -1.4762  0.4277
 3841TIP3    H235719   0.610   4.621   1.421 -0.3881 -0.5629  0.1110
 3842TIP3   OH235720   6.736   6.436   1.079 -0.4984  0.1463  0.1883
 3842TIP3    H135721   6.734   6.402   1.168 -1.6195  0.7521  0.4117
 3842TIP3    H235722   6.729   6.531   1.090 -1.7476  0.1557 -0.5771
 3843TIP3   OH235723   7.364   6.724   7.223 -0.2062  0.1468 -0.0977
 3843TIP3    H135724   7.360   6.819   7.211 -2.6176 -0.0232 -1.1345
 3843TIP3    H235725   7.454   6.702   7.200 -0.5041  1.7889 -3.6098
 3844TIP3   OH235726   3.343   4.430   8.802  0.1752  0.5264 -0.2753
 3844TIP3    H135727   3.412   4.450   8.739 -0.8552  0.6573 -1.3927
 3844TIP3    H235728   3.295   4.512   8.814  0.1859  0.4365  0.4782
 3845TIP3   OH235729   1.195   5.609   1.877  0.2360 -0.1112  0.1620
 3845TIP3    H135730   1.143   5.689   1.880 -0.1912 -0.3712 -0.2455
 3845TIP3    H235731   1.150   5.549   1.935 -0.0160 -0.3897 -0.3159
 3846TIP3   OH235732   1.321   5.295   0.160  0.2890 -0.7805 -0.0161
 3846TIP3    H135733   1.228   5.294   0.135 -0.0663 -0.5601  1.2415
 3846TIP3    H235734   1.367   5.269   0.080 -0.7492  0.4158 -1.0542
 3847TIP3   OH235735   3.463   0.312   0.409 -0.2706 -0.0384  0.3525
 3847TIP3    H135736   3.419   0.227   0.407  0.5159 -0.4631  0.7757
 3847TIP3    H235737   3.478   0.330   0.501 -1.9152  1.3649  0.3978
 3848TIP3   OH235738   2.315   1.837   8.870  0.1069 -0.2891 -0.6952
 3848TIP3    H135739   2.391   1.830   8.928 -1.2300 -1.5587  1.0089
 3848TIP3    H235740   2.299   1.748   8.840 -1.5959 -0.3163  0.2030
 3849TIP3   OH235741   3.385   0.448   0.734 -0.4730  0.2132 -0.1480
 3849TIP3    H135742   3.374   0.438   0.829  0.2074  0.9717  0.0234
 3849TIP3    H235743   3.316   0.509   0.709  1.2106  2.4871  0.4079
 3850TIP3   OH235744   6.354   7.097   2.401  0.2773  0.2556 -0.0811
 3850TIP3    H135745   6.440   7.056   2.407  0.4347  0.2780 -1.7713
 3850TIP3    H235746   6.293   7.025   2.387 -0.0332  0.2249  1.2446
 3851TIP3   OH235747   7.651   0.534   9.434  0.7985 -0.5953  0.1302
 3851TIP3    H135748   7.566   0.532   9.389  0.7550  0.0454  0.1769
 3851TIP3    H235749   7.650   0.616   9.483  0.8925 -1.2222  1.2148
 3852TIP3   OH235750   6.098   1.153   0.423  0.3270  0.1212  0.5706
 3852TIP3    H135751   6.068   1.229   0.373  0.5805 -0.8628 -1.1529
 3852TIP3    H235752   6.039   1.150   0.499 -0.0169  1.7159  0.4018
 3853TIP3   OH235753   3.053   1.046   0.465 -0.5269  0.1017  0.2876
 3853TIP3    H135754   2.963   1.014   0.460 -1.1016  1.6365  0.0669
 3853TIP3    H235755   3.047   1.137   0.434  1.3859 -0.2902 -1.4568
 3854TIP3   OH235756   4.697   2.269   7.765 -0.2814 -0.0542  0.1377
 3854TIP3    H135757   4.681   2.271   7.859  0.2232  0.1598  0.2236
 3854TIP3    H235758   4.791   2.253   7.757 -0.4127 -0.6577 -0.3355
 3855TIP3   OH235759   0.481   6.253   2.407  0.3773 -0.4055  0.1631
 3855TIP3    H135760   0.558   6.266   2.353  0.3975 -1.5921 -0.1271
 3855TIP3    H235761   0.513   6.204   2.483  0.1265  0.1525  0.6347
 3856TIP3   OH235762   3.879   1.865   2.286 -0.1209 -0.0517 -0.1563
 3856TIP3    H135763   3.960   1.917   2.291 -0.7343  1.1299 -1.7245
 3856TIP3    H235764   3.818   1.910   2.345  0.7103 -1.7579  2.1542
 3857TIP3   OH235765   4.252   0.987   9.794  0.2759  0.3054 -0.1307
 3857TIP3    H135766   4.224   0.930   9.866  1.1445 -1.5187 -1.1925
 3857TIP3    H235767   4.344   0.964   9.779  0.6682  2.0191 -0.5957
 3858TIP3   OH235768   7.382   4.396   7.437  0.2116 -0.4077  0.1560
 3858TIP3    H135769   7.372   4.430   7.526 -0.4323  1.3575 -0.5637
 3858TIP3    H235770   7.293   4.377   7.409  0.4046 -0.8318 -0.1733
 3859TIP3   OH235771   2.160   2.096   9.570 -0.1421  0.7539  0.4465
 3859TIP3    H135772   2.245   2.107   9.528  1.1912 -1.6450  2.1968
 3859TIP3    H235773   2.136   2.005   9.551 -1.4427  0.8620  1.4425
 3860TIP3   OH235774   2.819   7.710   8.136  0.1110  0.8584 -0.6635
 3860TIP3    H135775   2.765   7.742   8.208  0.7345  1.3859 -0.4159
 3860TIP3    H235776   2.768   7.639   8.097 -0.6416  1.1750 -0.2814
 3861TIP3   OH235777   0.659   7.067   0.070 -0.0086 -0.2647  0.3315
 3861TIP3    H135778   0.737   7.088   0.122  1.1743  1.0570 -1.8500
 3861TIP3    H235779   0.692   7.051  -0.018 -1.9624 -2.3490 -0.1073
 3862TIP3   OH235780   7.193   4.376   9.185 -0.5846 -0.0604  0.2029
 3862TIP3    H135781   7.271   4.334   9.149 -0.3574  0.8128 -0.3325
 3862TIP3    H235782   7.120   4.338   9.136 -0.2819  1.1081 -1.2013
 3863TIP3   OH235783   0.534   7.585   9.083  0.6356  0.1828  0.1800
 3863TIP3    H135784   0.522   7.518   9.017 -1.0931 -2.2789  2.7369
 3863TIP3    H235785   0.510   7.667   9.039 -1.0640 -1.3968 -2.0384
 3864TIP3   OH235786   5.263   7.254   0.987  0.2578 -0.1519  0.4484
 3864TIP3    H135787   5.195   7.193   0.959  1.2650 -0.7847 -0.6857
 3864TIP3    H235788   5.270   7.241   1.082 -0.7109 -0.5633  0.4768
 3865TIP3   OH235789   3.560   0.242   0.150  0.1239  0.7021 -0.0392
 3865TIP3    H135790   3.520   0.155   0.138  0.8557  0.4798 -0.9319
 3865TIP3    H235791   3.544   0.262   0.242  2.1217 -1.5177  0.9186
 3866TIP3   OH235792   6.339   6.958   1.674 -0.2565  0.6252  0.2866
 3866TIP3    H135793   6.433   6.947   1.658 -0.7206 -2.3941 -1.1038
 3866TIP3    H235794   6.312   7.026   1.612  0.9478  1.4365  0.6136
 3867TIP3   OH235795   4.589   7.456   7.635  0.1108 -0.4072 -0.1783
 3867TIP3    H135796   4.518   7.424   7.690  0.9286 -0.9509  0.6064
 3867TIP3    H235797   4.652   7.383   7.632  2.1161  1.0887  1.8032
 3868TIP3   OH235798   0.271   4.785   9.696  0.6838  0.1113  0.0215
 3868TIP3    H135799   0.351   4.736   9.676  1.1096  0.8252 -0.0596
 3868TIP3    H235800   0.292   4.876   9.672  0.2322  0.4991  1.0553
 3869TIP3   OH235801   1.902   7.300   1.143  0.2166  0.1373 -0.1340
 3869TIP3    H135802   1.810   7.281   1.161 -0.1496  1.2192 -0.7890
 3869TIP3    H235803   1.902   7.342   1.058  1.2620  0.6905  0.1208
 3870TIP3   OH235804   6.039   0.381   9.773 -0.2370 -0.3188  1.1414
 3870TIP3    H135805   6.110   0.419   9.722 -0.4635 -1.3452  0.0155
 3870TIP3    H235806   5.978   0.346   9.708 -0.9098 -1.0106  2.1033
 3871TIP3   OH235807   0.902   0.408   7.617 -0.0253  0.0043 -0.0672
 3871TIP3    H135808   0.922   0.335   7.675 -0.0743  0.0881  0.0560
 3871TIP3    H235809   0.817   0.441   7.648  0.3057  0.5276  0.2987
 3872TIP3   OH235810   6.470   2.774   8.124  0.2849 -0.0666 -0.4174
 3872TIP3    H135811   6.448   2.766   8.031 -1.0609  1.4601 -0.2647
 3872TIP3    H235812   6.566   2.772   8.126  0.4313  1.8795 -2.0835
 3873TIP3   OH235813   5.447   0.126   0.741  0.0467 -0.2705 -0.0261
 3873TIP3    H135814   5.468   0.145   0.650 -0.0913 -0.8598 -0.1873
 3873TIP3    H235815   5.532   0.119   0.784  0.1512 -1.0293 -0.3353
 3874TIP3   OH235816   5.280   5.328   7.479  0.4212 -0.1637  0.2965
 3874TIP3    H135817   5.212   5.384   7.444 -0.4424  0.4032  2.6497
 3874TIP3    H235818   5.235   5.275   7.545  1.9835 -0.8126  0.8938
 3875TIP3   OH235819   1.689   3.539   3.218 -0.1862  0.3866 -0.0280
 3875TIP3    H135820   1.739   3.613   3.185  0.0451 -0.5241 -1.7862
 3875TIP3    H235821   1.597   3.562   3.200 -0.0260 -0.3927 -2.0040
 3876TIP3   OH235822   0.768   3.537   7.568  0.0279 -0.1278  0.3879
 3876TIP3    H135823   0.686   3.586   7.576 -0.5441 -0.9777 -0.0130
 3876TIP3    H235824   0.792   3.517   7.659  0.9764  1.9660  0.6393
 3877TIP3   OH235825   7.116   1.910   2.699 -0.2516  0.2574 -0.1061
 3877TIP3    H135826   7.049   1.843   2.690  1.1332 -1.2529  0.2932
 3877TIP3    H235827   7.161   1.888   2.781  0.7781  1.1791 -0.3944
 3878TIP3   OH235828   1.847   6.928   7.664 -0.2714  0.0586  0.3178
 3878TIP3    H135829   1.779   6.862   7.650 -1.3549  1.5612 -2.1070
 3878TIP3    H235830   1.836   6.956   7.755 -0.6253 -2.0957  0.9979
 3879TIP3   OH235831   6.322   6.166   9.946  0.1269 -0.4281  0.1365
 3879TIP3    H135832   6.272   6.093   9.910  0.2588 -0.8409  0.7836
 3879TIP3    H235833   6.260   6.239   9.946  0.5247  0.0302 -2.3109
 3880TIP3   OH235834   7.135   1.563   7.936 -0.3100 -0.2523  0.1068
 3880TIP3    H135835   7.199   1.618   7.892  2.0466 -1.2190  2.0912
 3880TIP3    H235836   7.078   1.532   7.866  0.3037  2.0072 -1.5176
 3881TIP3   OH235837   3.718   1.028   8.761 -0.1109  0.1801  0.0116
 3881TIP3    H135838   3.760   1.079   8.830  0.5675  1.5193 -1.3302
 3881TIP3    H235839   3.749   1.068   8.679  0.1649 -2.1729 -1.1228
 3882TIP3   OH235840   2.802   2.189   1.469  0.4386 -0.3230  0.0330
 3882TIP3    H135841   2.754   2.173   1.388  0.1552 -0.6331  0.2537
 3882TIP3    H235842   2.892   2.164   1.450  0.1778 -1.3653  0.1006
 3883TIP3   OH235843   3.011   6.660   8.803 -0.0281 -0.0361  0.1771
 3883TIP3    H135844   2.969   6.733   8.850 -0.6747 -0.5219  0.3640
 3883TIP3    H235845   3.070   6.621   8.868 -1.8092 -1.4700  1.0418
 3884TIP3   OH235846   1.449   6.767   8.693 -0.1037  0.1739 -0.1208
 3884TIP3    H135847   1.409   6.812   8.768  0.3659  0.2239  0.0983
 3884TIP3    H235848   1.501   6.835   8.650 -0.6410  0.2344 -0.6943
 3885TIP3   OH235849   3.491   7.048   8.851 -0.9733 -0.1504 -0.4216
 3885TIP3    H135850   3.575   7.014   8.882 -0.9019  0.0547 -0.3896
 3885TIP3    H235851   3.477   7.129   8.901 -2.0158 -1.0518  0.8384
 3886TIP3   OH235852   0.967   3.288   7.968  0.3084  0.3638 -0.5228
 3886TIP3    H135853   1.009   3.202   7.958  1.6103  1.0105 -0.7528
 3886TIP3    H235854   0.984   3.313   8.058 -2.5048 -0.8235  0.4508
 3887TIP3   OH235855   1.071   6.512   8.083  0.2148  0.1028 -0.1779
 3887TIP3    H135856   1.063   6.476   7.995 -1.8256  3.2714 -1.4449
 3887TIP3    H235857   1.071   6.435   8.141 -1.1109 -1.9746 -2.7507
 3888TIP3   OH235858   3.979   0.715   9.636 -0.5786  0.2346  0.2217
 3888TIP3    H135859   3.922   0.734   9.711  0.0370  0.1480  0.7194
 3888TIP3    H235860   4.066   0.704   9.674  0.2307  2.6316 -0.7654
 3889TIP3   OH235861   7.563   5.623   0.321  0.6202 -0.2402  0.3479
 3889TIP3    H135862   7.610   5.657   0.245 -1.4836  0.3176 -0.8045
 3889TIP3    H235863   7.570   5.528   0.313  2.5788 -0.1817  0.9479
 3890TIP3   OH235864   4.828   2.215   1.277  0.3169 -0.3852  0.5405
 3890TIP3    H135865   4.805   2.210   1.370  2.5583  2.7646  1.4172
 3890TIP3    H235866   4.755   2.260   1.236 -0.1523 -0.7248  0.9944
 3891TIP3   OH235867   4.827   5.879   9.764 -0.4371 -0.4481  0.1975
 3891TIP3    H135868   4.852   5.856   9.674 -1.2101  1.8298 -0.6769
 3891TIP3    H235869   4.911   5.890   9.809 -0.0360 -1.6581 -0.1896
 3892TIP3   OH235870   0.477   3.591   9.855  0.0749  0.3725 -0.3909
 3892TIP3    H135871   0.486   3.496   9.864 -0.3436  0.2198 -1.4466
 3892TIP3    H235872   0.532   3.626   9.924 -1.4606 -0.6397  1.4383
 3893TIP3   OH235873   1.933   1.056   7.068  0.2937 -0.1851 -1.1775
 3893TIP3    H135874   1.923   1.016   7.154 -2.6663 -0.0050 -1.3545
 3893TIP3    H235875   1.985   0.993   7.018  2.0374 -0.3100  0.6523
 3894TIP3   OH235876   2.919   6.535   1.115  0.5491 -0.7185 -0.1436
 3894TIP3    H135877   2.980   6.600   1.149  0.6731 -0.5768 -0.6306
 3894TIP3    H235878   2.939   6.455   1.165  1.0134 -0.6285 -0.1843
 3895TIP3   OH235879  -0.013   2.838   0.314 -0.3440 -0.0535  0.0376
 3895TIP3    H135880   0.000   2.852   0.220  0.4205  1.0436  0.2908
 3895TIP3    H235881  -0.087   2.895   0.336  0.3555  0.7501  0.3510
 3896TIP3   OH235882   7.068   0.872   1.620 -0.3427  0.4758  0.2632
 3896TIP3    H135883   7.157   0.837   1.611 -0.5002  0.1754 -0.1386
 3896TIP3    H235884   7.071   0.956   1.573 -0.5877 -0.0952 -0.8051
 3897TIP3   OH235885   5.890   5.657   8.752 -0.5182 -0.2951 -0.4771
 3897TIP3    H135886   5.889   5.561   8.761 -0.4111 -0.5277 -2.4533
 3897TIP3    H235887   5.877   5.689   8.841  0.9841 -2.1306  0.4960
 3898TIP3   OH235888   0.260   2.126   9.067  0.0924 -0.5504  0.2642
 3898TIP3    H135889   0.179   2.174   9.053  0.3586 -0.0359  0.4912
 3898TIP3    H235890   0.232   2.035   9.081 -0.5324 -0.1790  1.4972
 3899TIP3   OH235891   6.246   4.503   7.281 -0.1622  0.0269 -0.8294
 3899TIP3    H135892   6.219   4.573   7.220  1.6360 -2.0695 -4.3826
 3899TIP3    H235893   6.167   4.453   7.296 -0.8633  1.1696 -0.5882
 3900TIP3   OH235894   5.193   6.928   6.897  0.1473 -0.3348 -0.4813
 3900TIP3    H135895   5.273   6.981   6.903  0.0978 -0.3730  0.8097
 3900TIP3    H235896   5.152   6.956   6.815  1.4397 -0.2691 -1.1313
 3901TIP3   OH235897   4.927   2.183   9.904  0.4558 -0.0364 -0.1454
 3901TIP3    H135898   4.881   2.266   9.888  0.0119 -0.2051  0.2325
 3901TIP3    H235899   4.902   2.159   9.993 -0.2322 -1.0804 -0.5975
 3902TIP3   OH235900   4.585   2.935   9.665  0.4746  0.8084  0.1914
 3902TIP3    H135901   4.528   3.011   9.672 -0.4176  0.7546 -3.9866
 3902TIP3    H235902   4.664   2.968   9.622  0.8523 -0.2930  0.0136
 3903TIP3   OH235903   0.671   3.183   8.773 -0.1938  0.4813 -0.3195
 3903TIP3    H135904   0.728   3.109   8.791  2.0446  2.4644  1.5460
 3903TIP3    H235905   0.714   3.230   8.701 -0.1913  1.2580  0.1737
 3904TIP3   OH235906   6.319   3.787   9.814  0.0549  0.4580 -0.0099
 3904TIP3    H135907   6.383   3.717   9.806  1.6405  1.8577 -0.2047
 3904TIP3    H235908   6.238   3.743   9.841  0.3331 -1.7177 -2.3882
 3905TIP3   OH235909   3.196   4.463   7.886 -0.3706  0.7825  0.1849
 3905TIP3    H135910   3.285   4.473   7.918 -1.4382  0.6402  3.5847
 3905TIP3    H235911   3.177   4.545   7.840  1.8185  0.3017 -1.7580
 3906TIP3   OH235912   6.079   6.333   1.526  0.2630  0.6990  0.0505
 3906TIP3    H135913   6.024   6.373   1.593 -2.0292  2.3848 -2.6177
 3906TIP3    H235914   6.087   6.400   1.458 -0.4263 -1.9158 -2.8672
 3907TIP3   OH235915   0.607   4.554   2.275 -0.2929 -0.3342  0.4355
 3907TIP3    H135916   0.517   4.586   2.278 -0.0188  0.4975  0.0650
 3907TIP3    H235917   0.624   4.538   2.182  0.4203  0.9495  0.3223
 3908TIP3   OH235918   4.617   4.166   8.846  0.1948 -0.0291  0.4004
 3908TIP3    H135919   4.612   4.241   8.906 -0.3910  0.7361 -0.5708
 3908TIP3    H235920   4.663   4.099   8.896 -0.8606  0.3485  1.9497
 3909TIP3   OH235921   7.381   7.273   8.249  0.0553  0.3133  0.0556
 3909TIP3    H135922   7.440   7.337   8.211  0.1931 -0.5103 -1.1763
 3909TIP3    H235923   7.295   7.315   8.246  0.4551  1.3081  1.3801
 3910TIP3   OH235924   0.926   1.343   9.111 -0.4762 -0.2571  0.1629
 3910TIP3    H135925   0.848   1.398   9.110 -1.5825 -1.7541  1.2136
 3910TIP3    H235926   0.991   1.394   9.160 -1.0926  0.5675  0.1446
 3911TIP3   OH235927   6.375   1.216   7.642 -0.0542 -0.1849  0.2149
 3911TIP3    H135928   6.323   1.187   7.717  0.0958  1.1289  0.8579
 3911TIP3    H235929   6.425   1.290   7.675 -0.4814  0.8506 -1.3694
 3912TIP3   OH235930   3.822   0.064   9.721 -0.6452 -0.2549 -0.2343
 3912TIP3    H135931   3.757   0.129   9.746  0.2871  1.2327 -1.4833
 3912TIP3    H235932   3.778   0.011   9.654 -1.4476 -1.0441  0.8766
 3913TIP3   OH235933   4.115   6.621   0.389  0.1616  0.3207 -0.1397
 3913TIP3    H135934   4.084   6.567   0.462 -2.4648  0.7678 -0.8049
 3913TIP3    H235935   4.036   6.661   0.354  1.1828 -0.3340 -3.6280
 3914TIP3   OH235936   6.270   0.220   2.247 -0.0869  0.5588 -0.2322
 3914TIP3    H135937   6.187   0.218   2.199 -0.8054  5.0227  0.4327
 3914TIP3    H235938   6.246   0.200   2.338  0.0977 -0.7369 -0.4401
 3915TIP3   OH235939   5.845   2.885   7.865  0.0159  0.1246  0.4403
 3915TIP3    H135940   5.937   2.861   7.864 -0.2162 -0.8623  0.9244
 3915TIP3    H235941   5.798   2.801   7.861 -0.8407  0.3115  3.5121
 3916TIP3   OH235942   7.018   6.796  10.063 -0.0620 -0.3072  0.8612
 3916TIP3    H135943   7.077   6.846  10.007 -0.3279 -1.3503 -0.4044
 3916TIP3    H235944   6.967   6.863  10.110  1.9799  0.6146  1.9077
 3917TIP3   OH235945   4.183   0.060   7.733 -0.2232  0.2213 -0.0932
 3917TIP3    H135946   4.182   0.122   7.806  0.9377  0.3421 -0.1606
 3917TIP3    H235947   4.244   0.098   7.670 -2.1868  0.8114 -1.7835
 3918TIP3   OH235948   4.480   1.651   1.478  0.5038  0.2143  0.6055
 3918TIP3    H135949   4.571   1.621   1.476  0.5508  0.2029  1.9781
 3918TIP3    H235950   4.455   1.646   1.570 -0.8660  0.3058  0.2584
 3919TIP3   OH235951   4.104   1.025   0.908 -0.4482  0.2342 -0.6131
 3919TIP3    H135952   4.155   0.954   0.946  1.2293  1.3227 -0.7342
 3919TIP3    H235953   4.031   1.037   0.969  1.3350  0.9371  1.5104
 3920TIP3   OH235954   0.802   0.898   7.880 -0.4619 -0.6315 -0.2255
 3920TIP3    H135955   0.786   0.992   7.884 -0.1004 -0.5916  0.5799
 3920TIP3    H235956   0.898   0.891   7.876 -0.4704 -0.9629  0.0764
 3921TIP3   OH235957   7.669   2.594   0.481  0.1126 -0.0575  0.1871
 3921TIP3    H135958   7.692   2.626   0.568  1.1667  1.0822 -0.4826
 3921TIP3    H235959   7.654   2.673   0.429  0.6561 -0.6883 -0.9644
 3922TIP3   OH235960   1.831   6.547   2.732  0.2196  0.3953 -0.3570
 3922TIP3    H135961   1.838   6.576   2.822 -0.0823  0.6560 -0.4156
 3922TIP3    H235962   1.741   6.567   2.707  0.4944  0.9563 -0.9313
 3923TIP3   OH235963   2.536   6.509   0.962 -0.4538  0.3053 -0.2451
 3923TIP3    H135964   2.572   6.533   1.047 -2.7584  2.5034  0.2158
 3923TIP3    H235965   2.612   6.510   0.903  1.4223 -2.3926  1.8566
 3924TIP3   OH235966   0.563   0.813   7.253  0.0035 -0.6049  0.0241
 3924TIP3    H135967   0.526   0.735   7.211 -2.7043 -0.0958  1.2518
 3924TIP3    H235968   0.572   0.790   7.345 -0.4296  0.3830  0.3305
 3925TIP3   OH235969   6.130   6.372   9.923  0.2449  0.5150  0.0271
 3925TIP3    H135970   6.138   6.365  10.019  2.2233  2.8494  0.1321
 3925TIP3    H235971   6.036   6.381   9.908 -0.1203  0.0361  1.7438
 3926TIP3   OH235972   2.170   7.124   1.907 -0.2881 -0.0957  0.5768
 3926TIP3    H135973   2.198   7.050   1.853  1.3864  1.8070 -1.3439
 3926TIP3    H235974   2.147   7.192   1.845  0.1205  1.6573  2.2501
 3927TIP3   OH235975   1.334   6.104   0.487  0.0863 -0.6140 -0.2149
 3927TIP3    H135976   1.318   6.198   0.495  0.8705 -0.6099  2.3004
 3927TIP3    H235977   1.256   6.064   0.525  0.3716 -0.9132  0.0667
 3928TIP3   OH235978   2.200   2.431   9.442  0.0153  0.4420  0.4217
 3928TIP3    H135979   2.182   2.393   9.528 -1.2740  2.4166  1.1015
 3928TIP3    H235980   2.279   2.483   9.455  2.1010 -2.2290 -0.6407
 3929TIP3   OH235981   6.335   6.867   7.028 -0.3208 -0.1963  0.2449
 3929TIP3    H135982   6.263   6.898   6.974 -0.1679 -0.5569 -0.1641
 3929TIP3    H235983   6.330   6.772   7.025  1.0238 -0.2574 -0.9517
 3930TIP3   OH235984   6.163   3.404   7.143  0.1362  0.1477 -0.5602
 3930TIP3    H135985   6.123   3.320   7.120  2.9489 -1.0389 -1.6102
 3930TIP3    H235986   6.143   3.416   7.236 -1.8773 -0.7157 -0.8391
 3931TIP3   OH235987   6.717   2.482   9.742  0.2856  0.2274  0.0034
 3931TIP3    H135988   6.637   2.455   9.786  0.7001  1.9164  1.9299
 3931TIP3    H235989   6.690   2.552   9.682 -0.3105 -2.1937 -2.8228
 3932TIP3   OH235990   4.072   6.708   9.534  0.2918 -0.2050  0.1625
 3932TIP3    H135991   4.113   6.670   9.456 -0.9185 -2.0014  0.3430
 3932TIP3    H235992   4.105   6.655   9.607 -1.3832 -0.9431  0.4311
 3933TIP3   OH235993   0.226   5.373   1.275 -0.4724 -0.5614 -0.3150
 3933TIP3    H135994   0.249   5.311   1.206  0.8714 -0.3757 -0.0704
 3933TIP3    H235995   0.203   5.318   1.350 -3.6111 -0.8068 -1.3222
 3934TIP3   OH235996   4.735   5.924   7.766 -0.2690 -0.4628 -0.0636
 3934TIP3    H135997   4.729   5.961   7.678  0.3436  1.0192  0.4807
 3934TIP3    H235998   4.694   5.989   7.823 -1.4259 -1.7721  0.6954
 3935TIP3   OH235999   2.596   2.403   9.343 -0.0328 -0.3054 -0.0236
 3935TIP3    H136000   2.518   2.401   9.399 -0.2867  1.2663 -0.2848
 3935TIP3    H236001   2.645   2.479   9.372  1.2192 -1.0314 -0.1495
 3936TIP3   OH236002   1.502   7.130   1.331  0.0354  0.6238 -0.1335
 3936TIP3    H136003   1.545   7.214   1.348  1.0251 -0.0392  0.7232
 3936TIP3    H236004   1.536   7.071   1.397 -1.7256 -0.1226  0.1806
 3937TIP3   OH236005   5.777   1.777   9.145  0.3270 -0.1277  0.1892
 3937TIP3    H136006   5.687   1.746   9.135 -0.2099  1.0760  1.0835
 3937TIP3    H236007   5.789   1.786   9.239  1.3037 -0.0103  0.0629
 3938TIP3   OH236008   3.479   3.018   9.342 -1.3136 -0.1904 -0.3756
 3938TIP3    H136009   3.526   3.102   9.338  1.6947 -1.7608 -0.4759
 3938TIP3    H236010   3.512   2.969   9.267 -1.6691 -2.1376  0.6950
 3939TIP3   OH236011   7.522   6.802   2.541 -0.1939 -0.0359  0.0304
 3939TIP3    H136012   7.463   6.877   2.529 -0.1350 -0.0319 -0.2474
 3939TIP3    H236013   7.610   6.839   2.527  0.1313  0.5451  2.9551
 3940TIP3   OH236014   1.205   5.457   1.564 -0.3115 -0.1947 -0.1579
 3940TIP3    H136015   1.167   5.545   1.572  1.2071  0.5618 -0.9455
 3940TIP3    H236016   1.130   5.400   1.547 -1.2399  1.0510 -0.3635
 3941TIP3   OH236017   6.853   6.427   8.472  0.3019 -0.2009 -0.2036
 3941TIP3    H136018   6.795   6.356   8.500 -1.0889  1.0792  0.3425
 3941TIP3    H236019   6.903   6.390   8.399  0.8544 -2.2499  1.1369
 3942TIP3   OH236020   4.747   1.018   2.192  0.3421  0.2355  0.2298
 3942TIP3    H136021   4.725   1.075   2.265  2.1149  0.4402  0.6663
 3942TIP3    H236022   4.778   0.937   2.234  0.7973  0.1267 -0.3009
 3943TIP3   OH236023   5.681   3.818   7.996 -0.2387 -0.5157 -0.4286
 3943TIP3    H136024   5.764   3.864   8.009  0.1920 -1.5699  0.8929
 3943TIP3    H236025   5.662   3.826   7.903  1.5213 -0.5220 -0.8101
 3944TIP3   OH236026   7.428   1.448   7.290 -0.0867  0.3687 -0.3675
 3944TIP3    H136027   7.386   1.371   7.251 -2.3205  1.7327 -0.7907
 3944TIP3    H236028   7.491   1.476   7.223 -0.0639 -0.4037 -0.6889
 3945TIP3   OH236029   4.057   5.319   9.812 -0.4819  0.2805  0.1044
 3945TIP3    H136030   4.054   5.269   9.731 -1.9234  0.5058 -0.0047
 3945TIP3    H236031   4.136   5.373   9.804  1.8228 -2.7522  0.7625
 3946TIP3   OH236032   0.053   2.027   9.662 -0.1397 -0.2508 -0.9136
 3946TIP3    H136033   0.038   2.116   9.630  0.5447  0.6267  1.0655
 3946TIP3    H236034  -0.034   1.993   9.681 -0.4297 -0.1542 -1.9768
 3947TIP3   OH236035   6.695   2.709   8.535  0.1893  0.5394 -0.4078
 3947TIP3    H136036   6.645   2.786   8.508 -1.6292 -0.7630 -0.9321
 3947TIP3    H236037   6.760   2.696   8.466 -0.8852  0.3775 -1.3975
 3948TIP3   OH236038   6.881   0.674   1.003  0.1673 -0.1730 -0.3840
 3948TIP3    H136039   6.867   0.738   0.933 -1.6303 -1.0939 -0.9565
 3948TIP3    H236040   6.847   0.716   1.082 -0.8126 -0.3118 -0.7171
 3949TIP3   OH236041   3.320   4.749   8.581  0.3731 -0.4199  0.1847
 3949TIP3    H136042   3.230   4.718   8.574 -0.3663  1.0402  2.2729
 3949TIP3    H236043   3.327   4.817   8.514 -0.2764 -0.1538  0.3763
 3950TIP3   OH236044   2.235   3.903   0.715  0.3219  0.0681 -0.5212
 3950TIP3    H136045   2.165   3.965   0.696 -0.4538 -1.4315 -2.9315
 3950TIP3    H236046   2.227   3.836   0.648  2.5193 -1.4956  0.6524
 3951TIP3   OH236047   3.975   6.923   1.256 -0.4182 -0.1484 -0.2163
 3951TIP3    H136048   3.930   6.847   1.293 -0.5876 -0.9085 -1.8854
 3951TIP3    H236049   4.000   6.895   1.168  2.3882  0.6249  0.2547
 3952TIP3   OH236050   6.789   6.640   9.576 -0.3263 -0.1426  0.5734
 3952TIP3    H136051   6.715   6.594   9.615 -1.2443 -0.7598 -1.6958
 3952TIP3    H236052   6.751   6.687   9.501  1.5148 -0.2525 -0.4958
 3953TIP3   OH236053   4.967   1.094   2.062  0.1493 -0.4912  0.3053
 3953TIP3    H136054   4.876   1.072   2.079 -0.1264  0.9733  0.9028
 3953TIP3    H236055   5.017   1.030   2.113 -0.5558 -0.9145  0.4803
 3954TIP3   OH236056   6.576   4.965   8.089 -0.1513  0.2624 -0.6715
 3954TIP3    H136057   6.512   5.035   8.098  0.3292  0.8412 -1.5700
 3954TIP3    H236058   6.657   5.002   8.126  0.1031  0.1995 -1.1481
 3955TIP3   OH236059   5.789   6.805   9.399  0.3681  0.4811  0.3375
 3955TIP3    H136060   5.733   6.805   9.477  0.1377 -0.2099  0.1858
 3955TIP3    H236061   5.729   6.824   9.327  0.4663  0.4897  0.2586
 3956TIP3   OH236062   1.335   4.366   0.423  0.1691  0.0042  0.2767
 3956TIP3    H136063   1.426   4.381   0.450  0.3438  1.5365 -0.9994
 3956TIP3    H236064   1.342   4.335   0.332 -0.5769  0.2124  0.1411
 3957TIP3   OH236065   5.278   0.247   2.374 -0.0146 -0.2751 -0.0123
 3957TIP3    H136066   5.336   0.258   2.449  1.3655 -0.4069 -1.0018
 3957TIP3    H236067   5.201   0.299   2.394  0.6940  0.3760  1.1135
 3958TIP3   OH236068   4.105   4.629   9.684  0.5718 -0.3349 -0.1399
 3958TIP3    H136069   4.135   4.720   9.684  1.6578 -0.6797 -0.7689
 3958TIP3    H236070   4.010   4.635   9.669  0.5507  0.7113  0.3644
 3959TIP3   OH236071   0.020   0.727   1.165 -0.1614 -0.4809 -0.4028
 3959TIP3    H136072   0.050   0.790   1.100 -0.9775 -0.9340 -1.2386
 3959TIP3    H236073   0.100   0.694   1.206  0.2955  0.7681 -0.2516
 3960TIP3   OH236074   7.016   0.172   7.269  0.0432  0.0497  0.2166
 3960TIP3    H136075   7.045   0.156   7.358  1.6929  1.1949 -0.0571
 3960TIP3    H236076   7.047   0.261   7.249  1.7762 -0.9954 -2.2466
 3961TIP3   OH236077   0.524   5.706   0.746 -0.3355 -0.0945 -0.4404
 3961TIP3    H136078   0.505   5.715   0.839  0.7668  0.1477 -0.2266
 3961TIP3    H236079   0.474   5.776   0.704 -0.0001  0.4709  0.0882
 3962TIP3   OH236080   0.939   3.405   8.879  0.3748 -0.1187  0.4942
 3962TIP3    H136081   1.015   3.432   8.930  0.2047 -0.1664  0.7733
 3962TIP3    H236082   0.959   3.314   8.854  1.5498  0.6278 -1.5611
 3963TIP3   OH236083   3.171   0.988   0.212 -0.0020  0.2885 -1.0644
 3963TIP3    H136084   3.152   1.001   0.305  0.1627  0.2098 -1.0194
 3963TIP3    H236085   3.110   0.921   0.184 -0.7848  1.0714 -1.2702
 3964TIP3   OH236086   1.967   7.251   9.359 -0.2251  0.1143  0.0790
 3964TIP3    H136087   2.017   7.246   9.277 -0.9944  2.1128 -0.5906
 3964TIP3    H236088   1.950   7.160   9.383  0.7311 -0.5370 -1.5363
 3965TIP3   OH236089   0.652   4.970   0.322 -0.2941 -0.5805 -0.0844
 3965TIP3    H136090   0.603   4.974   0.239  0.3901 -0.9091 -0.5141
 3965TIP3    H236091   0.744   4.965   0.295 -0.1101 -1.6046  0.6774
 3966TIP3   OH236092   5.114   1.513   1.229 -0.6656  0.6614 -0.1297
 3966TIP3    H136093   5.145   1.466   1.152  1.8715  0.7788  0.7372
 3966TIP3    H236094   5.024   1.482   1.241 -0.4172 -0.9216 -1.8974
 3967TIP3   OH236095   1.160   7.719   7.275  0.0627  0.1779  0.3020
 3967TIP3    H136096   1.198   7.804   7.297  0.7637  0.1114 -0.5872
 3967TIP3    H236097   1.202   7.695   7.193 -0.6726 -0.6953  0.1682
 3968TIP3   OH236098   7.547   7.042   7.768  0.6911  0.0374  0.1424
 3968TIP3    H136099   7.475   7.091   7.808  0.6855  0.7392 -0.7156
 3968TIP3    H236100   7.623   7.100   7.777  1.0367 -0.4684  0.5453
 3969TIP3   OH236101   2.001   6.868   1.123  0.3522  0.2462  0.2276
 3969TIP3    H136102   1.915   6.866   1.081 -1.1860  3.5926  2.8142
 3969TIP3    H236103   1.996   6.798   1.189 -0.4676  0.5458  0.4957
 3970TIP3   OH236104   4.528   0.288   0.926 -0.1440 -0.3227  0.2924
 3970TIP3    H136105   4.597   0.353   0.910 -0.2249 -0.1086  0.7845
 3970TIP3    H236106   4.569   0.222   0.982  0.1280 -1.0493 -0.7318
 3971TIP3   OH236107   5.596   7.144   1.910  0.3162 -0.4114  0.2762
 3971TIP3    H136108   5.591   7.153   2.005 -0.3942 -0.6501  0.2643
 3971TIP3    H236109   5.568   7.054   1.893  0.4729 -0.3822 -0.1589
 3972TIP3   OH236110   5.922   3.454   8.596 -0.0724 -0.2207  0.5099
 3972TIP3    H136111   5.886   3.479   8.511  0.6877  0.5099  0.3857
 3972TIP3    H236112   5.845   3.437   8.651 -0.5678 -0.9324 -0.3761
 3973TIP3   OH236113   6.848   3.017   2.685 -0.0799  0.0602  0.6324
 3973TIP3    H136114   6.844   2.942   2.744  0.7351 -0.9925 -0.5923
 3973TIP3    H236115   6.800   3.086   2.731  2.3642  0.0357  3.5298
 3974TIP3   OH236116   3.406   2.681   9.531 -0.3360  0.1340  0.2010
 3974TIP3    H136117   3.321   2.705   9.568 -0.4434  0.3466 -0.1749
 3974TIP3    H236118   3.470   2.705   9.598 -0.5263  0.5293  0.2415
 3975TIP3   OH236119   2.209   7.494   6.935  0.0666  0.2487 -0.5267
 3975TIP3    H136120   2.222   7.473   7.028 -2.0283 -1.1159 -0.4594
 3975TIP3    H236121   2.227   7.587   6.928  1.9869  0.0449  0.8712
 3976TIP3   OH236122   7.034   6.899   7.596 -0.6295 -0.2701 -0.4181
 3976TIP3    H136123   7.052   6.828   7.534 -1.4164 -1.7088  0.9291
 3976TIP3    H236124   7.095   6.883   7.668 -0.7246  0.5155 -0.1562
 3977TIP3   OH236125   6.633   1.726   7.503 -0.2094  0.3190  0.1228
 3977TIP3    H136126   6.600   1.814   7.489 -0.8479  0.4437  2.1483
 3977TIP3    H236127   6.725   1.738   7.529 -0.6890  0.5434  1.8446
 3978TIP3   OH236128   7.415   1.867   7.579  0.3748 -0.3079 -0.1884
 3978TIP3    H136129   7.359   1.941   7.556 -0.2558 -0.2528  1.3956
 3978TIP3    H236130   7.503   1.902   7.581  0.0546  0.4627  0.7637
 3979TIP3   OH236131   5.968   1.454   1.151  0.1743 -0.0838 -0.7071
 3979TIP3    H136132   5.966   1.494   1.238  0.2699  1.5059 -1.4128
 3979TIP3    H236133   5.899   1.498   1.102  0.7863 -0.2363 -1.7472
 3980TIP3   OH236134   2.348   6.630   1.438  0.4837 -0.1972 -0.4330
 3980TIP3    H136135   2.287   6.687   1.484  2.8904  0.9873  1.5467
 3980TIP3    H236136   2.363   6.557   1.499  1.6654 -0.0150 -0.4749
 3981TIP3   OH236137   5.893   7.373   8.850 -0.3823 -0.7294 -0.6335
 3981TIP3    H136138   5.848   7.316   8.787 -1.2718 -0.2802 -0.4162
 3981TIP3    H236139   5.823   7.423   8.891  0.2857 -0.3288  0.0325
 3982TIP3   OH236140   4.797   7.459   9.516 -0.4032 -0.2282  0.0003
 3982TIP3    H136141   4.854   7.535   9.502  1.0762 -0.7913  2.3704
 3982TIP3    H236142   4.854   7.384   9.503 -1.2849 -0.8920 -0.1230
 3983TIP3   OH236143   6.985   0.668   0.581  0.0838  0.0423 -0.4111
 3983TIP3    H136144   7.078   0.690   0.577  0.0747 -0.0710 -2.0749
 3983TIP3    H236145   6.981   0.588   0.633  0.8916  0.1634 -0.1495
 3984TIP3   OH236146   5.709   2.725   0.406  0.3650  0.0116  0.3165
 3984TIP3    H136147   5.762   2.729   0.326 -2.0972  1.4788 -1.3725
 3984TIP3    H236148   5.633   2.673   0.382 -0.2132  0.0916  1.8629
 3985TIP3   OH236149   6.504   1.266   0.397 -0.2858  0.1225  0.1175
 3985TIP3    H136150   6.592   1.301   0.378 -0.2877 -0.7502 -1.7138
 3985TIP3    H236151   6.447   1.312   0.336 -1.1814  0.8817  1.4906
 3986TIP3   OH236152   4.412   2.911   9.342  0.1343 -0.3189 -0.1570
 3986TIP3    H136153   4.355   2.987   9.332  0.7823  0.4081  1.4000
 3986TIP3    H236154   4.500   2.948   9.345  0.3504 -0.9117  2.4753
 3987TIP3   OH236155   2.835   6.273   1.623 -0.2626  0.2593 -0.0704
 3987TIP3    H136156   2.749   6.275   1.580 -0.5705  0.4441  0.5384
 3987TIP3    H236157   2.816   6.241   1.711  0.6857 -2.5276 -0.7821
 3988TIP3   OH236158   1.548   5.818   2.590  0.0088  0.6405 -0.2319
 3988TIP3    H136159   1.553   5.846   2.499 -0.2832  0.0875 -0.4214
 3988TIP3    H236160   1.616   5.870   2.635  0.3972  0.6555 -0.8266
 3989TIP3   OH236161   0.776   5.931   2.072  0.4024  0.1138 -0.2283
 3989TIP3    H136162   0.782   5.969   2.159 -0.4645 -1.5441  0.6068
 3989TIP3    H236163   0.713   5.859   2.081  0.6536 -0.4036 -2.1031
 3990TIP3   OH236164   7.398   2.328   7.658  0.1211  0.4066 -0.3448
 3990TIP3    H136165   7.470   2.304   7.600  2.2345  2.0341  1.4099
 3990TIP3    H236166   7.419   2.285   7.741 -0.2505  1.8349  0.5252
 3991TIP3   OH236167   0.689   6.603   1.313  0.2240 -0.1097  0.2890
 3991TIP3    H136168   0.620   6.655   1.272  1.9122  1.1279 -1.1833
 3991TIP3    H236169   0.643   6.533   1.359 -1.9823  0.6828 -0.5759
 3992TIP3   OH236170   7.692   5.044   8.558  0.0880 -0.0385  0.4390
 3992TIP3    H136171   7.629   5.085   8.617  0.9053 -0.2528  1.4803
 3992TIP3    H236172   7.670   4.950   8.561 -0.2104  0.0133 -0.0243
 3993TIP3   OH236173   5.229   6.827   0.737 -0.1926  0.8047 -0.4503
 3993TIP3    H136174   5.257   6.801   0.649  0.1458 -0.2443 -0.0521
 3993TIP3    H236175   5.309   6.819   0.790 -0.1427  2.4523 -0.2504
 3994TIP3   OH236176   3.125   0.645   8.400  0.3247  0.5760  0.7317
 3994TIP3    H136177   3.117   0.732   8.361 -0.6743  0.3630  0.4533
 3994TIP3    H236178   3.037   0.623   8.430  0.6940 -0.0798  1.3664
 3995TIP3   OH236179   1.310   5.058   0.536  0.3074  0.2633  0.2015
 3995TIP3    H136180   1.266   5.052   0.451 -2.2146 -1.8288  1.5082
 3995TIP3    H236181   1.327   4.967   0.560  0.3784  0.7589  2.1777
 3996TIP3   OH236182   0.542   3.915   9.302  0.5306 -0.3236  0.6515
 3996TIP3    H136183   0.561   3.864   9.223 -0.9070 -0.0166  0.0772
 3996TIP3    H236184   0.475   3.865   9.347 -0.9502  1.0184  0.0505
 3997TIP3   OH236185   0.148   2.954   1.037 -0.6826  0.1414 -0.3374
 3997TIP3    H136186   0.231   2.975   1.079  0.5329  0.7302 -2.8253
 3997TIP3    H236187   0.165   2.873   0.989 -0.3536  1.9228 -3.5747
 3998TIP3   OH236188   3.419   3.104   0.065  0.8122 -0.5809  0.0798
 3998TIP3    H136189   3.489   3.063   0.115 -0.0065 -0.6146  1.2245
 3998TIP3    H236190   3.362   3.031   0.041  1.9515 -0.8021 -2.2500
 3999TIP3   OH236191   5.737   5.748   8.336  0.0606 -0.6372  0.4075
 3999TIP3    H136192   5.802   5.810   8.304 -0.7050  0.3198  0.6814
 3999TIP3    H236193   5.766   5.663   8.301  1.1557 -0.1491  0.0946
 4000TIP3   OH236194   3.418   6.103   7.684  0.2060  0.2872  0.3308
 4000TIP3    H136195   3.477   6.041   7.641 -0.3235 -0.0733  0.1263
 4000TIP3    H236196   3.407   6.068   7.772  1.9763  1.4751  1.0890
 4001TIP3   OH236197   0.808   4.740   9.501 -0.2050 -0.3821 -0.1319
 4001TIP3    H136198   0.728   4.730   9.450  1.3616 -2.0104 -2.4688
 4001TIP3    H236199   0.878   4.719   9.440  2.0703  1.1984  1.7525
 4002TIP3   OH236200   7.394   3.241   2.240 -0.0194 -0.6658  0.3527
 4002TIP3    H136201   7.480   3.248   2.198 -0.4848 -2.0044 -0.8969
 4002TIP3    H236202   7.332   3.235   2.167 -1.0629 -0.9743  1.2360
 4003TIP3   OH236203   5.795   0.079   9.037  0.8397 -0.5074 -0.0882
 4003TIP3    H136204   5.739   0.057   9.111  0.4641  1.2453  0.1773
 4003TIP3    H236205   5.734   0.100   8.966  1.0987  1.5255  0.2382
 4004TIP3   OH236206   0.840   1.503   2.789 -0.5744  0.5136 -0.2700
 4004TIP3    H136207   0.923   1.467   2.819 -0.9758 -0.4895 -0.3186
 4004TIP3    H236208   0.840   1.489   2.694 -1.4927 -1.0212 -0.0709
 4005TIP3   OH236209   5.642   6.798   8.081  0.1619 -0.5182  0.2813
 4005TIP3    H136210   5.694   6.831   8.155  0.3260 -1.2119  0.4868
 4005TIP3    H236211   5.701   6.805   8.006  0.7931 -1.8687  0.6231
 4006TIP3   OH236212   4.463   0.438   8.384  0.3490 -0.3431 -0.3991
 4006TIP3    H136213   4.396   0.372   8.369  0.4369 -0.2416 -1.2884
 4006TIP3    H236214   4.543   0.388   8.401  0.3595 -0.4718 -0.8142
 4007TIP3   OH236215   3.665   3.333   0.340  0.0952 -0.2290 -0.2446
 4007TIP3    H136216   3.605   3.398   0.304  1.0074  0.9583  0.3130
 4007TIP3    H236217   3.671   3.355   0.433 -0.4616 -1.8385  0.2164
 4008TIP3   OH236218   1.511   6.117   8.517  0.0535 -0.6016  0.4469
 4008TIP3    H136219   1.568   6.040   8.510  0.8844 -0.0334  0.7716
 4008TIP3    H236220   1.545   6.165   8.593  1.4233  1.5544 -1.3938
 4009TIP3   OH236221   0.170   5.414   7.179 -0.7674 -0.6595 -0.0619
 4009TIP3    H136222   0.107   5.345   7.202 -2.0454  0.4789 -0.0484
 4009TIP3    H236223   0.254   5.368   7.174 -1.0191 -1.6853  3.0343
 4010TIP3   OH236224   2.423   1.230   7.614 -0.4059  0.5306 -0.1447
 4010TIP3    H136225   2.397   1.242   7.523  2.6477  0.4765 -1.1428
 4010TIP3    H236226   2.475   1.307   7.634 -0.5447  0.2543  1.3750
 4011TIP3   OH236227   6.042   0.265   8.688 -0.5919 -0.3068  0.0437
 4011TIP3    H136228   6.118   0.321   8.704 -2.8876  3.1623 -0.0977
 4011TIP3    H236229   6.010   0.244   8.776  0.2374 -1.4364  0.0967
 4012TIP3   OH236230   5.021   3.893   8.652  0.3065  0.2988 -0.2386
 4012TIP3    H136231   5.049   3.972   8.698  0.5986 -0.9588  1.9081
 4012TIP3    H236232   5.103   3.844   8.638  0.0338 -0.0094 -0.7747
 4013TIP3   OH236233   1.441   7.584   1.477 -0.0004  0.0476  0.2929
 4013TIP3    H136234   1.527   7.589   1.520  0.6258 -1.6932 -0.6472
 4013TIP3    H236235   1.461   7.575   1.384 -1.2525  0.8281 -0.0700
 4014TIP3   OH236236   6.264   3.954   1.094  0.1147  0.3219  0.3199
 4014TIP3    H136237   6.257   3.873   1.043  1.5239 -1.3118  2.5164
 4014TIP3    H236238   6.352   3.986   1.076 -0.2784  1.1679 -0.1813
 4015TIP3   OH236239   7.570   3.900   7.415 -0.1883 -0.1988 -0.6184
 4015TIP3    H136240   7.509   3.848   7.468  0.5326  0.5528  1.0142
 4015TIP3    H236241   7.530   3.987   7.411 -0.2501 -0.2536 -1.3777
 4016TIP3   OH236242   2.042   1.010   2.618  0.5276  0.7367 -0.6121
 4016TIP3    H136243   1.948   1.016   2.601  0.6892  1.4729 -1.3130
 4016TIP3    H236244   2.050   1.021   2.713 -0.2106 -0.9476 -0.3152
 4017TIP3   OH236245   5.931   1.271   7.104 -0.3332 -0.3270 -0.7113
 4017TIP3    H136246   5.967   1.335   7.043 -0.5345  0.2531 -0.2411
 4017TIP3    H236247   5.859   1.229   7.056 -1.1645  0.8517 -0.5474
 4018TIP3   OH236248   6.431   6.492   1.334  0.9448 -0.4313 -0.2561
 4018TIP3    H136249   6.513   6.442   1.329  1.9805  1.1295  0.2698
 4018TIP3    H236250   6.453   6.568   1.387 -1.4610 -1.0515  1.7993
 4019TIP3   OH236251   2.745   1.899   9.343 -0.6476  0.7396  0.0843
 4019TIP3    H136252   2.773   1.958   9.273  1.4263  0.1500  0.3564
 4019TIP3    H236253   2.656   1.927   9.363 -0.1298  3.0561 -0.5266
 4020TIP3   OH236254   2.481   3.786   1.311 -0.7336  0.2446 -0.1174
 4020TIP3    H136255   2.543   3.827   1.251 -2.3777 -0.4815 -2.4928
 4020TIP3    H236256   2.406   3.846   1.313 -0.7373  0.2310  1.2282
 4021TIP3   OH236257   3.512   6.254   8.457 -0.3207 -0.3005 -0.4145
 4021TIP3    H136258   3.493   6.342   8.491  0.5137 -0.0406 -0.6015
 4021TIP3    H236259   3.437   6.234   8.400 -0.2235  0.5575 -0.8687
 4022TIP3   OH236260   7.054   1.664   7.103  0.1405 -0.0224  0.2150
 4022TIP3    H136261   7.087   1.591   7.051  1.3732 -0.4184  1.4962
 4022TIP3    H236262   7.063   1.634   7.194  1.1908  1.9218  0.7908
 4023TIP3   OH236263   6.606   5.324   8.464  0.1817 -0.3977 -0.0488
 4023TIP3    H136264   6.613   5.244   8.411 -1.0609 -0.3949 -0.2300
 4023TIP3    H236265   6.697   5.346   8.485  0.5887 -1.4005 -0.6806
 4024TIP3   OH236266   7.009   4.785   8.542  0.1380 -0.2836 -0.3843
 4024TIP3    H136267   7.050   4.854   8.491 -0.2307  0.4196  0.2504
 4024TIP3    H236268   6.923   4.820   8.566  0.6129 -0.2368  1.4095
 4025TIP3   OH236269   5.570   0.471   8.487 -0.4293 -0.6191  0.2461
 4025TIP3    H136270   5.587   0.436   8.400  0.2751 -0.3407  0.2617
 4025TIP3    H236271   5.522   0.402   8.532 -1.6283 -0.3956 -0.6615
 4026TIP3   OH236272   1.710   4.403   1.523  0.3668  0.1062 -0.4368
 4026TIP3    H136273   1.735   4.363   1.440 -0.5122  0.4192 -0.8567
 4026TIP3    H236274   1.794   4.426   1.564  0.7971  0.3781 -1.4387
 4027TIP3   OH236275   6.596   3.968   8.449  0.1788 -0.6699  0.4553
 4027TIP3    H136276   6.512   4.000   8.482 -0.2605 -1.2615 -0.0492
 4027TIP3    H236277   6.630   4.041   8.397  0.1407 -0.3023  0.9418
 4028TIP3   OH236278   0.082   6.559   1.007 -0.0511 -0.2364 -0.3470
 4028TIP3    H136279   0.086   6.479   1.059 -1.3250 -0.1969 -0.1503
 4028TIP3    H236280   0.095   6.629   1.071  0.8450 -0.2671 -0.4850
 4029TIP3   OH236281   7.161   0.274   0.201  0.0516 -0.2643 -0.5462
 4029TIP3    H136282   7.182   0.353   0.251 -2.5260 -0.2380  0.6451
 4029TIP3    H236283   7.224   0.209   0.232  1.3829  0.9392 -0.6082
 4030TIP3   OH236284   5.995   1.899   9.028  0.1135 -0.1555 -0.4143
 4030TIP3    H136285   5.955   1.963   8.969 -0.1371  0.0496 -0.0252
 4030TIP3    H236286   5.921   1.864   9.078  0.4397  0.4137  0.4896
 4031TIP3   OH236287   1.313   1.401   2.106 -0.1355 -0.5319 -0.0188
 4031TIP3    H136288   1.405   1.395   2.131 -0.6444 -0.2666  2.1054
 4031TIP3    H236289   1.274   1.319   2.135 -0.8836  0.0480  0.6905
 4032TIP3   OH236290   4.504   5.180   0.278 -0.1967 -1.0306 -0.2676
 4032TIP3    H136291   4.546   5.204   0.361 -0.7014  0.1319 -0.3393
 4032TIP3    H236292   4.544   5.095   0.255 -0.6092 -1.7585  1.5405
 4033TIP3   OH236293   4.811   0.560   9.032 -0.3052 -0.0118 -0.6219
 4033TIP3    H136294   4.880   0.505   8.995  0.4218  1.5007 -1.6050
 4033TIP3    H236295   4.758   0.585   8.956 -2.1042 -1.2720  0.1212
 4034TIP3   OH236296   0.224   5.482   8.741 -0.1376  0.2943  0.0091
 4034TIP3    H136297   0.292   5.526   8.791 -1.1132  1.0818  0.6715
 4034TIP3    H236298   0.185   5.550   8.686  0.5242 -0.4347 -1.4261
 4035TIP3   OH236299   1.066   6.575   1.808 -0.0654 -0.0745  0.1335
 4035TIP3    H136300   1.115   6.622   1.875  0.5392 -0.7477  0.1754
 4035TIP3    H236301   1.010   6.641   1.768 -0.0207  0.4498  0.9232
 4036TIP3   OH236302   5.504   3.441   8.592 -0.2446  0.6145  0.6332
 4036TIP3    H136303   5.572   3.390   8.638  1.1101  0.1672 -1.7016
 4036TIP3    H236304   5.479   3.509   8.654  1.6172  0.1649  1.9634
 4037TIP3   OH236305   1.093   6.429   2.727 -0.0187  0.0825  0.4880
 4037TIP3    H136306   1.124   6.368   2.793  0.1444  0.4687  0.7767
 4037TIP3    H236307   1.040   6.377   2.667  1.9582 -0.8149 -0.5660
 4038TIP3   OH236308   4.794   1.422   7.715  0.3275  1.4473  0.4596
 4038TIP3    H136309   4.761   1.467   7.793 -0.6769  0.9014  0.3589
 4038TIP3    H236310   4.854   1.355   7.750 -0.7489  0.6569  0.8376
 4039TIP3   OH236311   7.505   7.105   8.688  0.2752 -0.7254 -0.0238
 4039TIP3    H136312   7.594   7.134   8.707  0.2193 -0.0662 -0.6882
 4039TIP3    H236313   7.503   7.096   8.593 -1.0387  1.7366 -0.3269
 4040TIP3   OH236314   4.792   3.447   9.509 -0.3695  0.2093  0.2432
 4040TIP3    H136315   4.706   3.484   9.489 -0.6988  0.0346  1.2573
 4040TIP3    H236316   4.844   3.462   9.431 -1.8107 -1.2058 -1.0476
 4041TIP3   OH236317   6.992   4.493   0.880  0.4078  0.0757  0.9478
 4041TIP3    H136318   7.042   4.523   0.956  0.0235  3.0280  0.1623
 4041TIP3    H236319   7.054   4.498   0.807 -0.4037  1.7166  0.3291
 4042TIP3   OH236320   3.957   1.991   7.157  0.4835 -0.0576 -0.1196
 4042TIP3    H136321   4.002   2.063   7.111  0.0356 -0.2676 -0.9063
 4042TIP3    H236322   4.010   1.914   7.136  1.8271  0.2140  1.9244
 4043TIP3   OH236323   3.023   4.462   6.983 -0.0043  0.0269  0.1403
 4043TIP3    H136324   3.104   4.414   6.965 -0.0297 -0.3293  0.9358
 4043TIP3    H236325   2.955   4.410   6.940  0.1646  0.2536 -0.4136
 4044TIP3   OH236326   5.392   7.474   1.393 -0.2654  0.1476  0.6164
 4044TIP3    H136327   5.301   7.500   1.408 -0.6399 -1.0466  0.5144
 4044TIP3    H236328   5.386   7.383   1.364  0.7122  1.0156 -2.6878
 4045TIP3   OH236329   2.548   1.778   0.142  0.0521 -0.6245 -0.0487
 4045TIP3    H136330   2.633   1.756   0.180  0.0991  0.0218  0.2370
 4045TIP3    H236331   2.568   1.842   0.073 -0.3399  0.9429  1.2258
 4046TIP3   OH236332   5.569   6.374   1.685  0.2616  0.5161 -0.3478
 4046TIP3    H136333   5.495   6.373   1.624 -0.4739 -0.8216  0.5205
 4046TIP3    H236334   5.646   6.357   1.630 -0.0912  1.6166 -1.2159
 4047TIP3   OH236335   2.505   2.285   0.657 -0.3492  0.1780 -0.1152
 4047TIP3    H136336   2.420   2.298   0.700 -0.6376 -1.6505 -0.0522
 4047TIP3    H236337   2.513   2.191   0.648  1.5192  0.3371 -0.5035
 4048TIP3   OH236338   1.138   5.008   2.489 -0.5963  0.8941  0.4664
 4048TIP3    H136339   1.052   4.981   2.519  0.4783 -0.3220  2.6677
 4048TIP3    H236340   1.198   4.976   2.556  1.5202  2.2410 -0.6824
 4049TIP3   OH236341   6.436   6.729   9.125 -0.1279  0.1262  0.3061
 4049TIP3    H136342   6.417   6.635   9.128  0.7508 -0.1307 -1.0369
 4049TIP3    H236343   6.501   6.737   9.055  0.7375  1.5883  1.2485
 4050TIP3   OH236344   5.926   2.306   9.361  0.7417 -0.7953 -0.3904
 4050TIP3    H136345   6.001   2.246   9.359 -0.4374 -2.5776  2.2565
 4050TIP3    H236346   5.956   2.381   9.413  1.4305 -0.2468 -1.5391
 4051TIP3   OH236347   5.772   0.565   7.965  0.4066  0.1792  0.3095
 4051TIP3    H136348   5.804   0.596   7.880  1.1218  0.4959  0.6969
 4051TIP3    H236349   5.770   0.642   8.021  1.4438 -0.3016  1.0436
 4052TIP3   OH236350   7.003   2.595   7.131  0.8535  0.1616 -0.4790
 4052TIP3    H136351   7.028   2.682   7.164 -0.6915  1.1413 -1.7493
 4052TIP3    H236352   7.080   2.564   7.085  1.6344  0.5778  0.5065
 4053TIP3   OH236353   7.548   5.874   0.393 -0.4718  0.1659  0.7824
 4053TIP3    H136354   7.569   5.924   0.314 -2.1788 -0.4597 -0.1321
 4053TIP3    H236355   7.549   5.783   0.363 -3.9278  0.0458  0.6842
 4054TIP3   OH236356   5.914   1.082   9.510  0.4170 -0.5798  0.0817
 4054TIP3    H136357   5.893   1.155   9.451  0.0937  0.1916  1.1075
 4054TIP3    H236358   6.000   1.103   9.545 -0.1820 -0.0480  1.2891
 4055TIP3   OH236359   2.664   7.195   1.904 -0.1855  0.2979 -0.0941
 4055TIP3    H136360   2.597   7.258   1.881 -0.7172 -1.0186 -2.4277
 4055TIP3    H236361   2.617   7.113   1.921  0.4866  0.3968  2.8175
 4056TIP3   OH236362   3.915   4.527   8.865  0.0581  0.0266 -0.3229
 4056TIP3    H136363   3.899   4.576   8.946 -0.8364 -1.3599  0.3813
 4056TIP3    H236364   3.847   4.459   8.865  0.3070 -0.2559 -2.0358
 4057TIP3   OH236365   3.124   2.672   8.054  0.0606  0.0079  0.1829
 4057TIP3    H136366   3.209   2.660   8.097 -0.2475 -0.6204  0.6397
 4057TIP3    H236367   3.129   2.618   7.975  0.2586  0.3567 -0.0453
 4058TIP3   OH236368   6.292   1.324   0.203  0.1389 -0.2415  0.2440
 4058TIP3    H136369   6.284   1.388   0.133 -0.6784 -2.0351 -1.3900
 4058TIP3    H236370   6.210   1.333   0.252 -0.3410 -0.5977 -0.4832
 4059TIP3   OH236371   7.480   1.633   1.763  0.3281  0.1483  0.1334
 4059TIP3    H136372   7.569   1.628   1.729  0.8241 -1.3024  1.4932
 4059TIP3    H236373   7.491   1.660   1.854 -0.6775  0.6066  0.1325
 4060TIP3   OH236374   6.026   0.192   7.974  0.0806  0.1510  0.2104
 4060TIP3    H136375   5.970   0.262   8.009 -2.0970  0.6993 -3.8494
 4060TIP3    H236376   5.969   0.115   7.970 -0.0771  0.3071 -2.5394
 4061TIP3   OH236377   5.538   5.349   7.544 -0.1868 -0.4725 -0.2595
 4061TIP3    H136378   5.585   5.393   7.473  1.0606  1.2973  1.5685
 4061TIP3    H236379   5.446   5.357   7.519  0.1766  0.6773 -1.3556
 4062TIP3   OH236380   2.205   0.295   9.861  0.0086  0.1720  0.2170
 4062TIP3    H136381   2.164   0.215   9.895 -1.2241  1.4073  1.8093
 4062TIP3    H236382   2.133   0.341   9.818  0.7633  0.3341 -0.9065
 4063TIP3   OH236383   0.929   6.748   9.017 -0.2259 -0.0325 -0.0195
 4063TIP3    H136384   0.976   6.829   9.032  0.4552 -0.2752 -0.7393
 4063TIP3    H236385   0.988   6.679   9.048 -1.3797 -0.2086  1.9182
 4064TIP3   OH236386   2.130   4.452   9.208 -0.5208 -0.3456  0.0896
 4064TIP3    H136387   2.107   4.522   9.270 -0.3963  0.5798 -0.8741
 4064TIP3    H236388   2.166   4.498   9.133 -1.0273 -1.4190 -0.8344
 4065TIP3   OH236389   7.559   1.130   7.918  0.5806  0.1418  0.5174
 4065TIP3    H136390   7.581   1.221   7.897  0.5186 -0.1923 -1.1464
 4065TIP3    H236391   7.610   1.110   7.997  1.4236  1.2879  0.2843
 4066TIP3   OH236392   6.921   5.480   0.248  0.1456  0.4386 -0.5229
 4066TIP3    H136393   6.909   5.385   0.240  2.3156  0.0489  0.1147
 4066TIP3    H236394   7.016   5.493   0.242  0.1861  2.2495  2.2281
 4067TIP3   OH236395   0.764   0.463   0.744  0.9771  0.1245 -0.1516
 4067TIP3    H136396   0.712   0.389   0.714 -0.1827  0.5894  0.6144
 4067TIP3    H236397   0.781   0.514   0.664  1.5101 -0.7770 -0.6303
 4068TIP3   OH236398   6.159   2.285   1.945  0.2901  0.2195  0.3452
 4068TIP3    H136399   6.084   2.325   1.988  0.4987 -0.2325  1.1530
 4068TIP3    H236400   6.218   2.261   2.017  1.0086  0.1728 -0.2457
 4069TIP3   OH236401   1.387   3.729   7.710 -0.1401 -0.0494  0.7123
 4069TIP3    H136402   1.417   3.690   7.628 -0.2415 -2.2632  1.6531
 4069TIP3    H236403   1.404   3.823   7.700  0.6928 -0.3765 -1.4567
 4070TIP3   OH236404   1.381   2.525   3.135  0.2697 -0.5839  0.1295
 4070TIP3    H136405   1.339   2.470   3.069 -1.1852 -0.6738  1.0792
 4070TIP3    H236406   1.474   2.520   3.115 -0.1842  0.3185 -2.6108
 4071TIP3   OH236407   1.292   5.773   1.040 -0.0197 -0.1110  0.5774
 4071TIP3    H136408   1.332   5.772   1.126 -0.1767  0.0709  0.6536
 4071TIP3    H236409   1.330   5.698   0.994  0.9203  0.4532  0.4092
 4072TIP3   OH236410   6.427   2.938   9.931  0.8753  0.7300  0.5223
 4072TIP3    H136411   6.510   2.970   9.966  0.4328  0.8277  1.5060
 4072TIP3    H236412   6.360   2.985   9.981  0.1786 -1.9082  2.2615
 4073TIP3   OH236413   1.338   6.741   2.367  0.0220 -0.0936 -0.4011
 4073TIP3    H136414   1.420   6.772   2.403 -1.1786  2.2034  0.5690
 4073TIP3    H236415   1.271   6.799   2.404 -1.9051 -1.0112 -2.1746
 4074TIP3   OH236416   1.578   5.409   2.091 -0.0159  0.3052  0.1446
 4074TIP3    H136417   1.505   5.360   2.129 -0.7318  0.1551 -1.3516
 4074TIP3    H236418   1.540   5.455   2.016  1.9103 -2.1211 -2.5470
 4075TIP3   OH236419   5.402   0.177   2.664  0.0274  0.5075  0.7012
 4075TIP3    H136420   5.434   0.160   2.753 -0.5209 -0.8732  0.6747
 4075TIP3    H236421   5.334   0.242   2.675  0.0671  0.4566  1.2839
 4076TIP3   OH236422   4.322   2.177   2.176  0.1013  0.5821 -0.0107
 4076TIP3    H136423   4.320   2.099   2.121  0.2672 -0.5795  1.5543
 4076TIP3    H236424   4.385   2.157   2.245 -1.1738  1.3588  1.4533
 4077TIP3   OH236425   5.982   3.337   1.348 -0.0300  0.1170  0.8366
 4077TIP3    H136426   6.009   3.263   1.400 -0.2522 -0.4618  0.1451
 4077TIP3    H236427   5.888   3.345   1.365 -0.2135 -0.4263  0.0957
 4078TIP3   OH236428   3.247   1.031   8.659  0.1558 -0.1748 -0.4327
 4078TIP3    H136429   3.197   1.103   8.698  0.7984  0.5762 -0.9469
 4078TIP3    H236430   3.318   1.015   8.721 -1.3194 -2.0683  0.9123
 4079TIP3   OH236431   4.938   3.004   0.226  0.2662 -0.3587  0.5748
 4079TIP3    H136432   4.961   2.967   0.141 -0.5154 -0.2651  0.3073
 4079TIP3    H236433   4.850   3.041   0.212  0.9157  1.4217  0.8625
 4080TIP3   OH236434   6.252   3.336   1.707  0.0995 -0.2417  0.2030
 4080TIP3    H136435   6.169   3.381   1.693  0.1686 -0.5146 -1.1206
 4080TIP3    H236436   6.309   3.404   1.745 -0.8365 -0.1803  1.5614
 4081TIP3   OH236437   2.099   1.528   2.267 -0.6594 -0.7272 -0.2739
 4081TIP3    H136438   2.076   1.510   2.358  0.8233  1.6004  0.6559
 4081TIP3    H236439   2.153   1.453   2.241  0.6416 -0.4745  1.5032
 4082TIP3   OH236440   6.586   0.034   1.572  0.0195 -0.1944  0.5600
 4082TIP3    H136441   6.619   0.120   1.599 -0.5581  1.1922 -2.6513
 4082TIP3    H236442   6.492   0.047   1.561  0.0625 -0.8739 -0.9499
 4083TIP3   OH236443   4.746   3.580   7.396 -0.3574  0.1538 -0.8150
 4083TIP3    H136444   4.656   3.548   7.384 -1.1155  2.5133 -1.9797
 4083TIP3    H236445   4.781   3.585   7.307  0.6924 -0.0292 -0.4196
 4084TIP3   OH236446   6.863   4.128   1.563 -0.1058  0.3442 -0.3121
 4084TIP3    H136447   6.813   4.080   1.498  0.8158  0.8643 -1.4309
 4084TIP3    H236448   6.801   4.189   1.602 -0.7746 -0.3041 -0.3423
 4085TIP3   OH236449   3.451   5.356   7.689 -0.9052 -0.0128 -0.1793
 4085TIP3    H136450   3.459   5.388   7.779 -2.2684  0.9271 -0.3735
 4085TIP3    H236451   3.429   5.263   7.699  1.7933 -0.6727  0.3914
 4086TIP3   OH236452   4.445   7.081   1.793  0.1417  0.1154  0.1887
 4086TIP3    H136453   4.429   7.175   1.779 -1.2534 -0.1803 -0.3659
 4086TIP3    H236454   4.377   7.038   1.742  0.5590 -1.2031  0.7210
 4087TIP3   OH236455   0.215   6.586   1.785 -0.5076  0.4541  0.7331
 4087TIP3    H136456   0.144   6.572   1.723 -0.4561 -0.1551  0.8041
 4087TIP3    H236457   0.177   6.641   1.853 -1.7235 -1.9760  2.1343
 4088TIP3   OH236458   5.287   2.190   8.401  0.4077  0.0766  0.4194
 4088TIP3    H136459   5.230   2.168   8.328 -0.2923  1.3571  0.5544
 4088TIP3    H236460   5.273   2.120   8.465 -0.4754  0.0007  0.1501
 4089TIP3   OH236461   0.901   3.964   7.782  0.3961 -0.5932  0.3170
 4089TIP3    H136462   0.977   4.015   7.754  1.4407 -1.5027  1.3151
 4089TIP3    H236463   0.904   3.969   7.878  1.2023 -3.3116  0.5220
 4090TIP3   OH236464   6.101   6.917   1.973 -0.3730 -0.2935 -1.0285
 4090TIP3    H136465   6.116   6.994   1.917 -0.5670  0.2409 -0.3529
 4090TIP3    H236466   6.079   6.953   2.059  0.9416 -1.0973 -0.3119
 4091TIP3   OH236467   2.376   0.755   9.482  0.2787 -0.0424  0.5137
 4091TIP3    H136468   2.417   0.765   9.568  2.8324 -1.1188 -0.4959
 4091TIP3    H236469   2.425   0.685   9.440 -1.7105 -0.3757 -1.3967
 4092TIP3   OH236470   2.246   2.445   9.795 -0.1110 -0.1116 -0.2102
 4092TIP3    H136471   2.233   2.370   9.853  0.5832  0.1288  0.2612
 4092TIP3    H236472   2.162   2.491   9.797  0.3359  0.7230  1.8097
 4093TIP3   OH236473   4.946   0.451   0.724 -0.1254 -0.3331  0.0882
 4093TIP3    H136474   4.990   0.482   0.645 -1.3756  2.6981  0.4623
 4093TIP3    H236475   4.906   0.368   0.698  1.1016 -0.3925 -1.8461
 4094TIP3   OH236476   2.255   5.716   2.908  0.4486 -0.0306 -0.2315
 4094TIP3    H136477   2.160   5.728   2.918  0.3275 -1.2057  0.1942
 4094TIP3    H236478   2.267   5.621   2.906  1.7252  0.0756  0.8842
 4095TIP3   OH236479   7.365   3.494   1.860  0.0333  0.5490 -0.0430
 4095TIP3    H136480   7.456   3.474   1.842  0.8876  1.6975  2.5103
 4095TIP3    H236481   7.354   3.584   1.829  0.1328  0.8399  0.7530
 4096TIP3   OH236482   2.468   7.398   8.793 -0.1719 -0.2874 -0.2314
 4096TIP3    H136483   2.485   7.481   8.748  0.5391 -0.4787 -0.3123
 4096TIP3    H236484   2.538   7.340   8.765 -1.0020 -1.1161 -0.6441
 4097TIP3   OH236485   0.744   2.763   8.015 -0.4809 -0.0965 -0.2037
 4097TIP3    H136486   0.821   2.778   7.961 -0.1991  0.7434  0.4238
 4097TIP3    H236487   0.676   2.817   7.975 -0.4877 -0.0975 -0.1930
 4098TIP3   OH236488   4.325   4.816   8.106 -0.3678 -0.4657  0.1606
 4098TIP3    H136489   4.306   4.800   8.198 -0.9839  2.2645  0.5956
 4098TIP3    H236490   4.421   4.821   8.102 -0.3637  0.2269  0.8442
 4099TIP3   OH236491   2.903   7.044   2.127 -0.0455  0.1318 -0.2877
 4099TIP3    H136492   2.875   6.961   2.164 -0.7293  0.3669 -0.2555
 4099TIP3    H236493   2.989   7.060   2.164 -0.4512  0.0650  0.7234
 4100TIP3   OH236494   4.060   0.132   8.035  0.2464 -0.7601 -0.5755
 4100TIP3    H136495   4.090   0.042   8.030 -1.3222 -1.3642  0.2313
 4100TIP3    H236496   3.968   0.128   8.009  0.0713  0.5597 -0.2240
 4101TIP3   OH236497   5.809   7.177   2.879 -0.7081  0.2334  0.2082
 4101TIP3    H136498   5.716   7.173   2.903 -1.1248  0.1594 -1.3247
 4101TIP3    H236499   5.851   7.116   2.939 -1.8742 -0.8267  0.0037
 4102TIP3   OH236500   7.139   0.487   9.204  0.7698  0.1477 -0.1091
 4102TIP3    H136501   7.084   0.409   9.190  0.6989  0.1327  0.2565
 4102TIP3    H236502   7.086   0.544   9.261  0.4483  0.8609 -1.0874
 4103TIP3   OH236503   7.551   1.381   9.654  0.2815 -0.2106  0.5239
 4103TIP3    H136504   7.497   1.460   9.658  0.3368 -0.1210 -0.2908
 4103TIP3    H236505   7.592   1.376   9.740 -0.1547  0.3402  0.7744
 4104TIP3   OH236506   4.708   4.634   9.353  0.5361  0.2446  0.1451
 4104TIP3    H136507   4.734   4.659   9.265 -1.1333  0.2268 -0.3874
 4104TIP3    H236508   4.725   4.712   9.406 -0.4570  1.0294 -0.6399
 4105TIP3   OH236509   5.767   2.596   1.817  0.1368 -0.4312  0.0882
 4105TIP3    H136510   5.785   2.521   1.761  1.9985  0.6720 -0.9162
 4105TIP3    H236511   5.853   2.622   1.850 -0.3494  1.6019 -0.0870
 4106TIP3   OH236512   1.165   5.311   7.365 -0.0391  0.7603  0.6131
 4106TIP3    H136513   1.171   5.254   7.288 -0.3474 -0.4373  1.4341
 4106TIP3    H236514   1.085   5.360   7.353  0.3409  1.1922 -0.2195
 4107TIP3   OH236515   7.106   4.415   9.452  0.0733  0.3854  0.2030
 4107TIP3    H136516   7.021   4.416   9.406  0.9622  1.0057 -1.5312
 4107TIP3    H236517   7.164   4.366   9.394  0.5028 -1.6517  2.2277
 4108TIP3   OH236518   1.591   3.815   9.610  0.2415  0.1313 -0.2542
 4108TIP3    H136519   1.505   3.776   9.624 -1.4944  3.4007 -0.7055
 4108TIP3    H236520   1.632   3.816   9.696  0.8426 -3.3566 -0.3804
 4109TIP3   OH236521   0.127   3.664   1.241 -0.0989 -0.3333 -0.5910
 4109TIP3    H136522   0.073   3.638   1.316 -0.2631  0.7578 -0.3040
 4109TIP3    H236523   0.214   3.629   1.261  0.2772  1.2827  0.9523
 4110TIP3   OH236524   3.035   7.569   2.079  0.5996 -0.1341  1.0388
 4110TIP3    H136525   2.989   7.515   2.144  0.4215  1.3971  2.2468
 4110TIP3    H236526   2.972   7.636   2.055  1.0885  0.0288  0.1753
 4111TIP3   OH236527   1.986   0.828   0.976  0.1602 -0.1399 -0.6228
 4111TIP3    H136528   1.913   0.857   1.031 -1.6823  0.1688 -3.0677
 4111TIP3    H236529   2.005   0.739   1.007 -2.2803 -0.8114 -0.8500
 4112TIP3   OH236530   1.913   5.232   9.171  0.1475 -0.3175  0.1420
 4112TIP3    H136531   1.926   5.141   9.145  0.3363 -0.3793  0.4529
 4112TIP3    H236532   1.840   5.262   9.116  0.5938 -0.4246 -0.5147
 4113TIP3   OH236533   2.154   0.972   0.535 -0.4459  0.4305  0.5116
 4113TIP3    H136534   2.118   1.043   0.587  1.1706  1.3358  0.4592
 4113TIP3    H236535   2.093   0.961   0.463 -0.5400  2.0293  0.3179
 4114TIP3   OH236536   3.521   7.555   1.115 -0.2189  0.8506 -0.3582
 4114TIP3    H136537   3.516   7.646   1.089  0.4115  0.9312 -0.2024
 4114TIP3    H236538   3.548   7.558   1.207 -3.2387  0.6146  0.6606
 4115TIP3   OH236539   4.417   6.339   0.577  0.3161  0.3652 -0.3209
 4115TIP3    H136540   4.384   6.428   0.582  2.1380  1.0690  0.1418
 4115TIP3    H236541   4.343   6.284   0.603 -0.1213  1.9228  2.0761
 4116TIP3   OH236542   1.746   1.844   2.860 -0.0037 -0.1681 -0.2117
 4116TIP3    H136543   1.789   1.928   2.878  0.5181 -0.6383  0.8046
 4116TIP3    H236544   1.653   1.867   2.852  0.0575  0.4338  0.6508
 4117TIP3   OH236545   2.417   6.346   9.383  0.1297  0.2189  0.1114
 4117TIP3    H136546   2.372   6.279   9.435 -0.7053 -0.5566 -1.5416
 4117TIP3    H236547   2.461   6.297   9.314 -1.1498  1.3683 -1.6204
 4118TIP3   OH236548   4.601   2.970   7.900  0.0592 -0.4903 -0.3847
 4118TIP3    H136549   4.694   2.953   7.912 -0.2339 -1.2344  0.9951
 4118TIP3    H236550   4.585   2.950   7.807  1.0441 -1.4600 -0.3594
 4119TIP3   OH236551   1.252   1.790   0.044  0.4222 -0.3334  0.2107
 4119TIP3    H136552   1.273   1.880   0.018 -0.0535 -0.5166 -0.8673
 4119TIP3    H236553   1.172   1.797   0.096 -0.4886 -0.2590 -1.1503
 4120TIP3   OH236554   2.109   2.828   1.457  0.0837 -0.4114  0.1173
 4120TIP3    H136555   2.016   2.823   1.434  0.0924  0.8256 -0.2213
 4120TIP3    H236556   2.144   2.742   1.432 -0.0960  0.4829 -3.7920
 4121TIP3   OH236557   1.653   0.677   2.674 -0.0714 -0.1203  0.5559
 4121TIP3    H136558   1.676   0.717   2.590  1.6910  0.0096  1.0779
 4121TIP3    H236559   1.571   0.631   2.656  0.1486  0.0898 -1.1782
 4122TIP3   OH236560   7.428   1.652   1.225 -0.2446 -0.7290 -0.6939
 4122TIP3    H136561   7.501   1.653   1.163  0.8685 -0.3399  0.5937
 4122TIP3    H236562   7.457   1.705   1.299 -2.1185  0.0420 -0.4398
 4123TIP3   OH236563   6.757   5.512   7.109 -0.0610 -0.4402  0.3433
 4123TIP3    H136564   6.704   5.447   7.155  0.7497 -2.2778 -1.2037
 4123TIP3    H236565   6.695   5.581   7.085 -1.4061 -1.6725  0.1655
 4124TIP3   OH236566   3.206   1.156   7.878  0.1338  0.3805  0.1127
 4124TIP3    H136567   3.175   1.066   7.882  0.4247  0.3188  1.8585
 4124TIP3    H236568   3.282   1.153   7.820  0.8631 -0.7613  1.0720
 4125TIP3   OH236569   5.840   1.267   8.099  0.3213 -0.1897  0.1697
 4125TIP3    H136570   5.880   1.345   8.138 -0.2939  0.8538 -1.2091
 4125TIP3    H236571   5.888   1.253   8.018 -0.3365 -0.5413 -0.1712
 4126TIP3   OH236572   0.001   1.411   1.711 -0.5884 -0.0020 -0.3672
 4126TIP3    H136573   0.064   1.474   1.678  1.1012 -1.1658  0.4958
 4126TIP3    H236574  -0.055   1.391   1.635  0.4189  0.6538 -1.3098
 4127TIP3   OH236575   5.865   4.329   8.090  0.4716 -0.2315  0.2685
 4127TIP3    H136576   5.950   4.364   8.117  0.5940  0.3257 -0.7755
 4127TIP3    H236577   5.826   4.399   8.037 -0.4573 -0.6450  0.3888
 4128TIP3   OH236578   2.288   2.594   8.537 -0.5053  0.0605  0.3819
 4128TIP3    H136579   2.216   2.653   8.516  0.0894  0.4116 -0.7703
 4128TIP3    H236580   2.284   2.526   8.470 -1.0776 -1.1429  1.5974
 4129TIP3   OH236581   7.313   2.620   1.860 -0.1479  0.1052  0.5469
 4129TIP3    H136582   7.245   2.655   1.804  0.0616  0.3790  0.4644
 4129TIP3    H236583   7.363   2.561   1.804 -1.6291 -1.8255  1.1320
 4130TIP3   OH236584   0.535   0.923   1.020  0.7083  0.1540 -0.3521
 4130TIP3    H136585   0.610   0.952   1.072  0.6225  0.3433 -0.3343
 4130TIP3    H236586   0.561   0.836   0.988  0.4189 -0.3272  0.6909
 4131TIP3   OH236587   5.671   3.539   8.117 -0.7386 -0.1202 -0.1124
 4131TIP3    H136588   5.589   3.537   8.067 -1.3227  1.2077  0.7308
 4131TIP3    H236589   5.697   3.631   8.115 -0.1470 -0.2531  1.0425
 4132TIP3   OH236590   3.761   3.647   9.489  0.0090  0.1964 -0.1522
 4132TIP3    H136591   3.814   3.649   9.569 -1.0623 -0.9306  0.6188
 4132TIP3    H236592   3.694   3.714   9.503  0.3500  0.6268 -0.5179
 4133TIP3   OH236593   0.061   5.162   9.871  0.1486  0.8096  0.3952
 4133TIP3    H136594  -0.028   5.196   9.864  0.6195  2.2491  1.0618
 4133TIP3    H236595   0.081   5.129   9.784 -0.8073  1.0754  0.0651
 4134TIP3   OH236596   1.863   6.314   9.957  0.4286  0.5570  0.7548
 4134TIP3    H136597   1.829   6.311  10.046 -0.9500 -0.5459  0.2273
 4134TIP3    H236598   1.932   6.381   9.960  0.9190  0.0430  2.8007
 4135TIP3   OH236599   1.047   1.091   9.442  0.0695  0.0998  0.2243
 4135TIP3    H136600   1.000   1.063   9.363 -0.0292  0.8450  0.0118
 4135TIP3    H236601   1.112   1.153   9.410  0.0431  0.3890  0.7248
 4136TIP3   OH236602   2.713   0.477   9.918  0.1615  0.0957 -0.0842
 4136TIP3    H136603   2.698   0.396   9.967  1.6901 -2.6784 -3.7484
 4136TIP3    H236604   2.804   0.500   9.936  0.0687  0.3711  0.0490
 4137TIP3   OH236605   3.358   5.593   7.209 -0.2595 -0.3127  0.3829
 4137TIP3    H136606   3.402   5.663   7.161  1.1287 -0.5978  1.2190
 4137TIP3    H236607   3.368   5.616   7.301  0.0294 -1.5078  0.6631
 4138TIP3   OH236608   0.724   3.214   9.067 -0.2385  0.0762  0.0657
 4138TIP3    H136609   0.697   3.306   9.071 -2.9288 -0.5703 -0.7815
 4138TIP3    H236610   0.715   3.191   8.975 -0.4463 -1.2407  0.3970
 4139TIP3   OH236611   6.236   3.690   0.957 -0.3883 -0.0850 -0.0049
 4139TIP3    H136612   6.286   3.736   0.890 -0.5007 -0.5289 -0.3965
 4139TIP3    H236613   6.302   3.642   1.008 -0.4995 -1.6426 -1.2702
 4140TIP3   OH236614   5.980   2.436   2.085  0.0643  0.0295 -0.6130
 4140TIP3    H136615   5.885   2.432   2.082  0.0055  0.6188  0.2286
 4140TIP3    H236616   6.000   2.501   2.153  1.0891 -2.7460  1.9889
 4141TIP3   OH236617   0.534   0.816   7.743 -0.3421 -0.9991 -0.0798
 4141TIP3    H136618   0.597   0.841   7.810 -0.3640 -0.4772 -0.2549
 4141TIP3    H236619   0.485   0.896   7.725 -0.6751 -1.2620 -0.3548
 4142TIP3   OH236620   0.574   4.710  10.017 -0.2466  0.3509  0.2170
 4142TIP3    H136621   0.499   4.664  10.054 -0.2487 -0.3873 -0.6716
 4142TIP3    H236622   0.551   4.803  10.024 -0.4449  0.2122  1.5961
 4143TIP3   OH236623   5.666   3.635   0.040 -0.2177  0.3958 -0.5030
 4143TIP3    H136624   5.735   3.597  -0.014  0.1572  0.8377 -0.3390
 4143TIP3    H236625   5.639   3.713  -0.007 -2.2155 -0.9594 -1.7541
 4144TIP3   OH236626   6.362   7.397   2.874  0.0296 -0.6810 -0.0225
 4144TIP3    H136627   6.334   7.487   2.896  0.1956 -0.6656  0.1318
 4144TIP3    H236628   6.330   7.383   2.785 -1.8081 -1.2002  0.6619
 4145TIP3   OH236629   3.593   0.581   8.528  0.2276 -0.0786 -0.0071
 4145TIP3    H136630   3.500   0.567   8.542 -0.0820  1.6321 -0.0890
 4145TIP3    H236631   3.607   0.565   8.434  0.8942 -4.3829  0.6221
 4146TIP3   OH236632   2.902   2.794   1.555  0.2352 -0.3238 -0.2601
 4146TIP3    H136633   2.937   2.822   1.639 -1.6102  0.0446  0.4363
 4146TIP3    H236634   2.944   2.851   1.491  1.1669 -0.1645  0.4717
 4147TIP3   OH236635   1.050   4.251   6.641 -0.6978 -0.3530 -0.6627
 4147TIP3    H136636   0.986   4.290   6.582 -2.8686 -0.9487  1.1570
 4147TIP3    H236637   1.135   4.285   6.611 -2.0242  2.0613 -1.9680
 4148TIP3   OH236638   1.980   5.267   2.858 -0.1117 -0.3259  0.2763
 4148TIP3    H136639   2.006   5.339   2.915  2.9213 -1.0212 -0.0607
 4148TIP3    H236640   1.952   5.309   2.777 -1.0864  0.5367  1.0421
 4149TIP3   OH236641   5.830   1.378   8.588  0.1554  0.1470  0.0903
 4149TIP3    H136642   5.779   1.407   8.664  0.4504  1.0869 -0.0607
 4149TIP3    H236643   5.770   1.385   8.514  0.4340  1.1152 -0.0639
 4150TIP3   OH236644   3.168   3.281   1.448  0.2802  0.0409 -0.2040
 4150TIP3    H136645   3.139   3.271   1.539  1.5539  2.0733  0.4741
 4150TIP3    H236646   3.131   3.365   1.421  1.3869  0.2911 -0.9635
 4151TIP3   OH236647   1.989   3.955   1.052  0.8392  0.3224 -0.0804
 4151TIP3    H136648   1.970   3.991   1.139  0.2174 -0.6127  0.1919
 4151TIP3    H236649   2.033   3.872   1.070 -2.3932 -1.6892 -0.4781
 4152TIP3   OH236650   0.692   0.630   2.046 -0.0478  0.2307  0.0353
 4152TIP3    H136651   0.665   0.692   2.114 -1.1733 -0.4823  0.2746
 4152TIP3    H236652   0.786   0.616   2.062 -0.3474 -0.1457  1.6664
 4153TIP3   OH236653   5.986   7.316   7.378  0.1125 -0.3814 -0.4617
 4153TIP3    H136654   6.002   7.231   7.418 -0.9627 -0.6067 -0.4877
 4153TIP3    H236655   5.917   7.355   7.432  0.0707  0.1551 -0.8974
 4154TIP3   OH236656   0.043   5.014   0.084  0.2626 -0.1992 -0.2214
 4154TIP3    H136657   0.072   5.072   0.013  1.4179 -0.0153  0.3649
 4154TIP3    H236658  -0.042   5.049   0.111 -1.5559 -1.8573 -3.2663
 4155TIP3   OH236659   7.713   5.128   9.609  0.8071  0.2812 -0.3490
 4155TIP3    H136660   7.756   5.077   9.541 -0.9583 -0.9831 -0.5841
 4155TIP3    H236661   7.677   5.204   9.563 -0.2808 -0.5098 -0.8376
 4156TIP3   OH236662   3.016   6.076   1.161  0.7833 -0.5409 -0.4980
 4156TIP3    H136663   2.984   6.042   1.245  0.4595  0.1870 -0.3120
 4156TIP3    H236664   2.937   6.102   1.114  1.0332  0.2802 -0.4796
 4157TIP3   OH236665   6.873   7.005   0.170 -0.8953  0.4651  0.7886
 4157TIP3    H136666   6.944   7.046   0.120  0.9554 -1.4771  1.6714
 4157TIP3    H236667   6.848   7.072   0.234  1.1345  0.7430  1.3621
 4158TIP3   OH236668   0.280   0.844   2.169  0.0271 -0.3035  0.4961
 4158TIP3    H136669   0.312   0.932   2.191  1.7555 -1.3215  2.4055
 4158TIP3    H236670   0.328   0.821   2.089 -0.9902  0.7197 -0.4497
 4159TIP3   OH236671   6.867   5.542   2.060 -0.1486 -0.0873  0.5039
 4159TIP3    H136672   6.938   5.593   2.100  0.3103  0.3528 -0.8139
 4159TIP3    H236673   6.908   5.460   2.034 -0.0854  0.1851 -0.3012
 4160TIP3   OH236674   4.280   4.992   8.726  0.3618  0.0535  0.4538
 4160TIP3    H136675   4.240   4.926   8.783 -2.1905  0.0851 -1.1463
 4160TIP3    H236676   4.350   4.944   8.681 -0.3488 -1.1263  0.5520
 4161TIP3   OH236677   7.145   1.574   1.219 -0.5456  0.6274 -0.1304
 4161TIP3    H136678   7.091   1.652   1.208 -1.0036  0.3098 -0.1239
 4161TIP3    H236679   7.234   1.603   1.197 -0.6817  1.1998  0.0658
 4162TIP3   OH236680   0.669   7.543   8.590 -0.1721  1.1536 -0.2765
 4162TIP3    H136681   0.661   7.618   8.531  3.4534  0.2530 -2.2060
 4162TIP3    H236682   0.632   7.470   8.541  0.7026  0.8466 -0.5063
 4163TIP3   OH236683   3.110   4.992   8.399  0.4641  0.1240  0.6399
 4163TIP3    H136684   3.095   5.086   8.406  0.6980  0.1691  0.5220
 4163TIP3    H236685   3.205   4.982   8.393  0.3729  0.0544 -1.8557
 4164TIP3   OH236686   1.766   2.842   2.713 -0.0824 -0.4433 -0.4953
 4164TIP3    H136687   1.853   2.879   2.696  0.2347 -0.9655 -0.0404
 4164TIP3    H236688   1.725   2.904   2.772  0.5729 -0.9608  0.5322
 4165TIP3   OH236689   1.052   5.055   8.073  0.1588 -0.4893  0.1998
 4165TIP3    H136690   1.029   4.989   8.138  0.9973  1.0311  2.1897
 4165TIP3    H236691   1.148   5.050   8.067  0.4166  1.5007  1.6061
 4166TIP3   OH236692   1.548   0.241   7.983 -0.2335  0.0992 -0.1994
 4166TIP3    H136693   1.588   0.180   7.921  0.3210  0.2832 -0.0327
 4166TIP3    H236694   1.459   0.208   7.996  0.4286 -1.4149  0.8376
 4167TIP3   OH236695   6.210   2.095   8.153  0.4772 -0.0711 -0.1094
 4167TIP3    H136696   6.204   2.180   8.111  2.7511 -0.3818 -1.2185
 4167TIP3    H236697   6.297   2.094   8.193  0.3426 -1.7190  0.2331
 4168TIP3   OH236698   1.406   4.759   2.450  0.6614 -0.1044  0.0674
 4168TIP3    H136699   1.467   4.833   2.450 -0.6037  0.9955 -0.2661
 4168TIP3    H236700   1.338   4.785   2.387 -0.5149 -0.9418  0.9480
 4169TIP3   OH236701   7.037   0.304   7.553  0.4884 -0.3956  0.3876
 4169TIP3    H136702   6.979   0.255   7.611 -0.2998 -1.8536 -1.5536
 4169TIP3    H236703   7.054   0.385   7.601 -2.8930 -0.0157  1.2270
 4170TIP3   OH236704   3.915   1.862   8.751 -0.0305  0.2461  0.1145
 4170TIP3    H136705   3.881   1.935   8.804 -1.9859  1.1073 -2.1319
 4170TIP3    H236706   3.855   1.789   8.770  0.4135 -0.0266  0.4838
 4171TIP3   OH236707   5.476   2.219   8.134  0.1371 -0.0944 -0.2617
 4171TIP3    H136708   5.545   2.152   8.140  0.1560 -0.1385 -0.9540
 4171TIP3    H236709   5.427   2.209   8.216  0.8570 -0.1654  0.1709
 4172TIP3   OH236710   2.891   5.893   9.112  0.1386 -0.1313 -0.8171
 4172TIP3    H136711   2.870   5.801   9.122  1.8325 -0.5749 -0.9134
 4172TIP3    H236712   2.835   5.938   9.175  0.0659 -1.3433  0.0200
 4173TIP3   OH236713   0.323   0.580   7.502 -0.0811 -0.1805 -0.3983
 4173TIP3    H136714   0.317   0.504   7.445  0.7385  0.2130 -1.0312
 4173TIP3    H236715   0.236   0.619   7.501 -0.9608 -1.9390  1.1373
 4174TIP3   OH236716   7.045   6.584   8.144 -0.3010  0.3328  0.4709
 4174TIP3    H136717   6.973   6.597   8.083 -1.0671 -0.1489  1.2443
 4174TIP3    H236718   7.051   6.666   8.193 -0.8215  0.1172  0.9055
 4175TIP3   OH236719   4.010   2.938   8.066  0.4051  0.3777  0.3722
 4175TIP3    H136720   3.937   2.929   8.004 -0.2081  0.7016  1.0216
 4175TIP3    H236721   4.034   2.848   8.087  0.1765  0.2652  0.1619
 4176TIP3   OH236722   4.292   1.275   8.763  0.4129  0.3071 -0.1402
 4176TIP3    H136723   4.322   1.188   8.740 -0.2746 -0.0728  0.3384
 4176TIP3    H236724   4.309   1.282   8.857 -2.7691 -0.7299  0.6368
 4177TIP3   OH236725   3.705   7.704   0.747 -0.7038  0.7950 -0.1460
 4177TIP3    H136726   3.629   7.761   0.762 -0.7087  0.8977 -0.5443
 4177TIP3    H236727   3.775   7.742   0.799 -0.6612  1.2689 -0.5384
 4178TIP3   OH236728   1.483   6.071   7.362 -0.1862 -0.0301  0.0496
 4178TIP3    H136729   1.526   6.030   7.286  0.5624 -2.0407  1.4737
 4178TIP3    H236730   1.451   6.155   7.329 -0.2943 -1.0227 -2.6160
 4179TIP3   OH236731   1.265   2.311   8.624 -0.8807  0.0921 -0.0458
 4179TIP3    H136732   1.264   2.320   8.720  1.3913 -0.1971  0.0639
 4179TIP3    H236733   1.357   2.294   8.603 -1.5393 -1.1695 -2.1787
 4180TIP3   OH236734   3.073   3.928   8.457  0.2882 -0.0513  0.2199
 4180TIP3    H136735   3.118   4.012   8.447 -0.7863  1.0966  3.5266
 4180TIP3    H236736   3.140   3.869   8.490  0.6652 -0.0060 -0.4549
 4181TIP3   OH236737   6.119   2.440   7.415  0.2784  0.8193  0.6299
 4181TIP3    H136738   6.047   2.502   7.403 -1.1272 -0.6420  1.0230
 4181TIP3    H236739   6.111   2.411   7.506  0.8537  0.0421  0.4457
 4182TIP3   OH236740   4.013   0.770   3.053 -0.2489  0.0330 -0.4555
 4182TIP3    H136741   3.961   0.690   3.062  0.0806 -0.0091  1.5665
 4182TIP3    H236742   3.966   0.821   2.987 -3.1981  0.1955  1.5572
 4183TIP3   OH236743   0.970   6.323   0.214  0.4636  0.0721  0.5257
 4183TIP3    H136744   0.895   6.321   0.154 -1.1009 -0.8397  2.4176
 4183TIP3    H236745   0.972   6.235   0.253  2.1191  0.2950  1.0275
 4184TIP3   OH236746   6.171   7.580   0.502 -0.0713  0.4774  0.3901
 4184TIP3    H136747   6.206   7.598   0.415 -0.6217 -0.9006 -0.1429
 4184TIP3    H236748   6.248   7.581   0.560  0.2775  1.5341 -0.0826
 4185TIP3   OH236749   5.400   7.649   2.969 -0.0553  0.3194 -0.3347
 4185TIP3    H136750   5.438   7.568   2.936 -1.5651  0.2954 -2.2295
 4185TIP3    H236751   5.463   7.717   2.945 -0.4186  0.1032 -2.0113
 4186TIP3   OH236752   5.896   3.678   1.343  0.1218 -0.2768 -0.1087
 4186TIP3    H136753   5.856   3.765   1.346 -0.1730 -0.3849 -0.8593
 4186TIP3    H236754   5.870   3.642   1.258  1.0876 -0.6943 -0.2394
 4187TIP3   OH236755   1.873   6.223   9.144  0.2365 -0.0664  0.1897
 4187TIP3    H136756   1.958   6.181   9.143 -0.7718 -2.2686 -1.4909
 4187TIP3    H236757   1.814   6.157   9.179 -0.9744  0.9729  0.1855
 4188TIP3   OH236758   1.856   1.509   2.113 -0.2059 -0.8337 -0.0970
 4188TIP3    H136759   1.944   1.512   2.150 -0.5053 -0.4416  0.6134
 4188TIP3    H236760   1.869   1.486   2.021  0.5948 -1.3641  0.1406
 4189TIP3   OH236761   0.787   4.869   8.641  0.1335 -0.2544 -0.6116
 4189TIP3    H136762   0.712   4.810   8.648 -0.3997  0.3778 -0.7841
 4189TIP3    H236763   0.832   4.862   8.725 -0.5056 -0.1378 -0.2544
 4190TIP3   OH236764   7.064   6.726   1.904 -0.2081 -0.0844  0.4778
 4190TIP3    H136765   7.077   6.654   1.842  0.4689  1.2185 -0.9369
 4190TIP3    H236766   7.042   6.682   1.986  1.6855 -1.9953  0.0593
 4191TIP3   OH236767   7.583   6.980   8.094  0.5705  0.0360 -0.3295
 4191TIP3    H136768   7.635   6.996   8.016 -0.1707  0.5921 -0.7275
 4191TIP3    H236769   7.598   6.888   8.115 -0.0933 -0.4269 -1.7791
 4192TIP3   OH236770   1.451   0.550   0.034 -0.1716 -0.2353  0.3763
 4192TIP3    H136771   1.525   0.494   0.057  0.1581 -0.6916 -1.6318
 4192TIP3    H236772   1.381   0.489   0.009 -1.0027  0.2104  1.5174
 4193TIP3   OH236773   2.435   3.475   1.873 -0.2044 -0.1840 -0.1995
 4193TIP3    H136774   2.444   3.452   1.781 -0.5507 -0.3481 -0.1939
 4193TIP3    H236775   2.409   3.394   1.916 -2.5260  0.4149 -0.3469
 4194TIP3   OH236776   5.551   6.238   9.366  0.6672 -0.8669  0.2722
 4194TIP3    H136777   5.550   6.176   9.439 -0.9373  0.3590  1.3624
 4194TIP3    H236778   5.467   6.225   9.322  0.3158  0.4899  0.5030
 4195TIP3   OH236779   0.368   3.776   8.004 -0.3242 -0.2234 -0.4623
 4195TIP3    H136780   0.343   3.781   7.912 -3.9536  2.1748  0.4419
 4195TIP3    H236781   0.442   3.836   8.012 -0.5551  0.2526 -1.6949
 4196TIP3   OH236782   0.603   6.634   2.717  0.4332  0.5646  0.1715
 4196TIP3    H136783   0.594   6.548   2.676 -0.9826  1.7719 -2.3041
 4196TIP3    H236784   0.696   6.639   2.740  0.7611 -1.2534 -0.5187
 4197TIP3   OH236785   0.853   2.392   2.058  0.2507  0.1357 -0.5155
 4197TIP3    H136786   0.904   2.412   1.979 -0.1738 -1.0330 -1.1093
 4197TIP3    H236787   0.915   2.346   2.115  0.3830  0.4268 -0.4202
 4198TIP3   OH236788   2.928   6.087   9.561 -0.3499  0.4449  0.1557
 4198TIP3    H136789   2.904   6.131   9.643 -3.0450  1.4860 -1.0704
 4198TIP3    H236790   2.950   5.998   9.587 -0.7409  0.8589  2.0576
 4199TIP3   OH236791   5.366   6.579   9.088 -0.0239 -0.1279 -0.2205
 4199TIP3    H136792   5.315   6.506   9.123 -0.2936  0.1463 -0.0486
 4199TIP3    H236793   5.456   6.545   9.085 -0.3009 -0.8306 -1.1228
 4200TIP3   OH236794   4.522   2.663   9.678 -0.1449  0.7016 -0.0373
 4200TIP3    H136795   4.533   2.598   9.609  3.1047 -0.3815  1.3185
 4200TIP3    H236796   4.561   2.743   9.642  1.9190  0.0323  0.5406
 4201TIP3   OH236797   0.533   0.014   1.316 -0.1360 -0.1407 -0.3001
 4201TIP3    H136798   0.464  -0.047   1.339  0.4422 -0.8378 -0.3911
 4201TIP3    H236799   0.536   0.014   1.221 -1.8275  1.9643 -0.4402
 4202TIP3   OH236800   3.485   4.124   7.407  0.1272 -0.2255 -0.2240
 4202TIP3    H136801   3.476   4.220   7.406  0.3550 -0.1983  0.1906
 4202TIP3    H236802   3.578   4.109   7.389  0.5830 -0.2841  1.8926
 4203TIP3   OH236803   4.317   2.947   0.919 -0.3146 -0.6851  0.0343
 4203TIP3    H136804   4.378   2.887   0.962  0.4107 -0.4328 -0.6162
 4203TIP3    H236805   4.235   2.937   0.967  0.5994 -0.0034  1.8416
 4204TIP3   OH236806   1.327   7.194   9.046  0.0723  0.5747  0.1083
 4204TIP3    H136807   1.413   7.214   9.008  1.1739  0.4312  2.3723
 4204TIP3    H236808   1.326   7.098   9.054 -0.0023  0.6219  0.7045
 4205TIP3   OH236809   0.111   7.565   1.736  0.4634 -0.2435 -0.1136
 4205TIP3    H136810   0.035   7.592   1.788  0.8824 -1.0876  0.9547
 4205TIP3    H236811   0.073   7.519   1.661 -0.1434  1.0273 -0.6301
 4206TIP3   OH236812   1.204   7.520   1.293 -0.2038 -0.2904 -0.0205
 4206TIP3    H136813   1.236   7.605   1.323 -0.0159 -0.3986  0.0863
 4206TIP3    H236814   1.201   7.466   1.372 -2.3655  0.2436  0.3141
 4207TIP3   OH236815   1.972   0.827   6.894 -0.5339  0.0642 -0.2951
 4207TIP3    H136816   2.016   0.745   6.915  0.9530  0.9709  0.2670
 4207TIP3    H236817   2.009   0.853   6.809 -0.7469  0.3172 -0.3115
 4208TIP3   OH236818   1.106   5.901   0.097 -0.2094 -0.3487  0.2812
 4208TIP3    H136819   1.032   5.840   0.102 -0.2822 -0.3767 -0.9255
 4208TIP3    H236820   1.154   5.874   0.019 -0.7487  1.6784 -0.8263
 4209TIP3   OH236821   4.654   3.133   6.985  0.3302  0.0395  0.7040
 4209TIP3    H136822   4.749   3.138   6.998  0.5843  2.4042 -1.3669
 4209TIP3    H236823   4.643   3.098   6.897 -0.6728  0.8215  0.4988
 4210TIP3   OH236824   5.523   0.743   0.271  0.6870 -0.6800  0.5417
 4210TIP3    H136825   5.492   0.793   0.196  1.1664 -0.7184  0.3135
 4210TIP3    H236826   5.516   0.652   0.244 -0.4625 -0.7652  1.0646
 4211TIP3   OH236827   0.176   5.404   9.763  0.3148  0.2720  0.3827
 4211TIP3    H136828   0.126   5.466   9.816  0.5570  0.6095  0.2222
 4211TIP3    H236829   0.145   5.318   9.790 -2.3067  0.4805 -1.5754
 4212TIP3   OH236830   1.030   0.264   8.049 -0.0207  0.2448  0.0172
 4212TIP3    H136831   1.072   0.211   7.982  0.2987 -0.6180  0.8732
 4212TIP3    H236832   1.060   0.226   8.132 -0.6220  1.1054  0.6496
 4213TIP3   OH236833   7.577   6.082   9.268  0.7544 -0.2335 -0.0538
 4213TIP3    H136834   7.518   6.120   9.333  1.1078  0.1548  0.0454
 4213TIP3    H236835   7.555   5.989   9.267  1.6971 -0.5238  1.6593
 4214TIP3   OH236836   6.804   5.855   1.760 -0.0243  0.4023 -0.2444
 4214TIP3    H136837   6.776   5.934   1.807 -0.7105  1.2527 -1.9700
 4214TIP3    H236838   6.882   5.882   1.712  1.3475 -0.7697  1.2015
 4215TIP3   OH236839   1.697   3.970   1.364  0.4391  0.0489 -0.1576
 4215TIP3    H136840   1.662   3.881   1.367  0.4683  0.0600  0.6597
 4215TIP3    H236841   1.666   4.010   1.445 -0.8549  1.2695 -1.2000
 4216TIP3   OH236842   1.244   3.096   9.357  0.2188  0.2244 -0.3876
 4216TIP3    H136843   1.287   3.014   9.332  0.8362  0.4686 -0.1551
 4216TIP3    H236844   1.162   3.069   9.397  0.2338 -0.2638 -0.6756
 4217TIP3   OH236845   2.134   0.123   7.056 -0.4488  0.3399 -0.3433
 4217TIP3    H136846   2.085   0.172   7.123 -0.6072  0.0142 -0.2192
 4217TIP3    H236847   2.155   0.189   6.989 -1.6829  0.3539 -0.7534
 4218TIP3   OH236848   6.641   3.252   8.981 -0.1479 -0.1447 -0.2738
 4218TIP3    H136849   6.687   3.336   8.988 -0.3793 -0.1398  1.7108
 4218TIP3    H236850   6.609   3.250   8.891  0.7417  1.4232 -0.6703
 4219TIP3   OH236851   2.574   7.136   0.113 -0.4063  0.3889  0.5784
 4219TIP3    H136852   2.661   7.112   0.080 -0.2459 -0.8506  1.7995
 4219TIP3    H236853   2.550   7.063   0.171 -0.8160  2.2331  2.8796
 4220TIP3   OH236854   4.511   5.904   8.321  0.0893 -0.1961  0.7386
 4220TIP3    H136855   4.591   5.871   8.281 -0.1877 -1.4824  1.1769
 4220TIP3    H236856   4.441   5.852   8.280 -0.5528  1.0425  0.2168
 4221TIP3   OH236857   2.038   4.458   8.091 -0.0975  0.2589  0.1525
 4221TIP3    H136858   2.056   4.538   8.043  0.4274  0.3293  0.4557
 4221TIP3    H236859   2.037   4.389   8.024 -0.8028  0.5464 -0.1389
 4222TIP3   OH236860   0.341   4.652   0.598 -0.4510  0.0393  0.1427
 4222TIP3    H136861   0.354   4.732   0.648 -2.9857  0.3639  0.4311
 4222TIP3    H236862   0.417   4.597   0.618  1.1154  2.1644  0.2710
 4223TIP3   OH236863   6.790   7.155   0.384  0.4937  0.7634 -0.0653
 4223TIP3    H136864   6.853   7.177   0.452  2.1053  0.5650 -1.4147
 4223TIP3    H236865   6.745   7.237   0.365 -0.3933  0.7040  1.5783
 4224TIP3   OH236866   3.053   5.047   7.230 -0.1098 -0.2735 -0.3257
 4224TIP3    H136867   3.120   5.000   7.280 -0.1856 -0.3186 -0.2649
 4224TIP3    H236868   3.100   5.115   7.183  0.0202 -0.4886 -0.5107
 4225TIP3   OH236869   0.378   4.091   7.068 -0.0395  0.4019  0.5595
 4225TIP3    H136870   0.359   4.172   7.020  0.8325  0.0517 -0.4073
 4225TIP3    H236871   0.462   4.061   7.033  0.8507  0.3353  2.5970
 4226TIP3   OH236872   2.678   7.596   0.229 -0.0191 -0.0701  0.2205
 4226TIP3    H136873   2.674   7.586   0.134 -1.6438 -1.2951  0.3696
 4226TIP3    H236874   2.637   7.517   0.264 -1.2042  1.1814  1.8794
 4227TIP3   OH236875   7.176   4.082  -0.045 -0.6526  0.1547 -0.2860
 4227TIP3    H136876   7.221   4.109   0.035  0.8766 -0.5893 -0.8413
 4227TIP3    H236877   7.108   4.148  -0.058  0.3060  1.3784  0.5949
 4228TIP3   OH236878   2.087   2.270   3.051 -0.4106 -0.2900 -0.2135
 4228TIP3    H136879   2.085   2.192   2.997 -1.4368  0.3445 -1.1396
 4228TIP3    H236880   1.999   2.308   3.042  0.5476  1.8574 -1.1357
 4229TIP3   OH236881   4.482   6.426   7.571  0.1858  0.3427 -0.2324
 4229TIP3    H136882   4.466   6.335   7.544 -0.9783  0.5340 -0.2597
 4229TIP3    H236883   4.557   6.421   7.630  1.6580 -0.3164 -2.0815
 4230TIP3   OH236884   1.505   3.826   0.609 -0.0238 -0.5553  0.3529
 4230TIP3    H136885   1.488   3.885   0.535  1.8923 -0.6598 -0.2145
 4230TIP3    H236886   1.492   3.880   0.686  0.6593  0.3293 -0.1356
 4231TIP3   OH236887   0.510   3.563   7.628  0.1858  0.4852 -0.2156
 4231TIP3    H136888   0.425   3.605   7.620 -0.7351 -0.9441  1.2312
 4231TIP3    H236889   0.563   3.625   7.678 -0.6901  0.5614  0.6603
 4232TIP3   OH236890   0.846   0.209   2.550 -0.2973  0.3945 -0.1512
 4232TIP3    H136891   0.787   0.137   2.571 -0.3420 -0.1238 -1.8877
 4232TIP3    H236892   0.868   0.196   2.458  2.4630  0.6393  0.4114
 4233TIP3   OH236893   5.632   1.519   9.648  0.1581 -0.0917 -0.2018
 4233TIP3    H136894   5.599   1.430   9.638 -0.1983 -0.0572  0.5613
 4233TIP3    H236895   5.696   1.530   9.577  0.4320 -1.0611 -0.1169
 4234TIP3   OH236896   5.087   4.158   7.819 -1.1734 -0.7834  0.0751
 4234TIP3    H136897   5.047   4.119   7.742 -0.2574 -1.1072 -0.2488
 4234TIP3    H236898   5.112   4.083   7.874 -0.2661 -0.6393 -0.1166
 4235TIP3   OH236899   1.024   0.287   2.748  0.1738 -0.0656  0.1213
 4235TIP3    H136900   0.963   0.266   2.677 -1.8948  1.2032  1.4001
 4235TIP3    H236901   1.011   0.216   2.811  0.3565 -0.0272  0.2001
 4236TIP3   OH236902   0.777   3.379   1.047  0.6777  0.1854 -0.2833
 4236TIP3    H136903   0.858   3.397   0.999 -0.2726  1.1701 -1.6058
 4236TIP3    H236904   0.718   3.343   0.981 -0.6987  1.6490  0.1011
 4237TIP3   OH236905   2.285   6.191   9.568  0.6173 -0.2295  0.3124
 4237TIP3    H136906   2.201   6.186   9.522 -0.0126 -0.3796  1.4207
 4237TIP3    H236907   2.266   6.244   9.646  1.7738  0.4697  0.1375
 4238TIP3   OH236908   7.039   6.536   7.626 -0.3933  0.1282 -0.5117
 4238TIP3    H136909   7.082   6.451   7.616 -0.9034  0.0339 -2.1071
 4238TIP3    H236910   7.095   6.598   7.580  1.5010  1.2982  2.9462
 4239TIP3   OH236911   4.394   0.582   7.935  0.4985 -0.3448  0.5749
 4239TIP3    H136912   4.359   0.662   7.894  0.4212 -0.9168 -0.5173
 4239TIP3    H236913   4.329   0.559   8.001 -0.0718 -0.1561  0.0905
 4240TIP3   OH236914   5.552   7.131   2.620 -0.1556 -0.4612  0.1615
 4240TIP3    H136915   5.482   7.192   2.598  0.4758  0.2298  0.0214
 4240TIP3    H236916   5.580   7.156   2.707  0.2257 -0.4330  0.0331
 4241TIP3   OH236917   1.171   6.096   2.653 -0.4679 -0.2910 -0.0989
 4241TIP3    H136918   1.168   6.152   2.731 -0.6624 -0.1985 -0.1702
 4241TIP3    H236919   1.196   6.010   2.686 -0.1698 -0.1626  0.0129
 4242TIP3   OH236920   5.585   6.193   7.350  0.4004 -0.2681  0.2973
 4242TIP3    H136921   5.680   6.205   7.345  0.4664 -0.4609  0.9136
 4242TIP3    H236922   5.565   6.129   7.282  0.5972  0.3486 -0.3582
 4243TIP3   OH236923   1.083   2.301   7.880 -0.1597 -0.2540  0.2350
 4243TIP3    H136924   1.148   2.240   7.913 -1.5676 -2.0288 -0.0992
 4243TIP3    H236925   1.043   2.338   7.959  0.0113 -0.5496  0.4638
 4244TIP3   OH236926   3.184   5.868   7.664  0.0852 -0.2392 -0.1050
 4244TIP3    H136927   3.094   5.899   7.660 -0.7817 -2.2992  1.5316
 4244TIP3    H236928   3.212   5.885   7.754  1.3177  0.2585 -0.5540
 4245TIP3   OH236929   0.201   6.303   8.216  0.4114  0.0385 -0.0641
 4245TIP3    H136930   0.159   6.375   8.264  2.4165  0.2476  1.5253
 4245TIP3    H236931   0.137   6.232   8.219 -0.7164  1.0344  0.2974
 4246TIP3   OH236932   3.128   7.192   7.452  0.5415 -0.1960  0.0050
 4246TIP3    H136933   3.106   7.184   7.359  0.2166 -0.4416  0.1044
 4246TIP3    H236934   3.045   7.211   7.495  0.5194 -1.0637  0.3702
 4247TIP3   OH236935   0.695   4.256   2.682 -0.1207 -0.2693  0.5818
 4247TIP3    H136936   0.681   4.183   2.622 -1.3838 -1.0149  1.7201
 4247TIP3    H236937   0.633   4.323   2.655  1.1171  0.4689 -0.5341
 4248TIP3   OH236938   2.770   6.016   9.350  0.0059 -0.2318 -0.1034
 4248TIP3    H136939   2.814   6.053   9.426 -0.2010 -3.4196  1.7550
 4248TIP3    H236940   2.680   6.046   9.356  0.2918  0.5896  0.1522
 4249TIP3   OH236941   2.113   1.391   9.708  0.2460  0.1917  0.0753
 4249TIP3    H136942   2.071   1.439   9.637  0.4607 -0.5860 -0.5909
 4249TIP3    H236943   2.195   1.359   9.671 -0.2055 -1.2633  0.2704
 4250TIP3   OH236944   5.312   1.659   8.854  0.4564  0.0349  0.0485
 4250TIP3    H136945   5.233   1.706   8.883  1.1313  0.5092  1.2027
 4250TIP3    H236946   5.316   1.582   8.910  1.0191  0.2225  0.2732
 4251TIP3   OH236947   5.493   1.317   9.960  0.0196 -0.1563  0.7173
 4251TIP3    H136948   5.495   1.284  10.050  0.8581 -1.2778  0.3122
 4251TIP3    H236949   5.561   1.384   9.958 -3.1899  3.5667  2.1698
 4252TIP3   OH236950   5.254   3.638   8.956 -0.0837 -0.1527  0.0096
 4252TIP3    H136951   5.216   3.559   8.919  0.8603 -0.6981  0.1735
 4252TIP3    H236952   5.182   3.701   8.959 -0.5722 -0.6453 -1.1551
 4253TIP3   OH236953   2.185   2.269   1.601 -0.0472 -0.2268  0.1244
 4253TIP3    H136954   2.272   2.233   1.585 -0.4260 -1.0611 -0.0771
 4253TIP3    H236955   2.161   2.236   1.688 -0.2954 -0.2419  0.0478
 4254TIP3   OH236956   1.018   1.442   0.952 -0.2648  0.0374 -0.0155
 4254TIP3    H136957   1.086   1.375   0.949 -1.0355 -0.8670  1.6159
 4254TIP3    H236958   0.962   1.423   0.877  0.7215  0.2056 -0.8164
 4255TIP3   OH236959   5.427   1.088   2.773  0.6363  0.0055 -0.2833
 4255TIP3    H136960   5.403   1.008   2.727  0.0776  0.0713 -0.1106
 4255TIP3    H236961   5.396   1.074   2.863 -0.5829  0.9089 -0.5397
 4256TIP3   OH236962   1.474   3.033   8.315  0.3054 -0.1893 -0.3426
 4256TIP3    H136963   1.526   3.081   8.379  0.4262 -0.3460 -0.3215
 4256TIP3    H236964   1.457   3.096   8.245  1.6213 -0.5051 -0.9594
 4257TIP3   OH236965   7.174   6.837   7.826 -0.3464  0.4079 -0.3373
 4257TIP3    H136966   7.166   6.746   7.856  1.5131  0.3596  0.1501
 4257TIP3    H236967   7.122   6.888   7.887 -2.3967 -0.4029 -1.3054
 4258TIP3   OH236968   5.521   0.825   7.768  0.2477  0.3279 -0.0079
 4258TIP3    H136969   5.490   0.914   7.786 -1.1452  0.3228 -2.0000
 4258TIP3    H236970   5.441   0.776   7.747  1.2627 -0.3851 -2.7052
 4259TIP3   OH236971   4.444   6.028   9.073 -0.4988 -0.2600  0.4480
 4259TIP3    H136972   4.474   5.995   9.157  1.3646 -0.4420 -0.2261
 4259TIP3    H236973   4.512   6.089   9.046 -0.5009 -0.9869 -1.3804
 4260TIP3   OH236974   1.374   0.455   9.256  0.1214 -0.3279  0.2348
 4260TIP3    H136975   1.318   0.521   9.215 -0.4899  0.6325  2.4987
 4260TIP3    H236976   1.436   0.505   9.309  0.1987 -1.5383  1.3288
 4261TIP3   OH236977   5.740   5.358   8.751 -0.0193 -0.0265  0.6979
 4261TIP3    H136978   5.689   5.417   8.807  1.3340 -0.4882  2.5111
 4261TIP3    H236979   5.686   5.279   8.744 -0.8691  0.5949  0.0684
 4262TIP3   OH236980   5.621   6.960   0.042 -0.0162  0.0211 -0.0552
 4262TIP3    H136981   5.561   6.973   0.115  0.9255 -0.3341  0.8066
 4262TIP3    H236982   5.697   6.917   0.081  1.5005  1.9081 -0.8012
 4263TIP3   OH236983   3.726   3.022   9.532  0.1795 -0.4372 -0.0354
 4263TIP3    H136984   3.660   3.004   9.464 -0.4646  0.8551  0.2349
 4263TIP3    H236985   3.753   2.935   9.562  0.3868 -1.0404 -1.8461
 4264TIP3   OH236986   5.587   3.242   6.893 -0.0591  0.2656  0.2346
 4264TIP3    H136987   5.546   3.195   6.820 -0.0213  1.0022 -0.2741
 4264TIP3    H236988   5.524   3.232   6.965  0.1922 -0.9996  0.3072
 4265TIP3   OH236989   1.876   6.809   1.787  0.1438  0.0467  0.4935
 4265TIP3    H136990   1.824   6.743   1.741  1.0486 -0.0730 -0.4039
 4265TIP3    H236991   1.892   6.771   1.873  0.1707 -0.6517  0.1879
 4266TIP3   OH236992   0.408   0.592   8.104  0.1204  0.1829 -0.0997
 4266TIP3    H136993   0.335   0.654   8.099  0.7806  1.1448  1.4344
 4266TIP3    H236994   0.485   0.647   8.113  0.8244 -0.8482  0.3421
 4267TIP3   OH236995   7.318   0.326   7.451  0.0177  0.6849  0.3807
 4267TIP3    H136996   7.234   0.281   7.461  0.0169  0.7436  0.6513
 4267TIP3    H236997   7.372   0.265   7.401 -0.1077  0.5435  0.4161
 4268TIP3   OH236998   0.517   5.716   6.720 -0.9605  0.0616  0.6285
 4268TIP3    H136999   0.561   5.771   6.785  0.3088  0.9420 -0.8951
 4268TIP3    H237000   0.549   5.628   6.739  2.3047  0.7615 -0.9222
 4269TIP3   OH237001   5.202   3.658   8.228  0.2344  0.0052 -0.4570
 4269TIP3    H137002   5.193   3.596   8.301  0.3657 -1.3463 -1.5322
 4269TIP3    H237003   5.232   3.739   8.268  0.6524 -0.8101  0.9486
 4270TIP3   OH237004   4.949   5.117   0.009 -0.1127 -0.4028  0.2021
 4270TIP3    H137005   4.901   5.182  -0.042  0.2194 -0.5926 -0.3617
 4270TIP3    H237006   4.993   5.063  -0.057 -1.2495 -1.8921  0.5851
 4271TIP3   OH237007   6.987   2.775   0.575  0.0150  0.7445 -0.1206
 4271TIP3    H137008   6.911   2.722   0.599 -1.3787  0.7096 -3.8877
 4271TIP3    H237009   6.969   2.862   0.610 -0.7166  0.2143  0.8529
 4272TIP3   OH237010   1.115   6.553   7.619  0.8846 -0.9517  0.0108
 4272TIP3    H137011   1.206   6.547   7.649  0.9589 -2.6338 -0.4688
 4272TIP3    H237012   1.066   6.576   7.698  1.7015 -0.1418  0.3033
 4273TIP3   OH237013   5.335   6.819   2.800  0.1165  0.2096  0.0393
 4273TIP3    H137014   5.406   6.879   2.776 -0.4793  0.3466 -1.4725
 4273TIP3    H237015   5.330   6.825   2.895  3.5317 -1.3930  0.4953
 4274TIP3   OH237016   2.090   4.366   8.919 -0.3731  0.0183  0.0259
 4274TIP3    H137017   2.123   4.407   8.998  1.0333 -0.2425 -0.3960
 4274TIP3    H237018   2.169   4.345   8.868 -1.1999 -0.5978 -1.0460
 4275TIP3   OH237019   3.081   6.990   7.699  0.0672  0.0759  0.1834
 4275TIP3    H137020   3.044   7.071   7.664  0.2760 -0.0208 -0.2595
 4275TIP3    H237021   3.087   6.931   7.624  1.3498  0.1764  0.1831
 4276TIP3   OH237022   5.629   3.180   7.208 -0.3220  0.0748 -0.3612
 4276TIP3    H137023   5.585   3.112   7.259  0.0375  0.6265  0.7337
 4276TIP3    H237024   5.684   3.132   7.146 -1.1479 -0.6184 -0.5681
 4277TIP3   OH237025   2.483   6.300   8.768 -0.3741  0.4434  0.0506
 4277TIP3    H137026   2.460   6.243   8.841 -1.1768  0.4689 -0.1716
 4277TIP3    H237027   2.423   6.374   8.776 -0.0474  0.7429 -0.2722
 4278TIP3   OH237028   3.985   1.302   8.803  0.0203 -0.2459 -0.0954
 4278TIP3    H137029   3.937   1.263   8.729  0.7066 -0.2238 -0.5689
 4278TIP3    H237030   4.071   1.323   8.766  0.8954 -1.5735  1.0654
 4279TIP3   OH237031   3.343   7.387   9.754  0.2553 -0.2067 -0.6618
 4279TIP3    H137032   3.370   7.467   9.800  2.6611  0.3221 -2.7639
 4279TIP3    H237033   3.280   7.346   9.812 -0.6947  2.9531  0.7470
 4280TIP3   OH237034   1.119   4.899   9.328 -0.0073 -0.6268  0.1175
 4280TIP3    H137035   1.182   4.904   9.400  0.5715  0.8133 -0.4470
 4280TIP3    H237036   1.122   4.808   9.300  1.8667 -0.6023  0.0940
 4281TIP3   OH237037   0.987   5.631   2.221 -0.0178 -0.0808  0.3144
 4281TIP3    H137038   0.979   5.569   2.294  1.1426 -0.3743  0.2158
 4281TIP3    H237039   0.952   5.713   2.255  0.2575 -0.2823  1.1161
 4282TIP3   OH237040   7.440   0.588   2.734  0.1865 -0.2037  0.1063
 4282TIP3    H137041   7.530   0.613   2.713 -0.2632  0.4294 -1.1650
 4282TIP3    H237042   7.419   0.518   2.672 -0.3470 -0.0250  0.0758
 4283TIP3   OH237043   5.706   5.757   9.391  0.1222  0.6667 -0.2493
 4283TIP3    H137044   5.707   5.666   9.422 -3.0274  0.4250 -0.5029
 4283TIP3    H237045   5.785   5.765   9.338 -0.6007 -2.7372 -2.2100
 4284TIP3   OH237046   5.343   7.398   0.606 -0.5739 -0.2167  0.2277
 4284TIP3    H137047   5.399   7.399   0.683 -1.0277  1.4613  0.5608
 4284TIP3    H237048   5.397   7.358   0.538  0.4248 -0.1798  0.9754
 4285TIP3   OH237049   4.092   1.438   6.940 -0.3491 -0.0413 -0.2041
 4285TIP3    H137050   4.091   1.355   6.987 -2.4463 -0.3396 -0.6980
 4285TIP3    H237051   4.110   1.414   6.849  0.5222  0.2235 -0.1159
 4286TIP3   OH237052   5.879   3.371   6.899 -0.4042 -0.0832 -0.4866
 4286TIP3    H137053   5.797   3.321   6.899 -0.9365  0.7436  0.5912
 4286TIP3    H237054   5.946   3.309   6.926 -0.5463 -0.9261 -1.9538
 4287TIP3   OH237055   4.570   1.751   0.302  0.1082 -0.1568  0.3089
 4287TIP3    H137056   4.496   1.699   0.270 -0.1662  1.5447 -2.0197
 4287TIP3    H237057   4.538   1.790   0.383 -0.7017 -1.2514  0.5469
 4288TIP3   OH237058   1.306   4.994   9.123  0.5278  0.1393 -0.0807
 4288TIP3    H137059   1.379   4.956   9.171  0.2470  0.4926  0.6455
 4288TIP3    H237060   1.228   4.957   9.166  0.2721 -0.6144 -1.1503
 4289TIP3   OH237061   7.715   0.546   2.130  0.1113  0.1508 -0.0557
 4289TIP3    H137062   7.664   0.469   2.156  1.3777 -0.8774 -0.5294
 4289TIP3    H237063   7.708   0.549   2.035 -0.6916  1.1909  0.0184
 4290TIP3   OH237064   2.553   6.848   1.543  0.0308 -0.1999  0.1585
 4290TIP3    H137065   2.554   6.768   1.489 -1.2143  0.7302 -1.3611
 4290TIP3    H237066   2.640   6.886   1.531  0.3170 -0.8456  0.1261
 4291TIP3   OH237067   4.276   2.510   7.491  0.0094  0.1256 -0.0427
 4291TIP3    H137068   4.308   2.468   7.412 -0.3208  0.5114 -0.3870
 4291TIP3    H237069   4.245   2.438   7.546  1.8720 -0.3128  0.5061
 4292TIP3   OH237070   2.034   5.591   0.254  0.3642  0.3894 -0.6946
 4292TIP3    H137071   2.000   5.504   0.232  0.0144  0.0928  0.9207
 4292TIP3    H237072   2.030   5.640   0.171 -0.5634 -0.7628 -1.3588
 4293TIP3   OH237073   3.154   1.285   2.449  0.2419  0.3854 -0.2346
 4293TIP3    H137074   3.121   1.197   2.470 -1.2058  1.0434  0.3305
 4293TIP3    H237075   3.154   1.289   2.354 -0.2168 -0.0310 -0.2537
 4294TIP3   OH237076   1.717   5.335   7.031  0.0559 -0.0625 -0.3580
 4294TIP3    H137077   1.665   5.401   6.985  1.2737  1.7575  0.7123
 4294TIP3    H237078   1.691   5.343   7.123  0.0148 -1.3149 -0.2422
 4295TIP3   OH237079   1.922   1.650   2.919 -0.3591 -0.1406 -0.7282
 4295TIP3    H137080   1.853   1.716   2.908 -3.2113 -2.6984  0.5617
 4295TIP3    H237081   1.884   1.583   2.975  3.5441 -1.3670  0.8358
 4296TIP3   OH237082   0.331   1.169   8.041  0.0628  0.5010 -0.1052
 4296TIP3    H137083   0.405   1.108   8.045 -0.2461 -0.1250 -2.4987
 4296TIP3    H237084   0.254   1.113   8.037 -0.3904  1.1135 -0.0133
 4297TIP3   OH237085   7.300   0.955   7.473  0.6274 -0.2230  0.0498
 4297TIP3    H137086   7.292   1.043   7.437  0.4214 -0.5397 -0.6989
 4297TIP3    H237087   7.355   0.965   7.550 -1.1217  0.9036  1.2333
 4298TIP3   OH237088   3.197   1.615   1.432 -0.0603  0.1836 -0.1292
 4298TIP3    H137089   3.283   1.595   1.469 -0.3222 -1.2408 -0.2426
 4298TIP3    H237090   3.216   1.660   1.350  0.6050 -0.7855 -0.5186
 4299TIP3   OH237091   3.935   2.949   0.792 -0.0273 -0.3252 -0.0933
 4299TIP3    H137092   3.991   2.905   0.855  0.4295  1.2117  0.6129
 4299TIP3    H237093   3.994   3.007   0.744 -0.8460  0.6202  0.0229
 4300TIP3   OH237094   0.612   6.734   7.963  0.2608  0.1129  0.1497
 4300TIP3    H137095   0.563   6.683   8.028 -2.5755  0.5103 -1.4814
 4300TIP3    H237096   0.631   6.817   8.006 -2.9460  0.9888  0.1502
 4301TIP3   OH237097   3.430   5.378   0.542 -0.3080 -0.6563 -0.4681
 4301TIP3    H137098   3.419   5.355   0.450 -0.2094  0.2594 -0.7183
 4301TIP3    H237099   3.510   5.332   0.568 -1.0724 -2.0057 -0.4565
 4302TIP3   OH237100   7.654   1.359   7.676  0.7753 -0.6685  0.1737
 4302TIP3    H137101   7.655   1.268   7.645 -2.2396 -0.3525 -1.1634
 4302TIP3    H237102   7.638   1.351   7.770 -3.6502 -1.6802 -0.4478
 4303TIP3   OH237103   1.438   7.609   9.134 -0.4720 -0.6217  0.1067
 4303TIP3    H137104   1.385   7.639   9.208  0.2354 -0.4833  0.5598
 4303TIP3    H237105   1.374   7.596   9.064 -0.9277  1.1259  0.1404
 4304TIP3   OH237106   2.467   5.964   0.502  0.3088 -0.1637 -0.0213
 4304TIP3    H137107   2.376   5.961   0.473  0.4541 -1.2395 -0.3996
 4304TIP3    H237108   2.504   5.881   0.474  1.4697  0.3478 -0.0528
 4305TIP3   OH237109   5.466   1.602   1.168 -0.3743  0.0567  0.3282
 4305TIP3    H137110   5.524   1.526   1.166 -0.4554  0.0096 -0.4101
 4305TIP3    H237111   5.378   1.565   1.178 -0.3565  0.0945  0.6645
 4306TIP3   OH237112   6.379   5.973   9.562  0.2353 -0.5095  0.4427
 4306TIP3    H137113   6.448   6.035   9.584 -0.3038  0.7161 -1.1050
 4306TIP3    H237114   6.298   6.019   9.583 -0.1904 -0.4048 -1.2694
 4307TIP3   OH237115   1.232   1.165   9.068 -0.0475 -0.8096 -0.3972
 4307TIP3    H137116   1.297   1.232   9.050 -0.5678 -0.0314  0.5079
 4307TIP3    H237117   1.270   1.084   9.034  1.4755 -0.4052  0.2704
 4308TIP3   OH237118   5.675   2.559   8.429 -0.0018 -0.1877  0.2347
 4308TIP3    H137119   5.740   2.488   8.428 -0.4870 -0.6546  0.8697
 4308TIP3    H237120   5.591   2.515   8.430 -0.3332  0.4199 -0.4412
 4309TIP3   OH237121   2.087   5.171   7.811 -0.1389 -0.2359  0.2719
 4309TIP3    H137122   2.067   5.102   7.874 -0.9324 -0.9161 -0.6961
 4309TIP3    H237123   2.004   5.190   7.768  0.2756  0.6088 -0.1938
 4310TIP3   OH237124   1.109   4.474   7.781 -0.0449 -0.4684  0.3567
 4310TIP3    H137125   1.125   4.541   7.847 -1.2938 -0.8385  1.0622
 4310TIP3    H237126   1.094   4.394   7.831 -2.5067 -0.4631 -0.2231
 4311TIP3   OH237127   3.982   1.051   9.735 -0.1673 -0.7561  0.5182
 4311TIP3    H137128   3.942   0.968   9.709 -0.2383 -1.0843  1.6245
 4311TIP3    H237129   4.070   1.027   9.763 -0.0784 -0.4101  0.5385
 4312TIP3   OH237130   3.928   6.988   7.238  0.5553 -0.4663 -0.5360
 4312TIP3    H137131   3.938   7.006   7.145 -0.9605 -1.8935 -1.0121
 4312TIP3    H237132   3.870   6.912   7.242 -0.9625  0.7156  1.6272
 4313TIP3   OH237133   6.038   2.337   1.354 -0.2656  0.0057 -0.0478
 4313TIP3    H137134   6.082   2.273   1.298  1.7097  0.9446  0.3489
 4313TIP3    H237135   6.021   2.290   1.435  0.8944 -0.1455  0.1284
 4314TIP3   OH237136   2.770   3.145   1.973 -0.7087  0.1160 -0.1735
 4314TIP3    H137137   2.753   3.239   1.974 -1.6769 -0.0189  1.9652
 4314TIP3    H237138   2.686   3.105   1.950 -0.4167 -0.2587 -0.6237
 4315TIP3   OH237139   6.142   1.957   0.104 -0.5990 -0.1721 -0.6490
 4315TIP3    H137140   6.166   1.890   0.040 -2.1010  0.1457 -1.5979
 4315TIP3    H237141   6.070   1.919   0.153  0.2037 -0.2076  0.5537
 4316TIP3   OH237142   1.822   2.431   8.935  0.6880 -0.4072 -0.2022
 4316TIP3    H137143   1.785   2.514   8.904  0.0492 -0.6117 -0.0006
 4316TIP3    H237144   1.841   2.447   9.028  1.3339 -0.2290 -0.3602
 4317TIP3   OH237145   6.636   0.746   1.706 -0.8301  0.8165 -0.5506
 4317TIP3    H137146   6.662   0.745   1.798  0.1712  0.8599 -0.8189
 4317TIP3    H237147   6.540   0.748   1.708 -0.9004 -1.1261  0.4784
 4318TIP3   OH237148   2.563   6.669   8.351  0.4888  0.3028 -0.1038
 4318TIP3    H137149   2.634   6.611   8.324 -0.4718  0.3249 -2.9597
 4318TIP3    H237150   2.590   6.756   8.321 -1.0392  0.1827 -1.9940
 4319TIP3   OH237151   2.911   5.680   0.465  0.0239 -0.6983 -0.0311
 4319TIP3    H137152   2.864   5.680   0.548 -1.6641  0.6198 -0.9363
 4319TIP3    H237153   2.898   5.592   0.429 -0.6669 -0.7353  0.3152
 4320TIP3   OH237154   1.704   6.357   2.499 -0.2474  0.1016  0.0246
 4320TIP3    H137155   1.778   6.378   2.556 -1.2084 -0.0451  1.3531
 4320TIP3    H237156   1.742   6.354   2.411  1.4983 -0.8650  0.7744
 4321TIP3   OH237157   4.271   7.525   0.560 -0.2161 -0.1282 -0.0308
 4321TIP3    H137158   4.176   7.528   0.550 -0.2416  1.0694  0.4307
 4321TIP3    H237159   4.285   7.514   0.654  0.1087 -2.3039 -0.2859
 4322TIP3   OH237160   4.672   3.059   7.378  0.0363 -0.3101 -0.6000
 4322TIP3    H137161   4.668   3.136   7.322 -2.0862  0.9363  1.0841
 4322TIP3    H237162   4.647   2.986   7.322 -0.4677  0.6357 -1.6334
 4323TIP3   OH237163   3.808   5.103   7.107  0.4873 -0.0222  0.1754
 4323TIP3    H137164   3.795   5.022   7.058  1.8936 -2.0214  2.8745
 4323TIP3    H237165   3.720   5.126   7.138  0.2195 -1.1523  0.3023
 4324TIP3   OH237166   4.560   5.233   9.895  0.2739 -0.3170 -0.0715
 4324TIP3    H137167   4.535   5.281   9.974  1.0455 -0.1452  0.0710
 4324TIP3    H237168   4.476   5.212   9.852 -0.3576 -2.4513  1.9511
 4325TIP3   OH237169   5.342   7.069   9.674  0.3546  0.5423 -0.6195
 4325TIP3    H137170   5.349   7.014   9.752  0.0974  1.4373  0.0620
 4325TIP3    H237171   5.247   7.083   9.663  0.3629  0.0760 -1.3526
 4326TIP3   OH237172   0.999   5.829   1.937  0.0891  0.4250 -0.3588
 4326TIP3    H137173   1.069   5.859   1.995 -0.8341  0.5049  0.7703
 4326TIP3    H237174   0.919   5.860   1.980 -0.6741 -0.2822 -1.2393
 4327TIP3   OH237175   0.275   3.754   7.477  0.1870  0.2809 -0.2988
 4327TIP3    H137176   0.185   3.751   7.445  0.5881  0.4030 -1.5126
 4327TIP3    H237177   0.326   3.784   7.401  1.4748 -1.3508 -0.1397
 4328TIP3   OH237178   2.529   2.539   7.556 -0.3792  0.5391 -0.5790
 4328TIP3    H137179   2.538   2.507   7.645 -0.0421  1.1891 -0.3747
 4328TIP3    H237180   2.547   2.462   7.501 -1.7987 -0.1730 -0.0987
 4329TIP3   OH237181   1.747   2.027   8.421  0.4625  0.4608  0.7062
 4329TIP3    H137182   1.804   2.057   8.350 -2.0062  0.0663 -1.5980
 4329TIP3    H237183   1.682   2.098   8.431 -1.6260 -1.1817 -0.3573
 4330TIP3   OH237184   3.378   6.017   8.591  0.2615 -0.2059  0.2295
 4330TIP3    H137185   3.289   6.052   8.591  0.4454  0.4888  3.2648
 4330TIP3    H237186   3.431   6.086   8.550 -0.0050  1.4017  2.4250
 4331TIP3   OH237187   0.951   5.996   0.287  0.1196 -0.3909  0.8800
 4331TIP3    H137188   1.024   5.982   0.227  1.1628  2.8238  1.1917
 4331TIP3    H237189   0.946   5.914   0.337 -0.2136 -2.8712 -2.7729
 4332TIP3   OH237190   3.418   1.639   9.859 -0.1350  0.5317 -0.5746
 4332TIP3    H137191   3.363   1.619   9.934 -0.2943 -1.0915 -1.0710
 4332TIP3    H237192   3.370   1.706   9.811 -1.6675 -0.7487 -0.9219
 4333TIP3   OH237193   3.207   2.028   0.859  0.0146 -0.3325  0.2104
 4333TIP3    H137194   3.157   2.093   0.810 -0.0039 -0.5408 -0.0488
 4333TIP3    H237195   3.157   2.015   0.940  0.0793  0.0598  0.3139
 4334TIP3   OH237196   5.397   2.520   8.399  0.2674  0.0026 -0.4373
 4334TIP3    H137197   5.340   2.546   8.471  0.6617  1.3197 -0.5719
 4334TIP3    H237198   5.460   2.592   8.390  0.8745 -0.6113 -1.4208
 4335TIP3   OH237199   2.208   1.518   7.746  0.1083 -0.3460  0.1060
 4335TIP3    H137200   2.159   1.484   7.671  1.7070  0.2261 -1.2520
 4335TIP3    H237201   2.195   1.612   7.743 -0.8589 -0.4054  1.3587
 4336TIP3   OH237202   1.300   4.392   1.430  0.0980 -0.2472 -0.3620
 4336TIP3    H137203   1.364   4.459   1.410 -0.4386  0.4281  0.1402
 4336TIP3    H237204   1.216   4.428   1.400 -0.4748  0.1178  1.5437
 4337TIP3   OH237205   6.434   2.801   7.292  0.2006  0.7755 -0.3677
 4337TIP3    H137206   6.500   2.790   7.361 -0.5470  0.4037  0.3090
 4337TIP3    H237207   6.418   2.712   7.261  0.4988  0.9396 -0.9972
 4338TIP3   OH237208   6.592   3.150   7.512  0.5260  0.0211 -0.1019
 4338TIP3    H137209   6.655   3.221   7.523  0.4768  0.2106 -0.9813
 4338TIP3    H237210   6.585   3.110   7.599  1.4609  0.3330  0.1264
 4339TIP3   OH237211   2.008   2.341   7.964 -0.4097 -0.1778  0.1911
 4339TIP3    H137212   2.021   2.246   7.969  0.6067 -0.0682 -0.2662
 4339TIP3    H237213   2.044   2.374   8.047 -1.5371 -0.2538  0.7356
 4340TIP3   OH237214   1.872   3.783   9.074  0.7534 -0.3086  0.4415
 4340TIP3    H137215   1.934   3.827   9.132  0.1740  1.0666  0.0613
 4340TIP3    H237216   1.884   3.827   8.989 -2.1790  1.5255  0.8383
 4341TIP3   OH237217   6.526   0.704   2.201 -0.4446 -0.7424  0.4985
 4341TIP3    H137218   6.538   0.780   2.144 -1.2856 -1.4770 -0.7009
 4341TIP3    H237219   6.611   0.693   2.244 -0.3139  0.8745  0.7152
 4342TIP3   OH237220   2.346   1.971   9.188  0.4586 -0.0573 -0.4563
 4342TIP3    H137221   2.277   2.018   9.141  1.8456  1.4466 -1.1163
 4342TIP3    H237222   2.427   2.009   9.154  1.5919 -1.1177  0.9486
 4343TIP3   OH237223   5.431   6.611   8.386 -0.3343  0.6596  0.1725
 4343TIP3    H137224   5.458   6.636   8.475 -1.2618  1.7944  0.1518
 4343TIP3    H237225   5.514   6.592   8.341  0.1302 -0.2720  1.3589
 4344TIP3   OH237226   3.473   1.516   8.084 -0.3041  0.2566  0.0875
 4344TIP3    H137227   3.429   1.448   8.033 -0.0675  0.1167  0.0691
 4344TIP3    H237228   3.560   1.479   8.103 -0.4988  0.1779  0.8545
 4345TIP3   OH237229   5.097   6.313   8.281 -0.0203 -0.2786  0.2616
 4345TIP3    H137230   5.188   6.282   8.284 -0.1870 -0.9144 -0.7026
 4345TIP3    H237231   5.074   6.311   8.188 -0.5119  1.4186  0.3019
 4346TIP3   OH237232   2.606   7.688   2.786  0.0364 -0.6569  0.3562
 4346TIP3    H137233   2.614   7.678   2.881  0.7564  0.1418  0.3877
 4346TIP3    H237234   2.519   7.728   2.774  0.6726  0.9434  0.8298
 4347TIP3   OH237235   7.573   5.669   1.013 -0.3356  0.5058 -0.5779
 4347TIP3    H137236   7.496   5.700   1.062 -0.6994 -0.9720 -0.1529
 4347TIP3    H237237   7.631   5.632   1.080 -0.0573  0.0285 -1.0703
 4348TIP3   OH237238   7.048   3.535   1.591  0.1724  0.0946  0.9289
 4348TIP3    H137239   7.020   3.444   1.597 -0.4379  0.1496 -0.7030
 4348TIP3    H237240   6.997   3.580   1.658 -1.8511 -0.2512 -0.3041
 4349TIP3   OH237241   7.589   1.670   9.270 -0.0119  0.1378  0.0687
 4349TIP3    H137242   7.527   1.604   9.301  0.9072 -0.5092  0.5689
 4349TIP3    H237243   7.536   1.730   9.218 -0.8911 -0.9228 -0.2912
 4350TIP3   OH237244   0.758   5.483   0.975 -0.4218 -0.1817  0.4295
 4350TIP3    H137245   0.774   5.577   0.988 -0.4568  0.0051 -0.8104
 4350TIP3    H237246   0.674   5.467   1.018 -0.6200  0.4411  0.2768
 4351TIP3   OH237247   7.575   5.053   9.282  0.4165 -0.1136 -0.1164
 4351TIP3    H137248   7.511   4.983   9.268  0.8142 -0.3442 -0.8627
 4351TIP3    H237249   7.598   5.082   9.193 -0.0662  1.2712  0.1851
 4352TIP3   OH237250   3.108   2.265   0.431 -0.9727 -0.5071 -0.2237
 4352TIP3    H137251   3.105   2.223   0.345  0.1407  1.1882 -1.1337
 4352TIP3    H237252   3.070   2.352   0.416  0.8300  0.4694  0.5556
 4353TIP3   OH237253   3.773   7.632   8.391  0.2444 -0.4706 -0.3946
 4353TIP3    H137254   3.786   7.647   8.485  1.5247  2.5795 -0.9437
 4353TIP3    H237255   3.677   7.626   8.381 -0.0460  1.2335  0.9095
 4354TIP3   OH237256   4.798   3.949   9.218  0.1636 -0.2854 -0.5607
 4354TIP3    H137257   4.790   4.019   9.153 -1.3380 -0.9713 -1.1742
 4354TIP3    H237258   4.890   3.951   9.245 -0.0818  2.8002  0.4568
 4355TIP3   OH237259   7.474   4.586   1.833 -0.8114 -0.2378 -0.7322
 4355TIP3    H137260   7.446   4.548   1.749 -0.1926  0.4319 -1.2535
 4355TIP3    H237261   7.428   4.534   1.899 -2.2848  0.0265 -1.5081
 4356TIP3   OH237262   2.608   1.752   1.460  0.0016 -0.2677 -0.1608
 4356TIP3    H137263   2.693   1.712   1.478  0.5602 -0.5598 -2.9018
 4356TIP3    H237264   2.562   1.751   1.543  1.7440 -2.3864  0.8705
 4357TIP3   OH237265   3.641   0.272   9.765  0.1450 -0.1134 -0.0835
 4357TIP3    H137266   3.589   0.198   9.797 -0.1997 -0.3777 -1.1879
 4357TIP3    H237267   3.601   0.349   9.805  1.4081 -0.5697  2.2724
 4358TIP3   OH237268   7.665   0.694   2.600  0.3507 -0.4481  0.2165
 4358TIP3    H137269   7.679   0.775   2.648 -1.4876 -0.2990  0.6023
 4358TIP3    H237270   7.694   0.713   2.511  0.1538  0.5779  0.3569
 4359TIP3   OH237271   6.602   7.444   8.218  0.0589  0.4087  0.2132
 4359TIP3    H137272   6.543   7.398   8.159  2.2609 -2.0321 -0.3224
 4359TIP3    H237273   6.608   7.533   8.184  0.7074 -0.7227 -2.8958
 4360TIP3   OH237274   3.439   6.871   7.930  0.0060  0.8248 -0.7137
 4360TIP3    H137275   3.393   6.813   7.869 -0.0628 -2.0558  1.8480
 4360TIP3    H237276   3.375   6.940   7.950 -0.3702  1.2005 -2.8480
 4361TIP3   OH237277   0.525   1.353   0.181  0.0719  0.2638  0.3571
 4361TIP3    H137278   0.598   1.327   0.237 -0.4380 -0.2672  0.7897
 4361TIP3    H237279   0.564   1.409   0.114  1.1314 -1.2826 -0.3631
 4362TIP3   OH237280   2.230   2.476   1.792  0.1785 -1.1426  0.2489
 4362TIP3    H137281   2.261   2.445   1.707  0.6149  1.5405 -0.6527
 4362TIP3    H237282   2.175   2.551   1.772 -0.9174 -1.3487  2.2812
 4363TIP3   OH237283   1.986   0.747   0.448 -0.1916  0.6224  0.5674
 4363TIP3    H137284   1.987   0.674   0.385  0.9308  0.5158  0.6924
 4363TIP3    H237285   1.969   0.824   0.394 -3.6973  0.1066  0.6796
 4364TIP3   OH237286   3.829   6.040   9.794 -0.5487 -0.0548 -0.6975
 4364TIP3    H137287   3.775   6.003   9.864  0.2246 -1.0363 -0.5938
 4364TIP3    H237288   3.919   6.027   9.824 -0.2251  1.1843 -1.0475
 4365TIP3   OH237289   4.689   0.378   1.583 -0.0514  0.5691  0.1937
 4365TIP3    H137290   4.735   0.404   1.663  0.0011 -0.4918  0.5165
 4365TIP3    H237291   4.610   0.335   1.613  0.7153 -1.2656 -0.2563
 4366TIP3   OH237292   4.011   7.407   0.301  0.4846  0.4081 -0.1153
 4366TIP3    H137293   4.081   7.430   0.239  0.1032  1.4052 -0.2044
 4366TIP3    H237294   3.958   7.343   0.254 -1.2365  2.9190 -1.9157
 4367TIP3   OH237295   0.271   3.762   0.841 -0.4588  0.1730 -0.3172
 4367TIP3    H137296   0.219   3.698   0.793 -0.0084 -0.9427  0.6262
 4367TIP3    H237297   0.338   3.709   0.886  1.1108  1.4905 -1.0029
 4368TIP3   OH237298   6.461   7.612   1.019  0.6449  0.3265 -0.0072
 4368TIP3    H137299   6.395   7.592   0.953  0.3871  0.8786  0.0837
 4368TIP3    H237300   6.493   7.526   1.047 -2.7094 -0.2668  2.6860
 4369TIP3   OH237301   0.600   2.158   0.773 -0.1777  0.8147  0.1474
 4369TIP3    H137302   0.547   2.095   0.725 -2.2146  0.8339  2.2101
 4369TIP3    H237303   0.548   2.237   0.776  1.9181  2.3718 -1.5235
 4370TIP3   OH237304   6.640   7.043   2.440 -0.1974  0.2124 -0.5311
 4370TIP3    H137305   6.692   7.006   2.368 -0.2863 -2.9913  0.9130
 4370TIP3    H237306   6.700   7.044   2.515 -1.2627 -0.5178  0.3618
 4371TIP3   OH237307   7.631   2.210   7.591  0.5500 -0.4420  0.5889
 4371TIP3    H137308   7.624   2.120   7.561 -0.8597 -0.2580  0.2947
 4371TIP3    H237309   7.690   2.253   7.529 -0.3625 -0.6785 -0.4627
 4372TIP3   OH237310   7.657   4.742   7.695  0.7840 -0.1098  0.4728
 4372TIP3    H137311   7.683   4.834   7.693  0.3731  0.0259  1.0381
 4372TIP3    H237312   7.726   4.696   7.649 -0.1865  0.7631 -2.0304
 4373TIP3   OH237313   2.372   0.637   0.169  0.7861  0.4794  0.0238
 4373TIP3    H137314   2.356   0.644   0.263 -1.0271  1.2175 -0.3123
 4373TIP3    H237315   2.339   0.550   0.146  0.6325  0.5621 -0.0604
 4374TIP3   OH237316   2.088   6.437   1.620  0.2963 -0.2922  0.6189
 4374TIP3    H137317   2.136   6.370   1.572  0.3636  0.0679  0.1782
 4374TIP3    H237318   1.996   6.419   1.602  0.2401 -1.0472  1.5490
 4375TIP3   OH237319   2.975   6.431   9.912  0.3768  0.2009  0.4121
 4375TIP3    H137320   2.945   6.481   9.988 -2.5240  0.6012 -0.8515
 4375TIP3    H237321   2.919   6.460   9.840  2.1123 -1.1124 -1.6198
 4376TIP3   OH237322   6.629   0.758   9.450 -0.7736 -0.0020  0.1170
 4376TIP3    H137323   6.651   0.817   9.378 -0.0521  0.4281  0.6694
 4376TIP3    H237324   6.533   0.764   9.457 -1.2474 -2.2453 -2.6258
 4377TIP3   OH237325   1.719   0.265   8.913 -0.2954  0.0954 -0.1068
 4377TIP3    H137326   1.730   0.266   9.008 -0.4794  1.1753 -0.0892
 4377TIP3    H237327   1.686   0.352   8.892 -0.0019 -0.0468 -1.1936
 4378TIP3   OH237328   5.664   0.410   0.798  0.1083 -0.1019 -0.0415
 4378TIP3    H137329   5.709   0.345   0.744  0.5717 -0.4946  0.7856
 4378TIP3    H237330   5.593   0.362   0.839 -0.6496  0.3520 -0.8016
 4379TIP3   OH237331   4.202   2.115   9.260  0.1682 -0.8907  0.2212
 4379TIP3    H137332   4.242   2.042   9.213 -0.7303 -0.6322 -0.9773
 4379TIP3    H237333   4.180   2.178   9.192 -1.2808 -0.5484  0.9762
 4380TIP3   OH237334   5.580   2.653   1.071 -0.3295 -1.1078 -0.0393
 4380TIP3    H137335   5.597   2.735   1.118  0.8678 -1.0956 -0.4691
 4380TIP3    H237336   5.663   2.632   1.028 -1.0811 -1.6878 -1.2702
 4381TIP3   OH237337   0.745   1.819   8.595 -0.9904 -0.3047 -0.4434
 4381TIP3    H137338   0.773   1.908   8.618 -1.8566  0.0442 -0.6939
 4381TIP3    H237339   0.823   1.779   8.556 -1.1372  1.0541 -2.2626
 4382TIP3   OH237340   7.113   0.302   8.842 -0.4691 -0.9657 -0.1823
 4382TIP3    H137341   7.124   0.268   8.753  0.6025  1.4002 -1.0273
 4382TIP3    H237342   7.168   0.246   8.896  0.7667 -0.9659 -1.4020
 4383TIP3   OH237343   3.430   5.697   0.890 -0.6443 -0.4445  0.1523
 4383TIP3    H137344   3.442   5.685   0.984 -0.5133  1.8700  0.5026
 4383TIP3    H237345   3.337   5.719   0.880 -0.6547 -0.6705 -0.2622
 4384TIP3   OH237346   0.332   1.358   6.595 -0.1579 -0.3127  0.0928
 4384TIP3    H137347   0.300   1.391   6.511  0.3769 -2.4861 -1.0449
 4384TIP3    H237348   0.255   1.358   6.652 -0.2199  2.5999  0.1502
 4385TIP3   OH237349   4.238   4.213   9.813 -0.1190  0.2646 -0.0523
 4385TIP3    H137350   4.224   4.297   9.857 -1.8913  0.3494 -0.6916
 4385TIP3    H237351   4.249   4.236   9.721  0.1894 -0.1450 -0.1187
 4386TIP3   OH237352   5.451   1.098   8.628 -0.7939  0.5146 -0.1052
 4386TIP3    H137353   5.410   1.144   8.701 -0.1923  0.4181  0.3024
 4386TIP3    H237354   5.385   1.036   8.598 -1.1353  0.7361  0.1919
 4387TIP3   OH237355   4.566   6.259   8.430  0.0804  0.4116  0.0782
 4387TIP3    H137356   4.610   6.297   8.506 -0.6791  1.3991  0.0500
 4387TIP3    H237357   4.521   6.333   8.389  1.3668  0.1217 -1.9869
 4388TIP3   OH237358   3.861   7.605   1.394  0.1284 -0.0580  0.6326
 4388TIP3    H137359   3.840   7.605   1.301 -2.6948  0.7175  1.1792
 4388TIP3    H237360   3.925   7.535   1.405 -2.1751 -2.6719 -1.3512
 4389TIP3   OH237361   3.383   4.171   0.642  0.0184  0.3826  0.2513
 4389TIP3    H137362   3.318   4.198   0.577  0.7693  1.4586 -0.0756
 4389TIP3    H237363   3.462   4.154   0.592  0.3666  0.3815  0.7946
 4390TIP3   OH237364   3.906   2.850   8.745 -0.0039 -0.3114 -0.6104
 4390TIP3    H137365   3.969   2.919   8.721  0.9030 -1.9997 -3.6212
 4390TIP3    H237366   3.831   2.866   8.688 -1.1347 -0.0441  0.8976
 4391TIP3   OH237367   0.535   6.804   9.166 -0.5866  0.4979  0.1446
 4391TIP3    H137368   0.608   6.799   9.104 -0.1404 -0.3963  0.7067
 4391TIP3    H237369   0.577   6.817   9.251 -0.9607 -1.2509  0.6511
 4392TIP3   OH237370   7.050   1.454   7.696  0.1305  0.0468 -0.3025
 4392TIP3    H137371   7.026   1.430   7.607  0.2602 -0.7821 -0.1260
 4392TIP3    H237372   7.137   1.415   7.709 -0.4224 -0.9553  0.5916
 4393TIP3   OH237373   0.717   1.597   9.420 -0.2652  0.5874 -0.6569
 4393TIP3    H137374   0.648   1.655   9.452 -0.9850 -0.0031 -1.0868
 4393TIP3    H237375   0.673   1.514   9.405  1.1155 -0.6996  1.8174
 4394TIP3   OH237376   5.120   6.536   8.917  0.3010  0.6073  0.5018
 4394TIP3    H137377   5.187   6.549   8.984 -1.5563  0.4394  2.5395
 4394TIP3    H237378   5.045   6.502   8.966 -1.3652  1.0490 -1.6109
 4395TIP3   OH237379   4.815   2.105   0.188 -0.5111 -0.1393  0.3564
 4395TIP3    H137380   4.733   2.061   0.165 -0.2875 -0.4146  0.0833
 4395TIP3    H237381   4.800   2.138   0.276 -1.1955  0.4850  0.0205
 4396TIP3   OH237382   2.094   7.404   7.806 -0.2989 -0.1084  0.4908
 4396TIP3    H137383   2.133   7.450   7.732 -2.0880  0.7242  0.0130
 4396TIP3    H237384   2.166   7.392   7.868  1.0564 -0.1198 -1.0226
 4397TIP3   OH237385   2.226   5.854   9.294  0.1165  0.0292  0.0916
 4397TIP3    H137386   2.210   5.769   9.334  3.0919 -0.8932 -0.4584
 4397TIP3    H237387   2.241   5.913   9.368 -0.4480 -0.2542  0.4380
 4398TIP3   OH237388   5.381   0.045   6.813 -0.1679 -0.0565 -0.2537
 4398TIP3    H137389   5.439   0.099   6.759  0.9865 -0.9022  0.0947
 4398TIP3    H237390   5.354   0.103   6.884  1.7404 -0.1372  0.5904
 4399TIP3   OH237391   2.853   3.773   7.941 -0.4274 -0.0305 -0.2745
 4399TIP3    H137392   2.813   3.693   7.975  0.5512 -0.7993 -0.8528
 4399TIP3    H237393   2.887   3.818   8.018  0.5683 -1.0744 -0.0694
 4400TIP3   OH237394   4.364   6.232   8.727  0.5962  0.6362  0.3686
 4400TIP3    H137395   4.383   6.139   8.718  0.7435  0.8172 -2.0187
 4400TIP3    H237396   4.431   6.276   8.674 -0.0478  2.0141  0.6442
 4401TIP3   OH237397   2.740   1.148   0.022  0.2578 -0.1462  0.3459
 4401TIP3    H137398   2.740   1.172  -0.071 -0.0232  1.3541  0.7205
 4401TIP3    H237399   2.810   1.200   0.061  0.0394 -0.3840  1.0738
 4402TIP3   OH237400   2.794   6.892   8.842 -0.0857 -0.0861 -0.1869
 4402TIP3    H137401   2.850   6.957   8.885 -0.0924  0.3994 -0.8971
 4402TIP3    H237402   2.717   6.886   8.899 -0.5896  1.3704 -0.6739
 4403TIP3   OH237403   0.999   3.693   7.931  0.4955 -0.2773  0.0428
 4403TIP3    H137404   1.036   3.781   7.941  2.4585 -0.9637 -0.6401
 4403TIP3    H237405   1.037   3.643   8.003  0.2922 -0.8352 -0.2323
 4404TIP3   OH237406   6.150   2.505   1.133 -0.0462 -0.5528  0.3157
 4404TIP3    H137407   6.091   2.532   1.203  0.3225 -1.6687  1.0622
 4404TIP3    H237408   6.132   2.412   1.120  1.4446 -0.8848  0.4710
 4405TIP3   OH237409   2.248   6.348   0.182 -0.6532  0.0586  0.3227
 4405TIP3    H137410   2.189   6.420   0.204  0.2640  0.4307  1.7136
 4405TIP3    H237411   2.192   6.270   0.180 -1.3704  0.5624  0.5546
 4406TIP3   OH237412   4.798   4.806   9.555  0.2091 -0.3936  0.1859
 4406TIP3    H137413   4.888   4.825   9.529  0.9174 -2.4981  0.8577
 4406TIP3    H237414   4.806   4.762   9.640 -1.3306 -1.6834 -0.2763
 4407TIP3   OH237415   5.233   1.022   7.827 -0.6662  0.6534 -0.4060
 4407TIP3    H137416   5.239   1.069   7.910  1.2754 -1.1649  0.6032
 4407TIP3    H237417   5.193   0.938   7.850  1.9744 -0.8040 -0.7620
 4408TIP3   OH237418   6.841   6.910   8.627 -0.0516 -0.8011 -0.1792
 4408TIP3    H137419   6.892   6.873   8.699 -0.9351 -0.4175  0.6612
 4408TIP3    H237420   6.751   6.911   8.659 -0.4871 -0.7692 -1.3536
 4409TIP3   OH237421   5.877   2.135   7.554 -0.5490 -0.2170  0.1200
 4409TIP3    H137422   5.788   2.111   7.578 -0.5483 -1.2398 -0.8379
 4409TIP3    H237423   5.892   2.092   7.470  0.2341  1.3940 -0.6169
 4410TIP3   OH237424   2.656   0.410   9.106  0.3957 -0.4270  0.0568
 4410TIP3    H137425   2.729   0.472   9.104  1.1363 -1.2612  0.5600
 4410TIP3    H237426   2.698   0.324   9.103 -0.5499 -0.9312  0.9596
 4411TIP3   OH237427   2.129   0.610   2.768  0.5364  0.9184 -0.5537
 4411TIP3    H137428   2.049   0.647   2.804  0.9904  1.3872  0.0030
 4411TIP3    H237429   2.131   0.639   2.677 -0.5477 -0.1490 -0.9537
 4412TIP3   OH237430   7.264   5.389   8.011  0.8554  0.2496  0.2475
 4412TIP3    H137431   7.357   5.380   7.991  0.8499 -3.2592  1.1600
 4412TIP3    H237432   7.230   5.299   8.008 -2.8753  1.5032 -1.5362
 4413TIP3   OH237433   3.495   1.693   2.896 -0.2716 -0.0372  0.9726
 4413TIP3    H137434   3.529   1.699   2.807 -4.8402 -2.9022 -1.3154
 4413TIP3    H237435   3.452   1.777   2.911 -0.3850  0.0827  0.0269
 4414TIP3   OH237436   1.183   4.364   0.689 -0.3674  0.1679 -0.7631
 4414TIP3    H137437   1.093   4.338   0.705  0.5309 -2.5287  0.5718
 4414TIP3    H237438   1.197   4.346   0.596 -0.6583 -1.5321 -0.5236
 4415TIP3   OH237439   0.171   7.605   7.825 -0.1690  0.3771 -0.2465
 4415TIP3    H137440   0.211   7.671   7.769 -0.7937  1.0640  0.0950
 4415TIP3    H237441   0.181   7.523   7.777 -0.8814  0.9787 -1.4658
 4416TIP3   OH237442   3.772   1.794   8.314  0.4537  0.2547 -0.1212
 4416TIP3    H137443   3.763   1.730   8.243  0.3162  0.6568 -0.4727
 4416TIP3    H237444   3.859   1.778   8.350 -0.4569 -1.7026  1.3575
 4417TIP3   OH237445   2.840   5.027   7.708  0.7450  0.3205  0.0423
 4417TIP3    H137446   2.892   5.080   7.646  0.0814  2.9313  1.5678
 4417TIP3    H237447   2.750   5.052   7.690  0.4655  0.2081  1.2360
 4418TIP3   OH237448   6.436   3.759   7.414 -0.1221 -0.1018 -0.5863
 4418TIP3    H137449   6.347   3.753   7.380 -1.6317 -2.1376  3.1407
 4418TIP3    H237450   6.429   3.814   7.492  1.8568 -0.4444 -0.1020
 4419TIP3   OH237451   3.701   2.721   8.065 -0.2136  0.6192  0.0996
 4419TIP3    H137452   3.747   2.692   8.143  0.6970 -0.7279 -0.8917
 4419TIP3    H237453   3.769   2.758   8.009 -0.7782  1.1356 -0.2631
 4420TIP3   OH237454   7.466   5.406   6.893  0.6570 -0.2488 -0.2496
 4420TIP3    H137455   7.473   5.316   6.924  1.0066 -0.5464 -1.1463
 4420TIP3    H237456   7.555   5.441   6.901  0.7932 -0.3901 -1.0594
 4421TIP3   OH237457   0.297   0.033   7.339  0.2126 -0.2334  0.2357
 4421TIP3    H137458   0.388   0.006   7.325  0.3506 -0.5606  1.6796
 4421TIP3    H237459   0.290   0.118   7.294  1.7959  0.7494  1.7559
 4422TIP3   OH237460   7.363   0.458   9.064 -0.2987 -0.2587 -0.0023
 4422TIP3    H137461   7.278   0.486   9.097 -0.5686  0.0982 -0.9757
 4422TIP3    H237462   7.360   0.362   9.067 -0.2501 -0.2410  1.1407
 4423TIP3   OH237463   2.622   2.400   7.771  0.4689  0.0087  0.7461
 4423TIP3    H137464   2.544   2.348   7.789 -1.5755  2.8485  0.6278
 4423TIP3    H237465   2.671   2.347   7.707 -1.4144 -1.7719  0.6726
 4424TIP3   OH237466   7.639   1.050   1.469  0.1386  0.3759 -0.6102
 4424TIP3    H137467   7.620   0.981   1.532 -1.8714  0.7452 -0.7563
 4424TIP3    H237468   7.615   1.013   1.385 -0.6091  1.1150 -0.7299
 4425TIP3   OH237469   5.494   2.952   7.814 -0.4227 -0.0165 -0.0510
 4425TIP3    H137470   5.449   2.878   7.855 -1.3075  0.9291  0.7391
 4425TIP3    H237471   5.479   2.940   7.720 -1.9590  0.0209  0.1645
 4426TIP3   OH237472   2.626   1.723   2.994 -0.1392  0.2822 -0.4480
 4426TIP3    H137473   2.649   1.641   3.037 -1.5132  0.9856  1.7920
 4426TIP3    H237474   2.710   1.763   2.972  0.5499 -1.5006 -1.2254
 4427TIP3   OH237475   6.967   2.514   2.569  0.4482 -0.2536 -0.0396
 4427TIP3    H137476   6.872   2.507   2.576  0.4929 -0.8402  0.0496
 4427TIP3    H237477   7.000   2.462   2.642  0.8342  0.3574  0.2286
 4428TIP3   OH237478   7.637   6.713   1.577  0.5750 -0.2330 -0.2846
 4428TIP3    H137479   7.659   6.784   1.638  1.5645  1.0175 -1.9961
 4428TIP3    H237480   7.619   6.638   1.633 -1.9174  1.6549  1.7193
 4429TIP3   OH237481   0.220   4.645   7.600 -0.0890  0.2470  0.1319
 4429TIP3    H137482   0.286   4.596   7.550  0.3027 -0.1740  1.0417
 4429TIP3    H237483   0.259   4.732   7.610 -0.2552  0.3960 -0.4441
 4430TIP3   OH237484   6.125   2.156   9.520  0.0694  0.1634  0.3146
 4430TIP3    H137485   6.205   2.208   9.523  0.6918 -0.7979  1.4274
 4430TIP3    H237486   6.089   2.164   9.609 -0.1956 -0.7012  0.2943
 4431TIP3   OH237487   7.148   6.225   1.531 -0.6738 -0.0867  0.0610
 4431TIP3    H137488   7.142   6.317   1.504 -0.2295 -0.0659  0.0157
 4431TIP3    H237489   7.220   6.224   1.595  0.1031 -0.5859 -0.7927
 4432TIP3   OH237490   1.298   2.635   7.908 -0.1735 -0.0527  0.2133
 4432TIP3    H137491   1.373   2.624   7.966 -0.4470 -0.5312  0.4801
 4432TIP3    H237492   1.271   2.546   7.886 -1.2021  0.0886  0.8172
 4433TIP3   OH237493   7.135   2.101   1.430  0.2377 -0.1203 -0.5672
 4433TIP3    H137494   7.221   2.065   1.410  0.8084  0.2216  1.1517
 4433TIP3    H237495   7.094   2.036   1.488  0.0020  0.4784 -0.0494
 4434TIP3   OH237496   1.599   1.138   1.693 -0.6575 -0.4127 -0.1679
 4434TIP3    H137497   1.608   1.140   1.788  0.2968 -1.8490 -0.1929
 4434TIP3    H237498   1.675   1.185   1.660 -1.3281  0.6613 -0.2424
 4435TIP3   OH237499   6.889   6.443   1.840 -0.5292 -0.2046 -0.2775
 4435TIP3    H137500   6.822   6.401   1.893 -1.0260  0.2644 -0.5343
 4435TIP3    H237501   6.970   6.395   1.862 -0.6478  0.2204  1.1611
 4436TIP3   OH237502   3.088   2.583   7.340 -0.0001  0.4658  0.0755
 4436TIP3    H137503   3.062   2.519   7.406  1.5885 -1.2715 -0.8727
 4436TIP3    H237504   3.013   2.589   7.281 -0.9173  1.0213  1.2616
 4437TIP3   OH237505   2.958   4.561   7.469  0.3370  0.4569 -0.3139
 4437TIP3    H137506   2.901   4.519   7.404  0.4601  1.0226 -0.8006
 4437TIP3    H237507   2.899   4.615   7.522  0.3760  0.8137 -0.6305
 4438TIP3   OH237508   7.353   7.351   1.694 -0.2112 -0.0333 -0.4550
 4438TIP3    H137509   7.446   7.328   1.695  0.0786  1.0031 -1.5819
 4438TIP3    H237510   7.338   7.391   1.780  0.0898 -1.2472  0.1835
 4439TIP3   OH237511   0.178   1.395   9.704  0.4462 -0.1452 -0.1288
 4439TIP3    H137512   0.165   1.403   9.798  1.0591 -0.0773 -0.0436
 4439TIP3    H237513   0.247   1.459   9.684 -0.7834  1.0033 -0.8830
 4440TIP3   OH237514   1.247   0.192   1.990 -0.2498 -0.2641  0.1863
 4440TIP3    H137515   1.250   0.287   2.004 -0.3794 -0.3804  1.0233
 4440TIP3    H237516   1.159   0.167   2.018 -0.6359 -0.4695 -1.1310
 4441TIP3   OH237517   1.968   1.225   1.982 -0.4478  0.3544  0.2031
 4441TIP3    H137518   1.995   1.315   1.965  1.6596 -0.3148 -0.3015
 4441TIP3    H237519   2.022   1.197   2.056 -0.7578 -0.6254  0.0755
 4442TIP3   OH237520   3.119   4.280   7.633  0.0735 -0.9851 -0.5778
 4442TIP3    H137521   3.164   4.333   7.699  3.1663 -0.9670 -2.4851
 4442TIP3    H237522   3.076   4.344   7.576 -1.8070 -0.9574  0.8044
 4443TIP3   OH237523   5.843   6.715   8.732 -0.2348 -0.3129 -0.4980
 4443TIP3    H137524   5.845   6.631   8.779  1.1850 -0.6203 -1.0510
 4443TIP3    H237525   5.875   6.693   8.644 -1.4702  0.5152 -1.1710
 4444TIP3   OH237526   2.861   4.100   6.976  0.7104 -1.0211 -0.0461
 4444TIP3    H137527   2.897   4.169   6.919 -0.1524 -0.7957 -0.3370
 4444TIP3    H237528   2.938   4.058   7.015  1.2660 -0.1764 -0.2039
 4445TIP3   OH237529   5.019   2.202   1.970  0.0845 -0.6352 -0.1921
 4445TIP3    H137530   4.980   2.204   1.883  0.4271 -3.2296 -0.4993
 4445TIP3    H237531   5.113   2.209   1.955  0.0782  0.3293  0.1231
 4446TIP3   OH237532   5.953   1.330   9.405  0.3785  0.0515 -0.4664
 4446TIP3    H137533   5.893   1.405   9.412 -1.5860 -1.5620  1.8944
 4446TIP3    H237534   6.039   1.369   9.391 -1.0213  2.5448 -3.0016
 4447TIP3   OH237535   1.239   6.711   8.043 -0.2010  0.1763  0.3114
 4447TIP3    H137536   1.228   6.731   8.137 -2.4810  0.2687  0.0896
 4447TIP3    H237537   1.187   6.632   8.029  0.4982 -0.1072 -0.8112
 4448TIP3   OH237538   6.957   4.002   7.989  0.4335 -0.2458  0.4487
 4448TIP3    H137539   6.903   3.924   7.998 -0.3880  0.1715 -0.5752
 4448TIP3    H237540   7.047   3.970   7.983  0.1019 -1.1146  0.0241
 4449TIP3   OH237541   6.605   3.081   2.831  0.5892 -0.0167  0.5199
 4449TIP3    H137542   6.647   3.083   2.917  0.9883  1.3354  0.3237
 4449TIP3    H237543   6.565   2.994   2.826  1.3396 -0.4622  1.6876
 4450TIP3   OH237544   3.997   1.681   0.114 -0.2074 -0.5287  0.2691
 4450TIP3    H137545   3.967   1.771   0.105 -0.6536 -0.6865  0.1554
 4450TIP3    H237546   3.983   1.642   0.027  0.5809 -0.5308  0.1333
 4451TIP3   OH237547   6.609   3.273   1.545 -0.6699 -0.0336  0.3937
 4451TIP3    H137548   6.590   3.340   1.611  1.8162  1.3095 -0.1494
 4451TIP3    H237549   6.618   3.192   1.595 -1.2564  0.4876  1.3784
 4452TIP3   OH237550   2.332   1.565   8.809  0.2635  0.5672  0.4005
 4452TIP3    H137551   2.322   1.614   8.727 -1.9066  0.3875  0.4930
 4452TIP3    H237552   2.258   1.504   8.809  1.0619 -0.4506  1.8195
 4453TIP3   OH237553   4.527   6.708  10.027 -0.0139 -0.0394  0.2669
 4453TIP3    H137554   4.564   6.788  10.063  0.4132  0.6435 -1.5698
 4453TIP3    H237555   4.514   6.651  10.103 -1.8450  2.3019  1.8614
 4454TIP3   OH237556   2.346   0.043   6.838  0.5187 -0.1353 -0.5554
 4454TIP3    H137557   2.330  -0.012   6.761 -0.8500 -1.2363  0.4821
 4454TIP3    H237558   2.436   0.073   6.827  0.4302 -0.4109 -2.4844
 4455TIP3   OH237559   5.978   2.091   8.296 -0.4092 -0.3921  0.2418
 4455TIP3    H137560   5.981   2.056   8.385  1.2356 -2.1525 -0.4355
 4455TIP3    H237561   6.067   2.081   8.263 -0.8825  0.6262 -1.4695
 4456TIP3   OH237562   1.205   7.623   0.375  0.2234  0.0126 -0.2550
 4456TIP3    H137563   1.236   7.713   0.390  1.4713 -0.4948  0.3940
 4456TIP3    H237564   1.183   7.620   0.282  0.5128  0.8923 -0.3609
 4457TIP3   OH237565   5.754   0.378   8.812  0.2769 -0.0660 -0.2722
 4457TIP3    H137566   5.746   0.458   8.760 -0.5474 -0.5193 -0.8933
 4457TIP3    H237567   5.758   0.408   8.902  0.9674  0.7145 -0.5470
 4458TIP3   OH237568   1.380   3.789   7.346  0.4440  0.2376 -0.2346
 4458TIP3    H137569   1.425   3.706   7.329  0.0350 -0.0819  0.1895
 4458TIP3    H237570   1.298   3.782   7.297  1.4751  1.4408 -2.2324
 4459TIP3   OH237571   4.353   5.179   7.197 -0.1902  0.1419  0.0140
 4459TIP3    H137572   4.378   5.232   7.273 -1.6040  1.5117 -0.4254
 4459TIP3    H237573   4.323   5.243   7.132 -0.1863 -1.0909 -1.2455
 4460TIP3   OH237574   6.820   0.835   0.743  0.6354 -0.1314 -0.1773
 4460TIP3    H137575   6.879   0.783   0.689 -0.2749 -1.0262 -0.3522
 4460TIP3    H237576   6.741   0.845   0.690  0.2614  0.1861  0.4245
 4461TIP3   OH237577   7.626   1.444   2.719 -0.7710  0.2928  0.4188
 4461TIP3    H137578   7.666   1.509   2.659  1.2845 -1.1571  0.1083
 4461TIP3    H237579   7.561   1.494   2.767 -1.5041  1.8827 -1.9968
 4462TIP3   OH237580   1.895   7.413   8.065 -0.4309  0.0064 -0.4956
 4462TIP3    H137581   1.865   7.437   7.978 -0.5511 -0.8193 -0.6892
 4462TIP3    H237582   1.844   7.468   8.124  0.7246  1.6579 -0.9908
 4463TIP3   OH237583   4.616   0.436   8.762 -0.1830 -0.2426 -0.1540
 4463TIP3    H137584   4.552   0.365   8.761  0.8918 -1.3006  1.4572
 4463TIP3    H237585   4.701   0.391   8.757  0.5292  0.8961  1.0931
 4464TIP3   OH237586   3.667   6.290   0.834  0.3985 -0.1819 -0.4610
 4464TIP3    H137587   3.592   6.230   0.827 -1.2634  1.8853 -1.2731
 4464TIP3    H237588   3.683   6.297   0.928 -0.1265 -0.9599 -0.2987
 4465TIP3   OH237589   4.179   5.414   7.965  0.9188 -0.5127 -0.2239
 4465TIP3    H137590   4.259   5.425   8.016  0.9330  0.7260 -0.4774
 4465TIP3    H237591   4.191   5.470   7.889 -0.4443  0.1903  0.0545
 4466TIP3   OH237592   6.517   4.971   7.671 -0.2798 -0.4814 -0.1693
 4466TIP3    H137593   6.502   4.940   7.582 -0.5863 -1.7997  0.3233
 4466TIP3    H237594   6.610   4.953   7.688 -0.2770 -0.4411 -0.1401
 4467TIP3   OH237595   2.278   4.718   0.534 -0.4075  0.0125 -0.0958
 4467TIP3    H137596   2.292   4.761   0.619 -1.0680 -0.4312  0.2417
 4467TIP3    H237597   2.317   4.631   0.544 -0.3118  0.0279 -0.3189
 4468TIP3   OH237598   6.972   7.499   7.528 -0.2314 -0.1196 -0.5658
 4468TIP3    H137599   6.909   7.542   7.470  0.3834 -0.4341 -1.4880
 4468TIP3    H237600   7.057   7.531   7.500  0.1295 -0.8399 -0.3201
 4469TIP3   OH237601   1.059   2.078   0.081  0.3929  0.4049  0.2058
 4469TIP3    H137602   1.000   2.009   0.052 -1.2411  1.8736 -0.1548
 4469TIP3    H237603   1.047   2.148   0.017  1.9328  1.0653  0.6098
 4470TIP3   OH237604   5.908   5.993   0.370 -0.3395  0.9092 -0.0146
 4470TIP3    H137605   5.874   5.921   0.317 -0.2529  1.5488 -0.9538
 4470TIP3    H237606   5.888   5.967   0.460  1.5964 -1.3169 -0.1215
 4471TIP3   OH237607   0.400   5.543   9.038  0.1286 -0.8985  0.2547
 4471TIP3    H137608   0.496   5.536   9.042  0.1687 -2.0129 -1.6425
 4471TIP3    H237609   0.384   5.621   8.985 -0.0432 -0.3062  1.1620
 4472TIP3   OH237610   3.438   1.268   8.790  0.0183 -0.1882 -0.6496
 4472TIP3    H137611   3.366   1.273   8.853  1.0156  0.7003  0.4586
 4472TIP3    H237612   3.517   1.280   8.843  0.9157 -0.0071 -1.9911
 4473TIP3   OH237613   2.093   5.265   8.849  0.1525 -0.4084  0.3795
 4473TIP3    H137614   2.151   5.265   8.773 -0.8451 -0.2035 -0.4028
 4473TIP3    H237615   2.034   5.191   8.833  0.7626 -1.1983  1.6229
 4474TIP3   OH237616   2.188   4.996   0.528  0.4073  0.0724 -0.0270
 4474TIP3    H137617   2.274   4.960   0.507  1.5730  1.5446  1.8216
 4474TIP3    H237618   2.175   5.066   0.465  1.7147  1.3961  1.0918
 4475TIP3   OH237619   4.415   2.270   9.587 -0.2629 -1.2410 -0.7290
 4475TIP3    H137620   4.487   2.210   9.567 -1.2676 -2.1984 -1.6357
 4475TIP3    H237621   4.398   2.258   9.680 -1.1839 -3.2847 -1.0984
 4476TIP3   OH237622   3.286   3.047   9.549  0.2927 -0.1756 -0.4440
 4476TIP3    H137623   3.343   3.029   9.474 -1.5902 -0.2196 -1.9700
 4476TIP3    H237624   3.344   3.046   9.625  2.3291  0.0684 -1.9140
 4477TIP3   OH237625   2.640   1.986   9.946  0.5134 -0.5282  0.2038
 4477TIP3    H137626   2.637   1.956   9.855 -0.1562 -2.1912  0.7281
 4477TIP3    H237627   2.572   2.054   9.952 -1.0477 -1.9844 -0.0608
 4478TIP3   OH237628   7.349   2.398   9.457 -0.2047  0.3734  0.0280
 4478TIP3    H137629   7.432   2.374   9.499 -0.7780 -0.8969  0.5033
 4478TIP3    H237630   7.338   2.491   9.475 -0.1383 -0.0036  2.2208
 4479TIP3   OH237631   2.479   4.672   7.435 -0.2897  0.3372  0.0150
 4479TIP3    H137632   2.420   4.671   7.511 -0.5211 -1.8618 -0.1392
 4479TIP3    H237633   2.424   4.643   7.362  0.6827 -0.6793 -0.3443
 4480TIP3   OH237634   3.781   6.231   9.154 -0.0940 -0.5363  0.0528
 4480TIP3    H137635   3.777   6.317   9.197 -0.4208 -0.5487  0.0448
 4480TIP3    H237636   3.716   6.178   9.200  0.6257 -1.0088  0.5541
 4481TIP3   OH237637   4.086   1.234   7.125  0.2673  0.3565 -0.3837
 4481TIP3    H137638   4.142   1.180   7.180 -0.1330 -0.9759 -1.2369
 4481TIP3    H237639   4.024   1.275   7.185 -0.9771 -2.0557  0.0772
 4482TIP3   OH237640   4.235   3.129   9.420  0.4214 -0.6508  0.3326
 4482TIP3    H137641   4.148   3.166   9.405  1.7213  1.7320 -2.2591
 4482TIP3    H237642   4.249   3.136   9.514 -1.9859 -0.7229  0.7458
 4483TIP3   OH237643   7.400   4.111   2.582  0.1939  0.1682  0.2147
 4483TIP3    H137644   7.362   4.024   2.571  0.4971  0.0695 -0.0597
 4483TIP3    H237645   7.395   4.127   2.676  0.9636 -0.5247  0.3803
 4484TIP3   OH237646   5.203   1.317   9.316  0.3962  0.2364 -0.4819
 4484TIP3    H137647   5.130   1.273   9.271 -1.1295  1.9113  0.1973
 4484TIP3    H237648   5.254   1.246   9.354 -2.3086 -1.0377  1.1153
 4485TIP3   OH237649   1.484   2.997   0.242 -0.2863 -0.2731 -0.2772
 4485TIP3    H137650   1.468   2.907   0.213 -1.3453  0.6531 -2.9330
 4485TIP3    H237651   1.457   3.051   0.167 -0.9224  2.3245  1.6850
 4486TIP3   OH237652   0.257   0.836   8.225 -0.2560 -0.2731  0.3642
 4486TIP3    H137653   0.302   0.877   8.152  0.6127 -1.9192 -0.0887
 4486TIP3    H237654   0.230   0.908   8.281  0.8480  0.9048 -0.5695
 4487TIP3   OH237655   0.428   7.008   0.512 -0.0510 -0.5703  0.6541
 4487TIP3    H137656   0.408   6.974   0.424 -1.2753 -0.1864  0.7635
 4487TIP3    H237657   0.367   6.962   0.569  0.5532 -0.6080  1.2809
 4488TIP3   OH237658   6.952   5.170   0.308  0.4109  0.5437 -0.0561
 4488TIP3    H137659   6.947   5.083   0.269 -0.5162  1.1690 -1.4414
 4488TIP3    H237660   7.045   5.184   0.326  1.0445  0.4556 -2.7684
 4489TIP3   OH237661   3.134   3.747   6.785 -0.0228 -0.1798  0.6072
 4489TIP3    H137662   3.210   3.795   6.750 -1.7976  0.4842 -2.7810
 4489TIP3    H237663   3.160   3.655   6.777 -0.0805 -0.0482 -2.2550
 4490TIP3   OH237664   1.167   7.607   1.043 -0.2717 -0.2646  0.0857
 4490TIP3    H137665   1.246   7.660   1.038 -0.2989 -0.1822  0.5346
 4490TIP3    H237666   1.159   7.583   1.135 -0.4837 -0.7057 -0.0439
 4491TIP3   OH237667   5.931   4.807   8.207 -0.2757  0.1441 -0.0212
 4491TIP3    H137668   5.969   4.805   8.295  0.6356 -0.0530 -0.4079
 4491TIP3    H237669   6.000   4.773   8.150 -0.8166  0.3691 -0.8305
 4492TIP3   OH237670   5.137   0.422   7.789 -0.1767  0.1711 -0.5590
 4492TIP3    H137671   5.075   0.396   7.857  0.9309  0.5175  0.6144
 4492TIP3    H237672   5.126   0.356   7.720 -0.7255 -0.6716  0.3141
 4493TIP3   OH237673   4.669   2.731   0.428  0.4963 -0.5439 -0.3982
 4493TIP3    H137674   4.697   2.669   0.361 -0.3800 -1.4450  0.0495
 4493TIP3    H237675   4.750   2.765   0.465  0.9890 -1.2657 -0.7926
 4494TIP3   OH237676   7.450   5.012   2.228  0.0263 -0.1075 -0.2577
 4494TIP3    H137677   7.415   4.934   2.271  0.4080  0.5184  1.2774
 4494TIP3    H237678   7.377   5.074   2.229 -0.3312 -0.4779 -1.6358
 4495TIP3   OH237679   0.475   1.383   2.870  0.4063  0.4933  0.1604
 4495TIP3    H137680   0.425   1.324   2.813  1.1179  1.3243 -1.3761
 4495TIP3    H237681   0.540   1.326   2.911  0.6603  0.0597 -0.7993
 4496TIP3   OH237682   5.751   7.321   2.186  0.2495  0.0594 -0.2350
 4496TIP3    H137683   5.693   7.392   2.156 -1.9472 -0.6752  1.9812
 4496TIP3    H237684   5.694   7.244   2.191  1.9418 -1.2189  0.0886
 4497TIP3   OH237685   0.406   5.237   9.354  0.1600 -0.6445  0.6727
 4497TIP3    H137686   0.465   5.307   9.381 -0.9461  0.8600 -0.6449
 4497TIP3    H237687   0.401   5.245   9.259 -2.0282 -0.8084  0.7208
 4498TIP3   OH237688   5.986   0.889   7.917 -0.0036  0.0145 -0.3330
 4498TIP3    H137689   5.894   0.918   7.917  0.4812  1.7787  1.3153
 4498TIP3    H237690   6.020   0.918   7.832 -0.7303  0.1933 -0.5731
 4499TIP3   OH237691   0.644   2.303   1.069  0.4808  0.4895  0.2767
 4499TIP3    H137692   0.712   2.348   1.120 -0.0296  0.7812  0.7094
 4499TIP3    H237693   0.562   2.329   1.111  0.1003  0.1568 -0.2569
 4500TIP3   OH237694   2.280   5.445   7.082  0.7892  0.7084  0.1866
 4500TIP3    H137695   2.294   5.350   7.085  0.2490  0.6152 -0.1911
 4500TIP3    H237696   2.207   5.457   7.021  0.0361  1.2639  1.1640
 4501TIP3   OH237697   2.627   3.069   1.656 -0.1020  0.1579  0.2998
 4501TIP3    H137698   2.695   3.135   1.671 -0.8909  0.3058  4.0455
 4501TIP3    H237699   2.548   3.106   1.695 -0.9361 -2.3008  1.1408
 4502TIP3   OH237700   3.881   0.825   1.522 -0.0556  0.3980 -0.3012
 4502TIP3    H137701   3.886   0.762   1.450  0.5905 -0.3258  0.3660
 4502TIP3    H237702   3.942   0.894   1.497  0.4048 -0.0052 -0.3090
 4503TIP3   OH237703   1.413   4.806   7.617  0.3425  0.0821  0.4827
 4503TIP3    H137704   1.323   4.777   7.631  0.1030  1.4895  2.1478
 4503TIP3    H237705   1.460   4.727   7.590 -1.4559 -0.5885 -0.8898
 4504TIP3   OH237706   0.728   1.914   7.737  0.1694 -0.2304 -0.5118
 4504TIP3    H137707   0.671   1.965   7.680 -1.1302  0.5356  1.3660
 4504TIP3    H237708   0.813   1.958   7.733 -0.7065  1.6324  0.4430
 4505TIP3   OH237709   0.836   4.007   0.140 -0.2232  0.6208 -1.0093
 4505TIP3    H137710   0.923   3.968   0.152 -0.5414  0.0968 -0.3563
 4505TIP3    H237711   0.846   4.097   0.171 -0.4942 -0.1068  1.4551
 4506TIP3   OH237712   2.770   2.865   0.097  0.3292 -0.2619  0.0625
 4506TIP3    H137713   2.750   2.937   0.156 -0.9744 -0.1864 -0.4415
 4506TIP3    H237714   2.733   2.788   0.141 -1.5007 -0.0718 -1.0370
 4507TIP3   OH237715   6.024   0.683   9.813  0.3030 -0.4207  0.5692
 4507TIP3    H137716   6.009   0.755   9.751 -0.7215 -0.4817  0.7339
 4507TIP3    H237717   5.946   0.628   9.806  0.3135 -0.6030  1.6743
 4508TIP3   OH237718   2.769   2.697   0.481 -0.0587 -0.0172 -0.4501
 4508TIP3    H137719   2.679   2.666   0.491  0.5274 -1.6998 -0.1138
 4508TIP3    H237720   2.817   2.656   0.552  0.6413  2.4497  0.6021
 4509TIP3   OH237721   3.936   7.484   9.104  0.0509  0.1815 -0.3765
 4509TIP3    H137722   3.976   7.455   9.186  0.1346  2.0323  0.2652
 4509TIP3    H237723   4.004   7.468   9.038  0.2006 -0.7600 -0.0123
 4510TIP3   OH237724   1.655   3.055   2.849  0.0636  0.5030 -0.2028
 4510TIP3    H137725   1.632   3.002   2.925  1.5846 -2.6054 -1.6902
 4510TIP3    H237726   1.637   3.145   2.875 -0.6861 -0.5276  3.3195
 4511TIP3   OH237727   5.638   6.543   9.198 -0.0025 -0.3048  0.0144
 4511TIP3    H137728   5.668   6.455   9.222  0.6144  0.0319  0.5109
 4511TIP3    H237729   5.674   6.558   9.111  1.0659 -0.0165  0.4891
 4512TIP3   OH237730   6.682   3.383   0.730 -0.3098 -0.1950 -0.3184
 4512TIP3    H137731   6.620   3.333   0.783 -2.0322 -0.0558 -2.0522
 4512TIP3    H237732   6.640   3.469   0.718  0.8463  0.3725 -0.4522
 4513TIP3   OH237733   3.960   7.279   2.669  0.1675  0.6277 -0.5982
 4513TIP3    H137734   3.926   7.368   2.681  0.1010  0.4096  0.9596
 4513TIP3    H237735   3.909   7.244   2.595 -0.0180  1.7646 -1.0322
 4514TIP3   OH237736   6.642   4.839   9.227  0.0673 -0.1555  1.0407
 4514TIP3    H137737   6.700   4.768   9.254  0.5103  0.2941  1.2849
 4514TIP3    H237738   6.688   4.883   9.156 -1.3206 -1.6587 -0.8950
 4515TIP3   OH237739   0.963   7.398   2.169  0.4733 -0.0753  0.5301
 4515TIP3    H137740   1.016   7.445   2.104  1.4383 -0.6803  0.8433
 4515TIP3    H237741   0.873   7.407   2.139  0.7977  0.6296 -0.2603
 4516TIP3   OH237742   4.028   1.706   9.791 -0.2420  0.4973 -0.6393
 4516TIP3    H137743   4.051   1.759   9.867  0.2614  0.7557 -0.9680
 4516TIP3    H237744   4.076   1.746   9.718  0.8019 -0.8753 -0.7525
 4517TIP3   OH237745   5.577   2.990   9.513 -0.3000  0.4244  0.0828
 4517TIP3    H137746   5.607   2.910   9.470 -0.1080  0.9567 -0.8043
 4517TIP3    H237747   5.562   3.051   9.441 -1.3334  0.8986  0.6778
 4518TIP3   OH237748   1.132   3.298   1.139 -0.0548  0.4390  0.8264
 4518TIP3    H137749   1.127   3.361   1.212  1.9098  2.0835 -0.3280
 4518TIP3    H237750   1.218   3.258   1.149 -0.5432 -0.7251  0.4657
 4519TIP3   OH237751   4.567   5.133   9.277 -0.2921 -0.0581  0.2447
 4519TIP3    H137752   4.503   5.153   9.345  0.2858 -0.5999  0.9660
 4519TIP3    H237753   4.648   5.173   9.308  0.2724 -1.3358  0.4770
 4520TIP3   OH237754   6.801   6.960   9.717  0.5300  0.6438  0.3038
 4520TIP3    H137755   6.894   6.968   9.736  0.5238  0.6226  0.3437
 4520TIP3    H237756   6.772   6.884   9.769  0.7021  0.0081 -0.5177
 4521TIP3   OH237757   0.690   3.231   0.182 -0.4621 -0.2796  0.1001
 4521TIP3    H137758   0.651   3.181   0.253  2.8070  0.4775  2.6574
 4521TIP3    H237759   0.740   3.167   0.131 -0.0007 -0.3095  0.5888
 4522TIP3   OH237760   1.263   7.378   8.622 -0.1297  0.1208 -0.0598
 4522TIP3    H137761   1.182   7.412   8.661 -1.4218 -0.9206 -1.6752
 4522TIP3    H237762   1.264   7.286   8.647  1.1816  0.3780  0.8848
 4523TIP3   OH237763   0.004   1.035   8.139 -0.0280 -0.4655 -0.4495
 4523TIP3    H137764   0.067   1.067   8.203 -0.2447  0.5926 -0.7466
 4523TIP3    H237765  -0.078   1.025   8.189 -0.1550  0.2001 -0.5148
 4524TIP3   OH237766   0.689   5.494   9.054 -0.6783  0.0717  0.1876
 4524TIP3    H137767   0.699   5.551   8.978 -1.7444  1.7404  1.2390
 4524TIP3    H237768   0.716   5.408   9.023  0.9686  1.1073 -1.4755
 4525TIP3   OH237769   7.197   1.757   7.752 -0.1221  0.2543  0.3093
 4525TIP3    H137770   7.241   1.838   7.779 -0.5153 -0.2179  2.5674
 4525TIP3    H237771   7.175   1.771   7.660  1.6310  1.8823  0.0857
 4526TIP3   OH237772   3.803   4.627   8.135 -0.3583  0.3214 -0.2797
 4526TIP3    H137773   3.877   4.597   8.189 -1.0358 -0.3952  0.2702
 4526TIP3    H237774   3.837   4.625   8.045 -0.0033 -0.9480 -0.1369
 4527TIP3   OH237775   5.344   7.594   8.655 -0.6030  0.1649  0.5953
 4527TIP3    H137776   5.283   7.552   8.715 -1.5109  0.1310 -0.3179
 4527TIP3    H237777   5.417   7.532   8.647 -1.2471 -0.5771  0.3911
 4528TIP3   OH237778   6.465   2.646   1.966  0.6093 -0.1145  0.2408
 4528TIP3    H137779   6.461   2.700   1.887  2.3593 -0.0250  0.1569
 4528TIP3    H237780   6.401   2.684   2.026 -0.1772  0.2999 -0.8414
 4529TIP3   OH237781   7.329   1.261   0.645 -0.2452  0.0205 -0.1186
 4529TIP3    H137782   7.384   1.252   0.567  0.2517  1.2534  0.0563
 4529TIP3    H237783   7.373   1.208   0.712  0.1087  0.0776 -0.3008
 4530TIP3   OH237784   4.414   5.326   7.431 -0.3318  0.3536 -0.0887
 4530TIP3    H137785   4.370   5.265   7.491 -0.9533 -0.9001 -1.7272
 4530TIP3    H237786   4.506   5.321   7.455 -0.6446  0.4445  1.2150
 4531TIP3   OH237787   0.266   4.042   6.698 -0.1758  0.1061 -0.1445
 4531TIP3    H137788   0.347   4.094   6.704  0.1840 -0.1753 -1.9242
 4531TIP3    H237789   0.287   3.961   6.743  0.1462  0.4896  0.4107
 4532TIP3   OH237790   2.785   0.357   7.822 -0.6283  0.8212  0.3335
 4532TIP3    H137791   2.853   0.336   7.885 -0.7082  2.2121  0.9314
 4532TIP3    H237792   2.813   0.316   7.741  0.9131  1.3383  0.5789
 4533TIP3   OH237793   3.977   0.929   7.065 -0.4104  0.0312 -0.7396
 4533TIP3    H137794   4.026   0.950   7.145  0.9708  0.8719 -1.7531
 4533TIP3    H237795   3.952   1.014   7.029 -0.7031 -0.3185 -1.3862
 4534TIP3   OH237796   4.815   1.096   8.002  0.3174  0.0674 -0.2033
 4534TIP3    H137797   4.864   1.146   7.937  0.0952  2.0291  1.0684
 4534TIP3    H237798   4.736   1.147   8.018 -0.4623 -1.2509  0.3961
 4535TIP3   OH237799   1.279   6.129   9.456 -0.9286 -0.1302 -0.2407
 4535TIP3    H137800   1.255   6.127   9.549 -0.0524 -1.9767 -0.0075
 4535TIP3    H237801   1.252   6.216   9.426 -3.0084 -0.1799  1.2501
 4536TIP3   OH237802   1.536   5.801   8.868 -0.4875 -0.2330 -0.2836
 4536TIP3    H137803   1.595   5.875   8.856  0.8511 -0.9048  1.6814
 4536TIP3    H237804   1.476   5.830   8.936 -1.1203 -0.3168 -0.8006
 4537TIP3   OH237805   1.839   4.646   8.660  0.0251 -0.3372  0.5425
 4537TIP3    H137806   1.902   4.676   8.596 -1.1493 -1.5606 -1.2669
 4537TIP3    H237807   1.800   4.727   8.695  0.2005  0.3619 -0.8080
 4538TIP3   OH237808   0.528   2.427   8.309 -0.1742 -0.5613 -0.5913
 4538TIP3    H137809   0.493   2.344   8.276 -2.1811  0.6250 -1.6407
 4538TIP3    H237810   0.600   2.448   8.251  0.7955 -1.8587  0.0909
 4539TIP3   OH237811   2.593   5.736   0.429  0.2830  0.3484 -0.0437
 4539TIP3    H137812   2.617   5.644   0.422  1.3549  0.7290 -2.0925
 4539TIP3    H237813   2.670   5.779   0.467  0.4206  0.6296 -0.6287
 4540TIP3   OH237814   5.376   0.300   2.108 -0.3157 -0.4936 -0.1725
 4540TIP3    H137815   5.327   0.269   2.184 -0.8130 -1.5350 -0.9091
 4540TIP3    H237816   5.388   0.394   2.124 -1.6936 -0.4148  0.4799
 4541TIP3   OH237817   5.860   4.725   7.588 -0.2254 -0.2059  0.2991
 4541TIP3    H137818   5.930   4.771   7.634  0.5380 -2.7071  1.8719
 4541TIP3    H237819   5.881   4.736   7.495  2.1476 -0.6407  0.7162
 4542TIP3   OH237820   3.348   7.052   8.184 -0.0672  0.2065  0.2401
 4542TIP3    H137821   3.263   7.010   8.197 -1.2820  2.3800 -0.1987
 4542TIP3    H237822   3.393   7.044   8.268 -0.4516 -1.4565  0.3100
 4543TIP3   OH237823   0.792   6.535   9.719  0.2467 -0.3988  0.9893
 4543TIP3    H137824   0.772   6.464   9.658 -1.0919  0.4340  0.4054
 4543TIP3    H237825   0.710   6.550   9.766  0.1721  1.4171  0.3802
 4544TIP3   OH237826   1.976   2.837   7.488  0.1935  0.0875 -0.6570
 4544TIP3    H137827   1.890   2.876   7.505  1.3488  1.2991  3.4195
 4544TIP3    H237828   1.966   2.745   7.513  0.1829  0.3868  0.5138
 4545TIP3   OH237829   2.078   5.874   6.838  0.2650 -0.0780 -0.1390
 4545TIP3    H137830   2.155   5.856   6.783  0.4451 -0.7558  0.3293
 4545TIP3    H237831   2.084   5.968   6.857  1.2095 -0.2001  0.2273
 4546TIP3   OH237832   0.350   3.735   8.506  0.1873  0.0614  0.5722
 4546TIP3    H137833   0.417   3.668   8.493  0.2878 -0.2754  2.4676
 4546TIP3    H237834   0.267   3.686   8.507 -0.0972  0.4318 -1.4180
 4547TIP3   OH237835   2.671   4.618   9.554 -0.1218  0.8322  1.0574
 4547TIP3    H137836   2.617   4.577   9.621  0.4080 -0.3988  0.7532
 4547TIP3    H237837   2.716   4.545   9.511  0.5107  1.6986  0.2058
 4548TIP3   OH237838   3.516   4.657   8.400  0.2631  0.2079 -0.6862
 4548TIP3    H137839   3.476   4.673   8.486  0.6170 -1.8073 -0.0944
 4548TIP3    H237840   3.591   4.716   8.398 -0.7240  1.5146 -0.3487
 4549TIP3   OH237841   5.989   6.130   9.120  0.3442 -0.6743  0.3780
 4549TIP3    H137842   6.044   6.110   9.045 -0.9109  2.6626 -1.6265
 4549TIP3    H237843   5.900   6.115   9.089 -0.1396 -1.9470  2.2061
 4550TIP3   OH237844   0.278   0.634   2.665  0.5784 -0.1278 -0.2811
 4550TIP3    H137845   0.185   0.623   2.649  0.2384  1.1660  0.7188
 4550TIP3    H237846   0.285   0.708   2.725  2.1671 -0.9633  0.6695
 4551TIP3   OH237847   7.535   4.576   9.324  0.8849  0.6725  0.0636
 4551TIP3    H137848   7.556   4.646   9.387  1.4813 -0.2532  0.9152
 4551TIP3    H237849   7.479   4.516   9.373 -1.4359  1.5743 -1.2932
 4552TIP3   OH237850   7.149   1.181   8.690  0.4710  0.3981  0.0950
 4552TIP3    H137851   7.105   1.246   8.636  1.9804  0.4177 -1.2089
 4552TIP3    H237852   7.148   1.101   8.637  1.9852  0.4217 -0.0145
 4553TIP3   OH237853   7.493   0.235   1.595 -0.5649 -0.5111  0.0507
 4553TIP3    H137854   7.427   0.173   1.565 -1.2169  0.4865 -0.6389
 4553TIP3    H237855   7.574   0.205   1.554 -0.8235 -1.0575 -0.0679
 4554TIP3   OH237856   6.060   1.709   2.018 -0.5767 -0.3483  0.1155
 4554TIP3    H137857   6.049   1.622   1.978  1.4512 -0.0461 -1.2055
 4554TIP3    H237858   6.103   1.761   1.951  1.8012  0.5684  2.2201
 4555TIP3   OH237859   3.814   5.702   0.375 -0.6566  0.1128 -0.3159
 4555TIP3    H137860   3.769   5.652   0.443  0.6238 -1.9250 -0.8674
 4555TIP3    H237861   3.762   5.688   0.296 -2.2633  2.6515  0.1739
 4556TIP3   OH237862   1.412   0.523   0.352 -0.4689 -0.1236  0.2530
 4556TIP3    H137863   1.391   0.503   0.443  1.6519  1.6272  1.2348
 4556TIP3    H237864   1.506   0.508   0.345 -0.2371  1.5737 -1.0822
 4557TIP3   OH237865   0.746   5.110   7.947  0.2708  0.2041 -0.1218
 4557TIP3    H137866   0.811   5.174   7.918  0.5580  0.5600  1.2462
 4557TIP3    H237867   0.673   5.121   7.886  1.2142  0.2665 -1.2683
 4558TIP3   OH237868   2.007   0.404   8.980 -0.0799 -0.4159 -0.1655
 4558TIP3    H137869   1.932   0.461   8.998  0.1732 -0.5344  1.3998
 4558TIP3    H237870   2.082   0.448   9.021  0.1511 -1.7628  0.9391
 4559TIP3   OH237871   4.746   6.356   7.701 -0.1630 -0.5955  0.6654
 4559TIP3    H137872   4.714   6.271   7.730 -1.1415 -1.1707 -1.8560
 4559TIP3    H237873   4.818   6.336   7.642 -0.2391  0.3439  0.2301
 4560TIP3   OH237874   3.749   3.158   0.815  0.0126 -0.0467 -0.5529
 4560TIP3    H137875   3.770   3.217   0.743  1.7610 -0.7731 -0.6916
 4560TIP3    H237876   3.807   3.082   0.802 -1.7033 -1.5286 -0.0258
 4561TIP3   OH237877   7.430   3.890   9.296 -0.0259 -0.1221  0.0567
 4561TIP3    H137878   7.374   3.949   9.346  0.5459  1.0795 -0.6728
 4561TIP3    H237879   7.490   3.948   9.249  0.9586 -1.3199 -0.2138
 4562TIP3   OH237880   1.398   0.068   1.093  0.5900 -0.4715  0.1171
 4562TIP3    H137881   1.334   0.119   1.142  1.5437  0.1729  0.7221
 4562TIP3    H237882   1.481   0.115   1.106  0.9324 -0.4231 -1.8845
 4563TIP3   OH237883   4.152   4.848   0.034  0.3426 -0.0837 -0.8917
 4563TIP3    H137884   4.143   4.752   0.027  0.1319 -0.0616 -0.9415
 4563TIP3    H237885   4.128   4.881  -0.052  3.0734 -0.1405 -1.7680
 4564TIP3   OH237886   7.454   7.268   9.192  0.2073 -0.0030 -0.1535
 4564TIP3    H137887   7.545   7.246   9.171  0.7349  2.5434 -0.8879
 4564TIP3    H237888   7.430   7.336   9.129 -1.5311  0.7976  1.2672
 4565TIP3   OH237889   4.516   1.902   7.796 -0.6766  0.4963  0.2713
 4565TIP3    H137890   4.441   1.843   7.806 -1.3074  1.4546  1.4556
 4565TIP3    H237891   4.526   1.913   7.701 -1.9705  0.2707  0.0931
 4566TIP3   OH237892   3.881   6.705   1.400  0.0671  0.4487 -0.0607
 4566TIP3    H137893   3.787   6.719   1.393  0.1788  0.2734 -3.3585
 4566TIP3    H237894   3.890   6.611   1.417 -0.3730  0.1574 -1.3396
 4567TIP3   OH237895   6.144   1.119   2.605 -0.0436 -0.2872  0.5040
 4567TIP3    H137896   6.141   1.076   2.690  0.9272  0.8393  1.1203
 4567TIP3    H237897   6.134   1.047   2.542 -0.3074 -1.1843  1.5378
 4568TIP3   OH237898   6.450   3.548   1.090 -0.2415 -0.8319 -0.1141
 4568TIP3    H137899   6.462   3.474   1.032 -0.3638 -1.8020  1.0472
 4568TIP3    H237900   6.514   3.534   1.160 -0.6707 -0.1623  0.4277
 4569TIP3   OH237901   5.385   1.666   9.692 -0.4229  0.2281 -0.1887
 4569TIP3    H137902   5.349   1.582   9.721  1.0296 -1.0053 -1.7257
 4569TIP3    H237903   5.479   1.652   9.686 -0.3685  1.0373 -3.0906
 4570TIP3   OH237904   3.366   6.370   7.325 -0.7648  0.2579 -0.2923
 4570TIP3    H137905   3.458   6.392   7.307 -0.7129  0.1025 -0.2237
 4570TIP3    H237906   3.369   6.279   7.354 -0.9941  0.1228 -0.6929
 4571TIP3   OH237907   6.579   3.604   8.530  0.0505 -0.7939 -0.2295
 4571TIP3    H137908   6.507   3.618   8.469 -0.6787 -1.0345  0.5546
 4571TIP3    H237909   6.641   3.549   8.482 -0.5217 -1.0053 -0.7417
 4572TIP3   OH237910   1.525   3.539   8.369  0.2091 -0.2000 -0.1909
 4572TIP3    H137911   1.547   3.563   8.459  0.0177  1.3579 -0.5364
 4572TIP3    H237912   1.432   3.517   8.372  0.2919 -0.5238  0.0573
 4573TIP3   OH237913   3.455   3.514   7.791 -0.5439  0.8991 -0.1128
 4573TIP3    H137914   3.473   3.441   7.732  2.0495  0.2093  1.3805
 4573TIP3    H237915   3.536   3.565   7.793 -0.0665  0.2954  3.5448
 4574TIP3   OH237916   1.420   6.776   1.696  0.2032  0.4794 -0.1776
 4574TIP3    H137917   1.349   6.839   1.704  0.1181  0.3102  0.4377
 4574TIP3    H237918   1.459   6.771   1.783  1.4920  1.1608 -0.6940
 4575TIP3   OH237919   7.269   2.850   0.407 -0.0285 -0.7431 -0.2316
 4575TIP3    H137920   7.175   2.846   0.392 -0.2681 -0.7408  1.0860
 4575TIP3    H237921   7.279   2.832   0.501  1.1940  0.2184 -0.1435
 4576TIP3   OH237922   2.710   5.855   1.211 -0.6678  0.2500 -0.2149
 4576TIP3    H137923   2.775   5.901   1.263  0.6986 -2.2103  0.3929
 4576TIP3    H237924   2.629   5.860   1.262 -0.1377  0.5805  0.5906
 4577TIP3   OH237925   3.248   0.149   7.412 -0.2346  0.7909  0.1734
 4577TIP3    H137926   3.269   0.065   7.373  0.4115  1.9776 -2.2547
 4577TIP3    H237927   3.319   0.165   7.475  0.6237  0.3066 -0.6469
 4578TIP3   OH237928   0.387   1.544   1.211  0.4797  0.3848 -0.0701
 4578TIP3    H137929   0.328   1.489   1.159  0.1503 -0.2051  0.8946
 4578TIP3    H237930   0.408   1.490   1.288  1.4499  0.9925  0.1032
 4579TIP3   OH237931   3.575   3.930   0.656  0.5243 -0.0380  0.3404
 4579TIP3    H137932   3.547   3.983   0.581  2.5860 -0.6823 -0.9761
 4579TIP3    H237933   3.603   3.994   0.721  2.9258  0.6577 -1.1970
 4580TIP3   OH237934   6.606   4.155   7.637 -0.3720 -0.2216 -0.1392
 4580TIP3    H137935   6.528   4.210   7.631 -0.2055  0.1101  0.5117
 4580TIP3    H237936   6.661   4.182   7.564 -0.9237 -0.5526 -0.6791
 4581TIP3   OH237937   1.894   1.652   7.909  0.4269  0.0649  0.2054
 4581TIP3    H137938   1.814   1.624   7.865  1.2847  0.7170 -1.9366
 4581TIP3    H237939   1.914   1.581   7.970 -0.7073 -1.0507 -0.6643
 4582TIP3   OH237940   1.631   4.216   0.003  0.0014 -0.4081 -0.3756
 4582TIP3    H137941   1.670   4.204  -0.083  2.3094 -0.3220  0.6006
 4582TIP3    H237942   1.687   4.280   0.046 -0.5975 -1.0787  1.4829
 4583TIP3   OH237943   1.492   4.888   8.894 -0.3991  0.1721 -0.1706
 4583TIP3    H137944   1.431   4.908   8.965  1.2058  0.1434  1.2834
 4583TIP3    H237945   1.465   4.802   8.862 -0.2160 -0.5415  1.4921
 4584TIP3   OH237946   7.449   6.040   8.647  0.0862  0.4345 -0.1571
 4584TIP3    H137947   7.473   6.096   8.721 -0.2961 -0.6381  0.8148
 4584TIP3    H237948   7.385   6.092   8.598 -0.9668  0.5416  1.2351
 4585TIP3   OH237949   3.865   0.303   2.640  0.1577 -0.9055  0.2211
 4585TIP3    H137950   3.833   0.216   2.664  0.8829 -1.0952  0.5539
 4585TIP3    H237951   3.929   0.324   2.708  0.6813 -0.5216 -0.3776
 4586TIP3   OH237952   3.321   7.014   0.149  0.2566 -0.0967 -0.1727
 4586TIP3    H137953   3.301   6.980   0.236  4.2928 -0.1204  0.9454
 4586TIP3    H237954   3.308   6.939   0.091  0.1173 -0.8905  0.8484
 4587TIP3   OH237955   7.254   6.426   0.845 -0.1139 -0.2926  0.3801
 4587TIP3    H137956   7.270   6.490   0.915  0.5289  0.8146 -0.7258
 4587TIP3    H237957   7.326   6.364   0.853  2.1557  1.8702 -1.4622
 4588TIP3   OH237958   7.323   3.787   0.096  0.2146  0.5210  0.0701
 4588TIP3    H137959   7.302   3.752   0.010  0.8046  0.5899 -0.1102
 4588TIP3    H237960   7.252   3.848   0.116 -0.5931 -0.4366  0.1919
 4589TIP3   OH237961   3.693   1.635   2.366  0.0644 -0.6915  0.2122
 4589TIP3    H137962   3.715   1.728   2.366 -0.2487 -0.5967 -1.1478
 4589TIP3    H237963   3.754   1.596   2.429  0.1201  0.4384  0.8821
 4590TIP3   OH237964   6.663   6.663   8.029  0.1535 -0.0540 -0.1065
 4590TIP3    H137965   6.673   6.568   8.031 -1.0259 -0.1822  0.6964
 4590TIP3    H237966   6.736   6.693   7.975  1.1104 -1.3274  0.4115
 4591TIP3   OH237967   6.671   2.309   8.091  0.1894  0.2485 -0.3087
 4591TIP3    H137968   6.672   2.213   8.090  1.0817  0.2429 -0.1444
 4591TIP3    H237969   6.598   2.333   8.035 -1.7563 -0.5435  1.7500
 4592TIP3   OH237970   3.232   3.923   0.181 -0.7252  0.3473 -0.0515
 4592TIP3    H137971   3.145   3.910   0.142  0.0762  1.1640 -2.2951
 4592TIP3    H237972   3.261   4.008   0.146  0.6436  0.4697  1.3126
 4593TIP3   OH237973   0.172   1.941   9.396 -0.2028 -0.1136  0.1377
 4593TIP3    H137974   0.110   1.883   9.442  1.3496 -0.3293  2.1139
 4593TIP3    H237975   0.159   1.921   9.304 -0.1375 -3.2359  0.6933
 4594TIP3   OH237976   7.599   2.654   1.537  0.5239 -0.1956 -0.6733
 4594TIP3    H137977   7.507   2.644   1.561  0.2580  0.6279 -1.3101
 4594TIP3    H237978   7.603   2.631   1.444  0.3603  2.6762 -1.5036
 4595TIP3   OH237979   5.646   5.149   0.431  0.2429 -0.1818  0.0901
 4595TIP3    H137980   5.712   5.096   0.387 -0.2475  0.6132 -1.7353
 4595TIP3    H237981   5.694   5.223   0.467  0.3710  0.5730 -1.5267
 4596TIP3   OH237982   1.525   7.511   8.643  0.4025  0.1951 -0.1243
 4596TIP3    H137983   1.434   7.483   8.633  0.3348  0.5872 -0.6415
 4596TIP3    H237984   1.524   7.604   8.623  0.8057  0.3515  0.5526
 4597TIP3   OH237985   0.295   5.880   8.047  0.0655 -0.3849 -0.2830
 4597TIP3    H137986   0.220   5.920   8.003 -1.3322 -0.8380  1.5546
 4597TIP3    H237987   0.365   5.944   8.039 -0.6737  0.2902 -1.5707
 4598TIP3   OH237988   4.189   5.333   9.290 -0.5851 -0.1862  0.0391
 4598TIP3    H137989   4.102   5.360   9.262 -0.7111  0.3196  0.9057
 4598TIP3    H237990   4.248   5.369   9.223 -0.9792  0.0310 -0.1900
 4599TIP3   OH237991   1.613   2.416   7.633 -0.1817 -0.2287  0.3026
 4599TIP3    H137992   1.612   2.403   7.538 -0.1496  0.4799  0.2039
 4599TIP3    H237993   1.522   2.428   7.657 -0.2333 -0.8127  0.4275
 4600TIP3   OH237994   0.130   3.439   8.844 -0.2547  0.3507 -0.0899
 4600TIP3    H137995   0.076   3.437   8.765 -0.6433  1.0427  0.1522
 4600TIP3    H237996   0.087   3.502   8.901  0.5979  0.6271  0.2634
 4601TIP3   OH237997   2.584   5.087   7.644 -0.0969  0.1806 -0.4245
 4601TIP3    H137998   2.586   5.133   7.560  0.4236 -0.1126 -0.5766
 4601TIP3    H237999   2.494   5.058   7.654  0.2356 -1.4451 -1.7980
 4602TIP3   OH238000   6.233   6.383   2.023  0.2443 -0.4262  0.3713
 4602TIP3    H138001   6.229   6.355   2.115 -0.3900  0.3594  0.6018
 4602TIP3    H238002   6.230   6.478   2.027  0.8386 -0.3644 -0.4484
 4603TIP3   OH238003   2.148   3.384   8.518 -0.6336  0.0723 -0.2914
 4603TIP3    H138004   2.111   3.467   8.547 -0.5827 -0.0218  0.0402
 4603TIP3    H238005   2.094   3.359   8.443 -0.2242  0.7416 -0.8179
 4604TIP3   OH238006   5.220   1.179   0.551  0.4205 -0.1611  0.0552
 4604TIP3    H138007   5.237   1.196   0.458  2.4236  0.5763  0.5038
 4604TIP3    H238008   5.204   1.266   0.589 -0.1751 -0.4352  0.4508
 4605TIP3   OH238009   3.420   7.499   9.483  0.3971 -0.3010 -0.0168
 4605TIP3    H138010   3.373   7.500   9.566  2.0443  1.2035  0.9535
 4605TIP3    H238011   3.452   7.409   9.475 -1.4233 -0.9934 -0.0557
 4606TIP3   OH238012   1.179   1.408   2.385 -0.7265 -0.3387  0.3063
 4606TIP3    H138013   1.228   1.400   2.467 -0.6164  0.1510  0.2895
 4606TIP3    H238014   1.171   1.318   2.353  0.4917 -0.4038  0.1312
 4607TIP3   OH238015   2.102   5.005   9.736  0.2912  0.9863  0.1017
 4607TIP3    H138016   2.159   5.048   9.672  0.2643 -0.5441 -0.9816
 4607TIP3    H238017   2.156   4.936   9.774  0.6353  2.4584  2.5065
 4608TIP3   OH238018   4.936   6.627   0.552  0.0129 -0.2066 -0.2456
 4608TIP3    H138019   4.952   6.711   0.509 -1.3149 -0.9939 -2.4349
 4608TIP3    H238020   5.019   6.580   0.546  0.4056  0.4507 -0.1204
 4609TIP3   OH238021   0.861   2.050   0.294 -0.2294 -0.2294  0.1470
 4609TIP3    H138022   0.924   2.084   0.230  1.1736  1.4824  2.2732
 4609TIP3    H238023   0.801   2.123   0.308 -0.3728 -0.4985  0.9384
 4610TIP3   OH238024   7.527   5.346   9.110 -0.2851  0.2732 -0.6908
 4610TIP3    H138025   7.588   5.356   9.037 -1.3015  1.5659 -1.4001
 4610TIP3    H238026   7.443   5.377   9.075 -1.2309 -0.9173  0.4342
 4611TIP3   OH238027   1.903   6.813   9.936  0.0791  0.2443  0.1791
 4611TIP3    H138028   1.912   6.871   9.861  0.1512 -0.0213 -0.0178
 4611TIP3    H238029   1.957   6.854  10.004 -0.3006  0.6941  0.2169
 4612TIP3   OH238030   7.436   7.124   0.468  0.7118 -0.0408  0.0731
 4612TIP3    H138031   7.403   7.035   0.477  1.3244 -0.2529  0.2950
 4612TIP3    H238032   7.405   7.169   0.546 -0.1155  0.1114 -0.3377
 4613TIP3   OH238033   6.470   3.979   9.954 -0.7303 -0.3731 -0.7904
 4613TIP3    H138034   6.407   3.939   9.894  1.4339 -1.6325 -2.3687
 4613TIP3    H238035   6.548   3.995   9.900  1.3712 -1.6201  1.6317
 4614TIP3   OH238036   1.299   2.350   1.940  0.2646 -0.6959 -0.6036
 4614TIP3    H138037   1.369   2.414   1.934  0.0461 -0.4143 -0.1997
 4614TIP3    H238038   1.305   2.316   2.029 -0.7608  0.0881 -0.2122
 4615TIP3   OH238039   5.488   2.638   1.823 -0.3132 -0.4262 -0.6481
 4615TIP3    H138040   5.473   2.640   1.729 -0.3284  2.0672 -0.6513
 4615TIP3    H238041   5.583   2.641   1.832 -0.3341  0.8345 -0.6255
 4616TIP3   OH238042   2.592   0.785   0.133  0.5181 -0.0995  0.5395
 4616TIP3    H138043   2.551   0.867   0.160 -0.4196 -0.1155 -0.7339
 4616TIP3    H238044   2.522   0.720   0.140  1.3230 -0.8746  1.7914
 4617TIP3   OH238045   2.083   0.078   7.975 -0.8854 -0.1758 -0.6889
 4617TIP3    H138046   1.994   0.107   7.993 -0.7048 -0.3223  0.5755
 4617TIP3    H238047   2.085  -0.013   8.005 -0.5601 -0.4593 -1.5557
 4618TIP3   OH238048   4.432   0.817   0.896 -0.1329 -0.0816 -0.1275
 4618TIP3    H138049   4.371   0.826   0.970  0.3194  0.2518  0.2061
 4618TIP3    H238050   4.488   0.894   0.902 -1.6675  1.3477 -2.2909
 4619TIP3   OH238051   6.423   4.462   0.778 -0.0570 -0.2624 -0.6843
 4619TIP3    H138052   6.349   4.421   0.734 -0.8236  0.6337 -0.2781
 4619TIP3    H238053   6.471   4.507   0.709  0.6232 -1.5511 -1.0851
 4620TIP3   OH238054   2.670   5.088   0.028  0.1532 -0.4355 -0.1630
 4620TIP3    H138055   2.648   5.092   0.121 -0.8185 -0.5874 -0.3813
 4620TIP3    H238056   2.713   5.003   0.017 -3.0617 -2.1545 -0.5179
 4621TIP3   OH238057   1.560   6.075   9.489 -0.0278 -0.6698  0.1331
 4621TIP3    H138058   1.560   5.980   9.492 -0.4900 -0.6508  1.7628
 4621TIP3    H238059   1.468   6.100   9.490  0.0531 -0.1866 -1.3189
 4622TIP3   OH238060   0.136   2.372   0.671  0.3935 -0.1881  0.2415
 4622TIP3    H138061   0.133   2.456   0.624 -1.5211 -1.3458 -1.8990
 4622TIP3    H238062   0.078   2.385   0.746 -0.8159  0.1012 -0.7113
 4623TIP3   OH238063   0.668   1.426   8.207 -0.1344  0.2307 -0.1850
 4623TIP3    H138064   0.745   1.469   8.170 -0.3495 -0.3298 -1.3205
 4623TIP3    H238065   0.659   1.464   8.295  0.7900  1.0878 -0.4454
 4624TIP3   OH238066   1.244   3.515   8.396  0.0080  0.0185 -0.2151
 4624TIP3    H138067   1.203   3.581   8.339 -2.0160 -0.0882  1.0255
 4624TIP3    H238068   1.187   3.511   8.473  2.0675 -0.6261  1.3484
 4625TIP3   OH238069   6.270   2.781   0.485  0.4182 -0.1601 -0.3286
 4625TIP3    H138070   6.304   2.839   0.553 -0.6651 -1.8801  1.8541
 4625TIP3    H238071   6.194   2.827   0.450  1.1762  0.8993 -0.6015
 4626TIP3   OH238072   5.210   6.601   8.242 -0.4093 -0.7522  0.0345
 4626TIP3    H138073   5.201   6.525   8.299  0.0675 -0.7944  0.0544
 4626TIP3    H238074   5.291   6.643   8.270 -0.8365 -0.0409  0.2529
 4627TIP3   OH238075   1.765   2.298   0.816  0.4948 -0.0852  0.2124
 4627TIP3    H138076   1.850   2.342   0.806  0.5790  0.0295  1.3663
 4627TIP3    H238077   1.715   2.355   0.874  0.2250 -0.9671  0.8624
 4628TIP3   OH238078   5.739   1.430   9.102 -0.0900  0.0174  0.0992
 4628TIP3    H138079   5.823   1.403   9.139  0.2413  0.5872 -0.2267
 4628TIP3    H238080   5.699   1.482   9.172 -0.3082 -0.4883  0.3620
 4629TIP3   OH238081   7.489   5.803   1.683  0.0713 -0.2661  0.0645
 4629TIP3    H138082   7.570   5.766   1.648  0.0348 -0.9828  0.7230
 4629TIP3    H238083   7.518   5.861   1.754  0.0547  0.1031 -0.2270
 4630TIP3   OH238084   2.108   5.607   7.682  0.1032  0.1817 -0.3571
 4630TIP3    H138085   2.199   5.624   7.708  0.1693  1.0448 -1.1094
 4630TIP3    H238086   2.075   5.548   7.750  1.0591  0.2909  0.2304
 4631TIP3   OH238087   6.112   6.302   7.425  0.8036 -0.1388  0.1305
 4631TIP3    H138088   6.058   6.236   7.382  0.0861  1.5124 -1.6067
 4631TIP3    H238089   6.125   6.369   7.359  2.8608  0.7352  1.3315
 4632TIP3   OH238090   3.404   7.169   8.628  0.1111  0.0732  0.0193
 4632TIP3    H138091   3.312   7.197   8.628 -0.3240 -0.8735 -3.8429
 4632TIP3    H238092   3.410   7.108   8.702 -2.3618  0.1263  0.3649
 4633TIP3   OH238093   4.911   7.281   8.958  0.1385 -0.3792 -0.0119
 4633TIP3    H138094   4.970   7.339   9.005 -1.1219  0.6782  0.3258
 4633TIP3    H238095   4.914   7.198   9.006 -0.4458  0.4012  1.4125
 4634TIP3   OH238096   4.518   0.862   8.000 -0.7783  0.4301  0.1231
 4634TIP3    H138097   4.608   0.894   7.999 -0.7994  0.4863 -0.3681
 4634TIP3    H238098   4.507   0.822   8.087 -0.9308  2.1996  0.9515
 4635TIP3   OH238099   2.171   7.722   9.274 -0.1040  0.1585 -0.7578
 4635TIP3    H138100   2.080   7.696   9.286 -0.2345  1.3704  1.3057
 4635TIP3    H238101   2.167   7.815   9.254  0.6932  0.1770 -0.8670
 4636TIP3   OH238102   6.188   3.874   9.324 -0.3596  0.7260 -0.1234
 4636TIP3    H138103   6.215   3.865   9.415  0.7389  0.6767 -0.4438
 4636TIP3    H238104   6.098   3.840   9.322 -0.3865  0.7018  0.9236
 4637TIP3   OH238105   2.185   6.339   9.762 -0.5112 -0.3892 -0.2788
 4637TIP3    H138106   2.133   6.391   9.701 -0.5308  0.2185  0.2487
 4637TIP3    H238107   2.148   6.357   9.848 -0.8067 -1.6245 -0.1198
 4638TIP3   OH238108   2.450   3.890   7.485  0.1549  0.7151  0.6651
 4638TIP3    H138109   2.480   3.940   7.561 -0.2169  0.1847  1.1613
 4638TIP3    H238110   2.365   3.929   7.464  0.4489  1.1457  0.2504
 4639TIP3   OH238111   7.324   0.539   7.923  0.0695 -0.5923  0.0745
 4639TIP3    H138112   7.346   0.629   7.948  1.0069 -1.1413  1.3420
 4639TIP3    H238113   7.368   0.527   7.838 -2.2894  0.9649 -1.4845
 4640TIP3   OH238114   6.269   0.014   7.716 -0.2133 -0.2850 -0.5931
 4640TIP3    H138115   6.273   0.103   7.751 -0.5886 -0.4809 -0.0380
 4640TIP3    H238116   6.178   0.003   7.689  0.0214 -0.2119 -1.4556
 4641TIP3   OH238117   3.767   1.744   9.823  0.2188  0.0800 -0.5269
 4641TIP3    H138118   3.861   1.737   9.807  0.4326 -0.8071  0.9392
 4641TIP3    H238119   3.735   1.654   9.816 -0.7248  0.5085 -2.0533
 4642TIP3   OH238120   5.788   0.525   9.824  0.3248  0.1207  0.3380
 4642TIP3    H138121   5.824   0.447   9.782 -0.9188 -0.7454  0.8318
 4642TIP3    H238122   5.700   0.500   9.851 -0.0309  1.6404  0.6971
 4643TIP3   OH238123   0.619   4.921   2.347  0.1616  0.1520  0.0417
 4643TIP3    H138124   0.591   5.012   2.352  1.5719  0.6313 -0.2912
 4643TIP3    H238125   0.642   4.898   2.437  0.6657  0.4290 -0.0108
 4644TIP3   OH238126   2.439   4.930   0.969  0.5582  0.3690  0.6066
 4644TIP3    H138127   2.525   4.960   0.939  0.4511 -0.0729 -0.1653
 4644TIP3    H238128   2.420   4.854   0.915 -0.9591  1.2942 -0.2393
 4645TIP3   OH238129   4.633   6.141   0.214  0.4545 -0.3743 -0.0044
 4645TIP3    H138130   4.628   6.139   0.118 -0.5580 -1.5827  0.0375
 4645TIP3    H238131   4.555   6.093   0.242 -0.0469  1.2030  1.4627
 4646TIP3   OH238132   7.205   0.972   0.489 -0.0221  0.3797  0.0779
 4646TIP3    H138133   7.211   1.058   0.531 -0.6972  0.0986  0.7592
 4646TIP3    H238134   7.205   0.910   0.561 -0.8102 -0.1305 -0.3511
 4647TIP3   OH238135   3.620   3.921   8.127 -0.0037  0.1617 -0.1583
 4647TIP3    H138136   3.646   3.996   8.181 -0.5988 -0.3744  0.9236
 4647TIP3    H238137   3.647   3.944   8.039  1.5472  0.8391  0.4539
 4648TIP3   OH238138   4.101   6.139   8.704  0.2311  0.0910  0.3885
 4648TIP3    H138139   4.176   6.195   8.725  0.2905  0.4763 -0.7583
 4648TIP3    H238140   4.058   6.124   8.788  2.5340 -1.5379  1.3788
 4649TIP3   OH238141   6.001   7.268   8.520 -0.0314  0.0334 -0.2701
 4649TIP3    H138142   6.043   7.182   8.512 -0.3288 -0.2134  0.7126
 4649TIP3    H238143   5.927   7.253   8.579 -1.8855  0.3447 -2.3936
 4650TIP3   OH238144   3.808   0.588   2.267 -0.9092  0.0291 -0.3984
 4650TIP3    H138145   3.830   0.567   2.358 -2.4401 -0.5469 -0.1248
 4650TIP3    H238146   3.807   0.684   2.264  1.0637  0.1051 -0.3398
 4651TIP3   OH238147   3.125   7.154   8.554  0.5067 -0.2089 -1.2727
 4651TIP3    H138148   3.073   7.097   8.610  1.3380  1.4418  1.4091
 4651TIP3    H238149   3.061   7.199   8.499 -1.1379  1.9561  2.1029
 4652TIP3   OH238150   1.217   2.999   0.409  0.4388 -0.3734  0.3570
 4652TIP3    H138151   1.250   3.015   0.320 -1.4297 -1.1759 -0.5405
 4652TIP3    H238152   1.270   2.926   0.441  0.6894 -0.5163 -0.3553
 4653TIP3   OH238153   4.573   2.577   9.952 -0.0521 -0.0040 -0.4708
 4653TIP3    H138154   4.573   2.635   9.876  0.0046 -0.0655 -0.5169
 4653TIP3    H238155   4.570   2.637  10.027  1.9503  0.1367 -0.4584
 4654TIP3   OH238156   4.910   1.356   8.553  0.4435  0.6196  0.1351
 4654TIP3    H138157   4.872   1.382   8.470  1.2307  0.1769 -0.3731
 4654TIP3    H238158   4.912   1.261   8.551  2.1725  0.6345 -0.1513
 4655TIP3   OH238159   0.533   0.175   1.705 -0.0690  0.5783 -0.2007
 4655TIP3    H138160   0.470   0.110   1.675  0.5661 -0.4630  0.6245
 4655TIP3    H238161   0.606   0.167   1.644  0.5891 -0.4861  0.6838
 4656TIP3   OH238162   7.076   3.023   7.299  0.3394 -0.2500  0.1310
 4656TIP3    H138163   6.982   3.009   7.307  0.6407 -1.7368  2.1182
 4656TIP3    H238164   7.089   3.059   7.211 -1.9601 -1.0267 -0.5818
 4657TIP3   OH238165   2.588   7.187   8.628 -0.5991  0.2044  0.3397
 4657TIP3    H138166   2.630   7.179   8.543 -1.0044 -0.7600  0.2130
 4657TIP3    H238167   2.660   7.198   8.690 -0.2795  0.5441 -0.0899
 4658TIP3   OH238168   5.837   1.203   8.836  0.2791  0.1110 -0.0909
 4658TIP3    H138169   5.792   1.283   8.810 -0.3909 -0.2515 -0.0708
 4658TIP3    H238170   5.832   1.203   8.932  0.4430  0.1373 -0.0821
 4659TIP3   OH238171   4.367   1.309   1.685 -0.4086  0.3892  0.2098
 4659TIP3    H138172   4.401   1.249   1.618 -2.3056  0.4154 -0.8453
 4659TIP3    H238173   4.361   1.393   1.641 -0.1723  0.7812  0.9108
 4660TIP3   OH238174   4.133   6.309   6.733  0.2740 -0.2603 -0.1492
 4660TIP3    H138175   4.063   6.245   6.721 -0.3120  0.2137  0.6940
 4660TIP3    H238176   4.089   6.390   6.758  1.0582  0.2970 -0.4947
 4661TIP3   OH238177   3.471   5.896   8.838  0.7079  0.5599 -0.1336
 4661TIP3    H138178   3.410   5.932   8.774  0.6751  0.5343 -0.1166
 4661TIP3    H238179   3.547   5.954   8.834  1.0565  0.0774 -0.7978
 4662TIP3   OH238180   0.316   4.370   0.258 -0.1228  0.0433  0.7884
 4662TIP3    H138181   0.343   4.294   0.206 -1.8020 -0.2954  0.3257
 4662TIP3    H238182   0.356   4.356   0.344 -0.4267 -1.3936  0.7215
 4663TIP3   OH238183   6.350   1.839   2.045  0.5825  0.3511 -0.1375
 4663TIP3    H138184   6.279   1.844   1.981 -0.1232 -3.1158  0.1589
 4663TIP3    H238185   6.419   1.790   2.000  0.2776 -1.6903  1.4670
 4664TIP3   OH238186   7.697   7.387   8.943  0.1878  0.4265  0.6737
 4664TIP3    H138187   7.689   7.296   8.972  0.6621  0.2825  0.3586
 4664TIP3    H238188   7.788   7.395   8.914  0.2231  1.0773  0.9610
 4665TIP3   OH238189   2.757   1.250   0.968  0.1110 -0.0880  0.3594
 4665TIP3    H138190   2.743   1.166   1.013  1.5523 -0.0972  0.8536
 4665TIP3    H238191   2.671   1.275   0.936 -0.1049 -2.5939 -1.2616
 4666TIP3   OH238192   0.787   0.142   8.311 -0.0184 -0.0680 -0.2820
 4666TIP3    H138193   0.854   0.188   8.361 -0.6726 -0.5700  1.1083
 4666TIP3    H238194   0.825   0.057   8.292 -0.7702 -1.0000  1.9429
 4667TIP3   OH238195   2.840   0.938   6.778 -0.9208 -0.6185 -0.6632
 4667TIP3    H138196   2.746   0.923   6.783 -1.0084 -0.1931 -0.9828
 4667TIP3    H238197   2.875   0.855   6.744 -1.1127 -0.9688 -0.0098
 4668TIP3   OH238198   1.056   7.082  10.014 -0.4397  0.0231  0.8064
 4668TIP3    H138199   1.083   6.991  10.028  2.3951  0.3752 -1.3534
 4668TIP3    H238200   1.123   7.133  10.060 -0.1301  0.9703 -0.6385
 4669TIP3   OH238201   3.293   3.802   8.620  0.0267 -0.3444  0.0830
 4669TIP3    H138202   3.229   3.767   8.681 -0.7715 -0.9345 -1.0701
 4669TIP3    H238203   3.349   3.728   8.598 -0.7365 -0.5620 -1.1933
 4670TIP3   OH238204   4.161   5.796   9.871  0.2253 -0.0354  0.2635
 4670TIP3    H138205   4.218   5.804   9.948  1.3057 -2.5398 -0.1720
 4670TIP3    H238206   4.151   5.886   9.840  1.0942  0.8650  2.3702
 4671TIP3   OH238207   5.651   0.717   9.256 -0.4211  0.0391 -0.4131
 4671TIP3    H138208   5.680   0.807   9.246 -1.3516  0.4452  0.4022
 4671TIP3    H238209   5.556   0.721   9.252 -0.4677 -1.2874 -3.3107
 4672TIP3   OH238210   2.993   6.183   7.238 -0.0151 -0.3116  0.1261
 4672TIP3    H138211   3.021   6.268   7.204  1.4100 -1.0658 -0.6677
 4672TIP3    H238212   3.017   6.186   7.331  1.3376 -0.3593 -0.2048
 4673TIP3   OH238213   2.657   1.925   9.676 -0.2138  0.1333 -0.0995
 4673TIP3    H138214   2.599   1.880   9.613 -0.0284 -1.2947  0.6952
 4673TIP3    H238215   2.693   1.999   9.627 -2.1966  0.6823 -0.8217
 4674TIP3   OH238216   0.910   4.074   2.205  0.1223  0.1353  0.1999
 4674TIP3    H138217   0.945   4.037   2.124 -0.3477 -0.3243  0.1993
 4674TIP3    H238218   0.878   3.998   2.254 -2.1875  0.6180 -0.4376
 4675TIP3   OH238219   0.650   0.258   1.060  0.4135  0.2869 -0.1365
 4675TIP3    H138220   0.706   0.183   1.039  0.3456 -0.3579  1.8161
 4675TIP3    H238221   0.568   0.240   1.015  0.4438 -0.7614  0.1918
 4676TIP3   OH238222   3.459   6.776   9.572 -0.6315 -0.3465  0.7365
 4676TIP3    H138223   3.481   6.782   9.479 -0.2083  0.3782  0.8761
 4676TIP3    H238224   3.392   6.844   9.585 -0.8283 -0.5748  0.9257
 4677TIP3   OH238225   1.018   0.707   0.951  0.1042  0.4119  0.1673
 4677TIP3    H138226   1.111   0.723   0.967  0.3142 -1.2396  0.7536
 4677TIP3    H238227   0.975   0.725   1.035 -0.0571  0.7480  0.0159
 4678TIP3   OH238228   0.612   6.076   0.589  0.3057 -0.0880 -0.3650
 4678TIP3    H138229   0.566   6.150   0.551  0.7374  0.5973  0.4126
 4678TIP3    H238230   0.705   6.096   0.576  0.4398 -0.2081  0.3353
 4679TIP3   OH238231   1.244   3.887   8.469  0.4678  0.2607  0.1272
 4679TIP3    H138232   1.227   3.833   8.547  0.8222 -0.3089 -0.1857
 4679TIP3    H238233   1.309   3.951   8.498 -0.4720  0.9821  0.6951
 4680TIP3   OH238234   1.765   4.327   9.514  0.2465 -0.0630  0.4316
 4680TIP3    H138235   1.808   4.255   9.466  0.1611  0.2168 -0.0769
 4680TIP3    H238236   1.672   4.317   9.494  0.3168  0.7083 -0.3864
 4681TIP3   OH238237   4.664   6.610   0.281  0.2512 -0.0791  0.0397
 4681TIP3    H138238   4.664   6.522   0.319 -0.6529 -0.5378 -0.9593
 4681TIP3    H238239   4.575   6.641   0.295 -0.2696 -0.4514 -2.0407
 4682TIP3   OH238240   2.327   6.488   7.863  0.0925 -0.2430 -0.1635
 4682TIP3    H138241   2.344   6.402   7.824 -0.0836 -0.4292  0.1630
 4682TIP3    H238242   2.408   6.509   7.910  0.5525  0.2824 -1.1611
 4683TIP3   OH238243   1.528   0.919   0.917 -0.3962 -0.5100 -0.0414
 4683TIP3    H138244   1.600   0.980   0.900  0.1936 -0.9815  0.7221
 4683TIP3    H238245   1.449   0.969   0.896  0.1268  0.1685 -0.4301
 4684TIP3   OH238246   1.707   7.599   8.184 -0.0435 -0.5153  0.4808
 4684TIP3    H138247   1.702   7.582   8.278 -0.4409  1.7829  0.9525
 4684TIP3    H238248   1.616   7.605   8.156  0.0412  0.4706  0.3466
 4685TIP3   OH238249   2.557   6.753   8.597  0.4952  0.3989 -0.2884
 4685TIP3    H138250   2.557   6.713   8.510  0.7678 -0.9198  0.2945
 4685TIP3    H238251   2.625   6.706   8.646  1.7112  2.4153  0.0877
 4686TIP3   OH238252   4.980   3.674   9.382 -0.2970  0.1751  0.5112
 4686TIP3    H138253   5.035   3.597   9.366  0.1538  0.7615 -0.9255
 4686TIP3    H238254   4.902   3.659   9.329  0.6503  1.5736 -1.3691
 4687TIP3   OH238255   6.793   5.393   0.732  0.2248  0.5064  0.0665
 4687TIP3    H138256   6.875   5.429   0.698  0.0367  1.0220  0.1527
 4687TIP3    H238257   6.808   5.387   0.827  0.3495  0.1113  0.0227
 4688TIP3   OH238258   4.530   4.399   9.032 -0.2128  0.0478 -0.1603
 4688TIP3    H138259   4.576   4.365   9.109  0.6081 -1.0768 -1.1103
 4688TIP3    H238260   4.547   4.493   9.033  0.3896 -0.0627  0.6422
 4689TIP3   OH238261   1.027   7.031   9.241 -0.1045 -0.2325  0.1269
 4689TIP3    H138262   1.086   7.091   9.286 -0.8756  0.7002 -0.0855
 4689TIP3    H238263   0.977   6.989   9.311  1.4725 -1.8109  0.3958
 4690TIP3   OH238264   1.715   6.650   9.815 -0.2864  0.2040 -0.3833
 4690TIP3    H138265   1.760   6.710   9.875  0.8606 -0.5523 -0.4513
 4690TIP3    H238266   1.676   6.584   9.873 -1.3776  0.8717 -0.3222
 4691TIP3   OH238267   1.503   0.456   7.840  0.7016 -0.5919  0.2469
 4691TIP3    H138268   1.410   0.471   7.856  0.2947 -1.3240 -1.2865
 4691TIP3    H238269   1.532   0.402   7.914 -0.4508 -1.6255 -0.0237
 4692TIP3   OH238270   6.297   5.765   1.181  0.2658 -0.3424 -0.3377
 4692TIP3    H138271   6.299   5.677   1.218  1.7043 -0.5060 -0.7456
 4692TIP3    H238272   6.342   5.819   1.246  0.4396 -0.1378 -0.6288
 4693TIP3   OH238273   0.804   0.024   0.668  0.8166  0.0645 -0.1444
 4693TIP3    H138274   0.891  -0.007   0.642  0.9333  0.8037 -0.6765
 4693TIP3    H238275   0.802   0.013   0.763  1.7063  0.5370 -0.0595
 4694TIP3   OH238276   6.289   0.815   1.891  0.4211 -0.3082  0.4968
 4694TIP3    H138277   6.318   0.906   1.896  0.7487 -0.3467 -0.4503
 4694TIP3    H238278   6.311   0.788   1.802  1.7844 -1.7983  1.2290
 4695TIP3   OH238279   4.270   0.293   0.837  0.0877  0.0687  0.0014
 4695TIP3    H138280   4.218   0.371   0.856  0.3100  0.6389 -1.6194
 4695TIP3    H238281   4.357   0.313   0.872 -0.6636 -0.8836  2.7123
 4696TIP3   OH238282   1.004   3.344   0.206 -0.3520 -0.4959 -0.0758
 4696TIP3    H138283   0.913   3.373   0.195 -0.7837 -1.6506  0.2313
 4696TIP3    H238284   1.047   3.367   0.124 -1.5065 -1.9180 -1.1352
 4697TIP3   OH238285   5.634   5.696   7.253  0.3549  0.3374  0.5603
 4697TIP3    H138286   5.577   5.772   7.266  1.9733  2.0590 -1.5059
 4697TIP3    H238287   5.664   5.705   7.163  3.4091 -0.7706  1.3607
 4698TIP3   OH238288   0.053   6.362   0.812  0.5224  0.1043 -0.8089
 4698TIP3    H138289   0.043   6.369   0.717  4.5647  0.1708 -1.4081
 4698TIP3    H238290   0.057   6.453   0.843  0.9616  0.1132 -0.8778
 4699TIP3   OH238291   7.323   3.239   2.905  0.6514 -0.4694 -0.5079
 4699TIP3    H138292   7.317   3.173   2.974  0.9938  1.1377  1.1403
 4699TIP3    H238293   7.404   3.286   2.923  0.6545  0.1258 -1.9076
 4700TIP3   OH238294   0.499   4.660   9.612 -0.3759  0.1937 -0.6569
 4700TIP3    H138295   0.499   4.689   9.520 -1.3493 -1.2754 -1.1489
 4700TIP3    H238296   0.559   4.585   9.614  0.4155  0.8190  0.1436
 4701TIP3   OH238297   1.928   5.523   1.060 -0.2794  0.1085 -0.4725
 4701TIP3    H138298   1.892   5.479   0.983 -1.8601 -1.2910  0.9598
 4701TIP3    H238299   1.863   5.507   1.129  2.6365 -1.8035  2.1135
 4702TIP3   OH238300   0.810   3.165   9.526  0.3883  0.4827  0.3923
 4702TIP3    H138301   0.799   3.220   9.604 -0.2789  0.4731  0.3181
 4702TIP3    H238302   0.734   3.186   9.472 -0.4631 -1.2674  0.8293
 4703TIP3   OH238303   3.055   0.242   0.467  0.3410 -0.3758  0.0501
 4703TIP3    H138304   2.980   0.274   0.518  0.8232  1.6360 -0.4406
 4703TIP3    H238305   3.068   0.307   0.399  1.4950 -1.5731 -0.9333
 4704TIP3   OH238306   2.207   2.298   8.645 -0.0463  0.0318  0.0461
 4704TIP3    H138307   2.266   2.229   8.674  0.8540  0.9271  0.3926
 4704TIP3    H238308   2.230   2.374   8.699 -1.2775  0.5042 -0.0529
 4705TIP3   OH238309   3.175   4.614   0.471  0.3838  0.2719 -0.7012
 4705TIP3    H138310   3.218   4.539   0.513 -0.0585  0.8634  0.8603
 4705TIP3    H238311   3.096   4.629   0.523  0.0669  1.3519 -1.4647
 4706TIP3   OH238312   6.302   3.033   6.838 -0.1413 -0.2482  0.2041
 4706TIP3    H138313   6.396   3.043   6.854 -0.2436 -0.8621  1.2848
 4706TIP3    H238314   6.289   2.938   6.834 -0.8554 -0.1908  0.9960
 4707TIP3   OH238315   3.692   7.041   8.036  0.7864  0.0371 -0.1668
 4707TIP3    H138316   3.665   7.120   8.082  1.0125 -0.7631  1.3918
 4707TIP3    H238317   3.613   6.986   8.035  0.8819 -0.0979 -0.4430
 4708TIP3   OH238318   3.036   4.444   0.725 -0.0747  0.3320  0.2104
 4708TIP3    H138319   2.949   4.424   0.689 -0.2358 -0.7155  1.1031
 4708TIP3    H238320   3.083   4.361   0.719  1.7435  1.4354 -2.4806
 4709TIP3   OH238321   4.201   2.249   1.892 -0.2393 -0.0993  0.4135
 4709TIP3    H138322   4.163   2.320   1.943  1.1842  0.6227  0.4911
 4709TIP3    H238323   4.237   2.189   1.957  2.0237  1.0688  0.3141
 4710TIP3   OH238324   2.376   0.188   7.420  0.2819 -0.0895 -0.4671
 4710TIP3    H138325   2.324   0.115   7.388 -0.0741  0.8463 -2.1589
 4710TIP3    H238326   2.312   0.257   7.439  0.7320  0.4344 -0.7836
 4711TIP3   OH238327   0.778   5.220   0.686 -0.5137  0.0397 -0.0110
 4711TIP3    H138328   0.854   5.214   0.745 -2.1984 -0.9391  2.1828
 4711TIP3    H238329   0.737   5.303   0.710 -0.0800  0.6615 -1.3322
 4712TIP3   OH238330   3.765   0.605   8.116  0.4171  0.0783 -0.3831
 4712TIP3    H138331   3.835   0.612   8.180  0.6105 -0.2005 -0.5628
 4712TIP3    H238332   3.803   0.554   8.044 -0.1024 -0.4433 -0.2955
 4713TIP3   OH238333   0.391   5.268   0.721 -0.2929 -0.4263 -0.1235
 4713TIP3    H138334   0.354   5.352   0.694  1.1225  0.2761  0.0904
 4713TIP3    H238335   0.396   5.218   0.639  0.8953  0.5009 -0.6372
 4714TIP3   OH238336   1.861   4.626   9.286  0.2616  0.3138 -0.0579
 4714TIP3    H138337   1.789   4.604   9.227  0.7071 -0.5035 -0.3067
 4714TIP3    H238338   1.820   4.633   9.372  0.0649 -1.4150  0.0203
 4715TIP3   OH238339   0.936   2.978   0.799  1.2383 -0.3517 -0.1571
 4715TIP3    H138340   0.896   3.024   0.725  1.2474 -0.7806 -0.4320
 4715TIP3    H238341   0.898   2.890   0.795  0.7199 -0.1817  0.7540
 4716TIP3   OH238342   1.032   3.975   6.594 -0.2663 -0.0333 -0.1803
 4716TIP3    H138343   1.021   4.068   6.616 -1.9903 -0.3705  0.5601
 4716TIP3    H238344   1.088   3.941   6.663  1.0974  0.5985 -0.9265
 4717TIP3   OH238345   1.721   1.109   6.915 -0.3390 -0.4543 -0.2255
 4717TIP3    H138346   1.802   1.086   6.961 -0.7702 -0.8757  0.3362
 4717TIP3    H238347   1.702   1.199   6.944 -0.0760 -0.3551 -0.3570
 4718TIP3   OH238348   5.200   5.772   0.083 -0.0122 -0.3165  0.5685
 4718TIP3    H138349   5.166   5.684   0.101 -0.9593  0.1055  0.8959
 4718TIP3    H238350   5.238   5.801   0.165 -0.8875  0.0905  0.8429
 4719TIP3   OH238351   4.706   1.636   2.293 -0.4197  0.6471 -0.2690
 4719TIP3    H138352   4.641   1.605   2.230 -0.4224  0.9157 -0.4001
 4719TIP3    H238353   4.710   1.567   2.359  1.0608 -0.5969 -1.5802
 4720TIP3   OH238354   0.497   2.057   2.564  0.1781 -0.2393  0.1733
 4720TIP3    H138355   0.553   1.981   2.580 -1.7281 -1.8615 -0.5421
 4720TIP3    H238356   0.457   2.041   2.479 -2.1178  0.3639  1.0801
 4721TIP3   OH238357   4.339   1.586   8.955  0.0143 -0.0084 -0.9023
 4721TIP3    H138358   4.427   1.615   8.981  0.7383 -0.6003 -2.4952
 4721TIP3    H238359   4.309   1.532   9.028  1.3732 -0.5406 -0.6926
 4722TIP3   OH238360   0.217   3.036   8.804 -0.2586  0.8288 -0.0656
 4722TIP3    H138361   0.189   3.123   8.777 -0.7173  0.2048 -1.7539
 4722TIP3    H238362   0.310   3.033   8.783 -0.2873  0.8621 -0.2010
 4723TIP3   OH238363   7.170   6.020   1.911 -0.1820 -0.1075  0.0177
 4723TIP3    H138364   7.144   5.949   1.853 -0.2803 -0.3282  0.3252
 4723TIP3    H238365   7.230   6.074   1.859  0.4241 -0.7870 -0.0021
 4724TIP3   OH238366   0.054   3.439   2.180 -0.1900 -0.0789 -0.4901
 4724TIP3    H138367  -0.009   3.505   2.208  0.3298  0.1541  0.1376
 4724TIP3    H238368   0.050   3.441   2.084 -0.9178  0.1399 -0.4602
 4725TIP3   OH238369   6.068   5.711   8.136  0.3282  0.1336  0.3417
 4725TIP3    H138370   6.076   5.795   8.182  0.9668 -0.8518  2.1258
 4725TIP3    H238371   6.157   5.678   8.130  0.1204 -0.2951 -0.6231
 4726TIP3   OH238372   0.445   4.688   8.066  0.1443  0.3411 -0.0157
 4726TIP3    H138373   0.457   4.596   8.044  0.1192  0.5410 -0.9455
 4726TIP3    H238374   0.507   4.705   8.136 -0.0004 -0.4304  0.3073
 4727TIP3   OH238375   1.275   0.017   9.332  0.0581  0.1063 -0.4185
 4727TIP3    H138376   1.194   0.066   9.346  0.2738  0.2367  0.4762
 4727TIP3    H238377   1.323   0.027   9.415  0.2134 -1.4327 -0.3053
 4728TIP3   OH238378   6.051   6.538   8.875  0.7940 -0.5265 -0.5669
 4728TIP3    H138379   6.130   6.495   8.841  1.0892 -1.5186  1.2283
 4728TIP3    H238380   6.083   6.620   8.914  0.6524 -0.0362 -1.4679
 4729TIP3   OH238381   0.555   3.013   7.968 -0.4275  0.1534  0.4127
 4729TIP3    H138382   0.579   3.105   7.978  0.6594 -0.2225  1.4911
 4729TIP3    H238383   0.547   2.980   8.057 -0.2148 -0.9369  0.0486
 4730TIP3   OH238384   3.861   2.939   0.353  0.4044 -0.0074  0.1907
 4730TIP3    H138385   3.950   2.917   0.327  0.0981 -0.5788 -0.3888
 4730TIP3    H238386   3.839   2.874   0.420  0.9837  1.1115  1.5322
 4731TIP3   OH238387   2.017   5.403   1.293 -0.1919 -0.0754 -0.9286
 4731TIP3    H138388   2.017   5.439   1.204 -2.7628  0.7840 -0.6566
 4731TIP3    H238389   1.992   5.477   1.348  3.3955  0.0125  0.8990
 4732TIP3   OH238390   1.655   0.074   9.306  0.6235 -0.6678 -0.5355
 4732TIP3    H138391   1.656  -0.000   9.367 -0.5836  0.4267  0.8803
 4732TIP3    H238392   1.593   0.048   9.238 -1.6843 -0.0513  1.2300
 4733TIP3   OH238393   1.526   6.257   1.784  0.2613  0.1805 -0.2650
 4733TIP3    H138394   1.492   6.274   1.872  1.8192 -0.9910  0.6406
 4733TIP3    H238395   1.450   6.262   1.727 -1.1259 -0.6712  1.3859
 4734TIP3   OH238396   7.287   7.585   2.605  0.0108  0.4729  0.1641
 4734TIP3    H138397   7.369   7.594   2.556  0.2778  2.1255  0.8434
 4734TIP3    H238398   7.252   7.674   2.611 -2.1749 -0.2443 -0.6221
 4735TIP3   OH238399   4.484   4.068   9.763  0.0611 -0.2381 -0.3174
 4735TIP3    H138400   4.452   4.126   9.832  0.8202 -0.4854  0.2585
 4735TIP3    H238401   4.405   4.042   9.716 -0.4936 -0.1738  0.5430
 4736TIP3   OH238402   0.931   0.495   0.282 -0.4156  0.5486 -0.1481
 4736TIP3    H138403   0.862   0.432   0.264  1.4272 -0.8860 -3.1426
 4736TIP3    H238404   0.915   0.567   0.220  1.3000 -0.3605 -1.7483
 4737TIP3   OH238405   3.881   3.974   9.611 -0.3941 -0.1934  0.4170
 4737TIP3    H138406   3.908   4.017   9.530 -0.0542 -1.8693 -0.3929
 4737TIP3    H238407   3.801   4.019   9.637  0.1992  1.2318 -0.1168
 4738TIP3   OH238408   4.209   7.207   9.982 -0.2846  0.1766  0.0284
 4738TIP3    H138409   4.161   7.127   9.960 -1.3303  0.4567  1.1225
 4738TIP3    H238410   4.255   7.231   9.902  0.1406 -1.5670 -0.2937
 4739TIP3   OH238411   1.981   6.808   1.415 -0.2571 -0.0492  0.1231
 4739TIP3    H138412   2.056   6.843   1.462  0.0406  0.1936 -0.5185
 4739TIP3    H238413   1.906   6.858   1.449 -0.2787 -0.9474  1.4508
 4740TIP3   OH238414   5.613   0.475   0.162  0.0326 -0.3694 -0.0824
 4740TIP3    H138415   5.559   0.417   0.108 -1.0738  0.1458  0.4383
 4740TIP3    H238416   5.573   0.473   0.248  0.3420  0.6740  0.1115
 4741TIP3   OH238417   2.867   0.825   9.359  0.2585  0.1641  0.2211
 4741TIP3    H138418   2.907   0.758   9.414  0.6019 -2.0113 -2.4950
 4741TIP3    H238419   2.942   0.874   9.324  0.1104  0.6451  0.5626
 4742TIP3   OH238420   3.303   4.833   9.071 -0.4465 -0.3819 -0.4289
 4742TIP3    H138421   3.260   4.892   9.132 -2.0112 -0.6379 -1.2313
 4742TIP3    H238422   3.275   4.863   8.984  1.6422 -0.0900 -1.0561
 4743TIP3   OH238423   4.946   3.032   8.203  0.7785  0.1771 -0.8722
 4743TIP3    H138424   4.988   3.042   8.117  2.6680  0.3629  0.0232
 4743TIP3    H238425   4.995   3.091   8.260 -0.2518 -0.1698  0.4075
 4744TIP3   OH238426   2.692   3.945   0.250  0.2683  0.0985  0.0955
 4744TIP3    H138427   2.682   3.928   0.344 -0.5677 -1.4477 -0.2272
 4744TIP3    H238428   2.603   3.942   0.216  0.6151 -0.0042 -0.8314
 4745TIP3   OH238429   2.475   2.473   8.170 -0.0641  0.4770 -0.2584
 4745TIP3    H138430   2.557   2.523   8.163  1.8651 -2.6793 -3.0409
 4745TIP3    H238431   2.451   2.480   8.263  1.6110  3.9728  0.0733
 4746TIP3   OH238432   1.155   3.560   2.839 -0.6025 -0.1884 -0.4453
 4746TIP3    H138433   1.235   3.508   2.847 -0.2636  0.4149  0.1830
 4746TIP3    H238434   1.174   3.641   2.886 -0.8507  0.8523 -2.0596
 4747TIP3   OH238435   2.290   6.986   9.986  0.8442 -0.0671  0.3841
 4747TIP3    H138436   2.285   7.075   9.952 -0.7541 -0.7250 -1.2611
 4747TIP3    H238437   2.223   6.982  10.054  0.6252 -0.1325  0.1645
 4748TIP3   OH238438   6.098   0.655   2.186  0.1830  0.0823  0.6249
 4748TIP3    H138439   6.128   0.593   2.121  0.7290  0.7151  0.2599
 4748TIP3    H238440   6.172   0.663   2.247  1.9229  3.4704 -1.5752
 4749TIP3   OH238441   3.789   6.049   6.947 -0.3936  0.1962  0.0004
 4749TIP3    H138442   3.701   6.087   6.952 -0.3108  0.2743  1.4663
 4749TIP3    H238443   3.775   5.955   6.943 -0.5653  0.2718 -1.9613
 4750TIP3   OH238444   0.150   6.716   9.878  0.0993  0.1183  0.3407
 4750TIP3    H138445   0.193   6.800   9.892 -1.4629  0.7882  1.5038
 4750TIP3    H238446   0.089   6.731   9.806  0.4515 -0.2896 -0.0522
 4751TIP3   OH238447   3.450   1.189   7.678 -0.1375  0.1898 -0.0807
 4751TIP3    H138448   3.447   1.279   7.643  1.4055  0.3353  0.0798
 4751TIP3    H238449   3.518   1.146   7.626 -1.7939 -1.3332 -1.0875
 4752TIP3   OH238450   5.470   6.852   1.175 -0.1775 -0.4214  0.2972
 4752TIP3    H138451   5.392   6.905   1.163  0.4738  0.7443  1.0108
 4752TIP3    H238452   5.500   6.872   1.264  0.3414 -1.6595  0.4307
 4753TIP3   OH238453   2.989   2.960   8.560 -0.5654 -0.2929 -0.2130
 4753TIP3    H138454   3.051   2.888   8.544 -0.9660 -1.8683  3.9854
 4753TIP3    H238455   2.908   2.916   8.586 -1.4864  1.7270  0.5378
 4754TIP3   OH238456   0.187   3.282   2.361 -0.0494 -0.2302 -0.3864
 4754TIP3    H138457   0.127   3.320   2.297 -1.4747  0.6873  1.3873
 4754TIP3    H238458   0.255   3.349   2.372  0.4148 -0.5577 -1.1950
 4755TIP3   OH238459   5.870   4.048   7.051 -0.2175 -0.0059 -0.0015
 4755TIP3    H138460   5.917   4.048   6.968 -0.0685 -0.8668  0.0782
 4755TIP3    H238461   5.897   4.129   7.094 -0.3989  0.5074 -0.8433
 4756TIP3   OH238462   2.834   0.481   9.546  0.0952  0.3032  0.2418
 4756TIP3    H138463   2.919   0.453   9.578  0.3516  2.4162  1.6003
 4756TIP3    H238464   2.800   0.539   9.614 -1.2591  1.5915 -1.4279
 4757TIP3   OH238465   0.679   3.489   2.443  0.1050  0.4706  0.6965
 4757TIP3    H138466   0.640   3.572   2.469  1.3497  1.1180  0.5977
 4757TIP3    H238467   0.704   3.501   2.352 -0.3443 -0.2673  0.4673
 4758TIP3   OH238468   5.728   6.168   8.021  0.4002 -0.0301  0.4230
 4758TIP3    H138469   5.763   6.256   8.012 -1.1554  0.4363 -1.9107
 4758TIP3    H238470   5.634   6.181   8.036 -0.0816 -1.2588 -1.2717
 4759TIP3   OH238471   1.448   4.168   1.359  0.6962  0.2784  0.3300
 4759TIP3    H138472   1.502   4.150   1.436  1.0055  0.5516  0.1801
 4759TIP3    H238473   1.386   4.234   1.389 -0.1016 -0.6381  0.7346
 4760TIP3   OH238474   4.144   7.009   2.531  0.1670 -0.5683  0.4337
 4760TIP3    H138475   4.115   7.043   2.616 -2.1380 -0.3518 -0.3679
 4760TIP3    H238476   4.185   7.084   2.489 -0.5658 -0.0713  0.5717
 4761TIP3   OH238477   3.192   2.857   8.962  0.2299  0.0287 -0.0402
 4761TIP3    H138478   3.274   2.905   8.952 -0.8064  2.0066  0.5446
 4761TIP3    H238479   3.142   2.907   9.027 -1.5820 -0.9249 -0.6220
 4762TIP3   OH238480   4.670   6.609   9.514 -0.0834 -0.0512 -0.2646
 4762TIP3    H138481   4.683   6.586   9.606 -0.7156 -0.3903 -0.2555
 4762TIP3    H238482   4.699   6.700   9.508 -2.0386  0.7081  0.7488
 4763TIP3   OH238483   6.472   1.018   0.959  0.4796 -0.3524 -0.3931
 4763TIP3    H138484   6.536   1.067   0.907 -0.5104  0.8351 -0.5363
 4763TIP3    H238485   6.390   1.028   0.911  0.0141 -1.1985  0.1978
 4764TIP3   OH238486   3.278   3.250   7.374  0.3192  0.6624  0.0931
 4764TIP3    H138487   3.185   3.227   7.376  0.4214  0.1460 -0.6069
 4764TIP3    H238488   3.305   3.230   7.284  1.7760 -1.8876  1.0081
 4765TIP3   OH238489   6.663   0.759   8.181  0.3170  0.5999  0.1290
 4765TIP3    H138490   6.713   0.707   8.244 -1.9373 -0.2583  1.3312
 4765TIP3    H238491   6.630   0.695   8.118  0.7565  1.1525 -0.6713
 4766TIP3   OH238492   2.134   3.678   0.550 -0.3441 -0.8469 -0.4105
 4766TIP3    H138493   2.221   3.683   0.510  0.3831  1.1239  1.2512
 4766TIP3    H238494   2.136   3.600   0.604 -0.0597 -1.4673 -1.2873
 4767TIP3   OH238495   5.503   7.145   0.503 -0.3776  0.0629 -0.3667
 4767TIP3    H138496   5.549   7.091   0.439 -4.3840 -0.3335 -3.2949
 4767TIP3    H238497   5.479   7.084   0.573  0.2258 -0.5618 -0.6920
 4768TIP3   OH238498   7.511   3.744   8.131 -0.1027  0.0170  0.3145
 4768TIP3    H138499   7.569   3.813   8.164  2.3212 -0.4689 -2.5313
 4768TIP3    H238500   7.484   3.774   8.044 -0.7302 -1.6544 -0.1057
 4769TIP3   OH238501   0.188   2.537   3.213  0.5765  0.7872 -0.3624
 4769TIP3    H138502   0.221   2.599   3.148 -0.9126  0.7263 -1.2176
 4769TIP3    H238503   0.104   2.507   3.178 -0.9178  1.6859  2.1805
 4770TIP3   OH238504   3.090   3.042   9.973 -0.7520  0.1814 -0.0211
 4770TIP3    H138505   3.064   3.130   9.947  2.2204  0.5099 -2.4101
 4770TIP3    H238506   3.043   2.984   9.914  0.7513  0.5181 -1.6095
 4771TIP3   OH238507   0.749   4.300   1.629 -0.5972  0.1652 -0.4596
 4771TIP3    H138508   0.827   4.269   1.675 -0.8855 -2.6647 -1.7045
 4771TIP3    H238509   0.770   4.290   1.536 -2.9668 -2.4451 -0.8572
 4772TIP3   OH238510   4.268   0.363   8.194 -0.2182 -0.0717  0.3903
 4772TIP3    H138511   4.221   0.295   8.241 -0.6836 -0.6290 -0.8412
 4772TIP3    H238512   4.203   0.432   8.179 -0.6905 -0.8345 -1.2971
 4773TIP3   OH238513   4.082   7.240   9.234  0.0544  0.1288 -0.1021
 4773TIP3    H138514   4.049   7.319   9.277  1.9196  1.7058 -1.3614
 4773TIP3    H238515   4.140   7.199   9.298 -0.4032  0.1553  0.3291
 4774TIP3   OH238516   6.122   4.501   0.842 -0.6430  0.1989  0.7532
 4774TIP3    H138517   6.184   4.556   0.890 -2.0558  1.0231  1.7236
 4774TIP3    H238518   6.117   4.420   0.893 -0.4502  0.1741  0.7335
 4775TIP3   OH238519   4.774   0.922   8.351  0.3646  0.2044 -0.0145
 4775TIP3    H138520   4.796   0.844   8.298 -1.1045 -0.9984  1.0601
 4775TIP3    H238521   4.848   0.981   8.337  1.1390 -1.0227 -1.5497
 4776TIP3   OH238522   7.690   6.635   2.167  0.6385 -0.1666  0.0040
 4776TIP3    H138523   7.641   6.666   2.243 -1.7882 -2.0764 -0.6703
 4776TIP3    H238524   7.729   6.553   2.196  0.6262 -0.3492 -0.4990
 4777TIP3   OH238525   4.313   2.889   9.872 -0.3675  0.0799 -0.4060
 4777TIP3    H138526   4.288   2.826   9.805  1.5805  0.4061 -1.5224
 4777TIP3    H238527   4.356   2.960   9.824  0.0672  0.8705  1.0773
 4778TIP3   OH238528   6.463   5.809   2.097  0.2783  0.0753 -0.4626
 4778TIP3    H138529   6.409   5.844   2.026 -0.0192 -0.9375 -0.7576
 4778TIP3    H238530   6.491   5.723   2.066  2.3031  0.6689 -0.4160
 4779TIP3   OH238531   1.103   5.169   2.055 -0.3901 -0.0104 -0.1888
 4779TIP3    H138532   1.030   5.112   2.079 -1.1133  0.7029 -0.6600
 4779TIP3    H238533   1.134   5.134   1.972 -0.2096 -0.2957 -0.0033
 4780TIP3   OH238534   4.213   6.843   0.713  0.3317  0.7953 -0.6012
 4780TIP3    H138535   4.249   6.819   0.628  1.2452  0.6549 -0.1920
 4780TIP3    H238536   4.246   6.931   0.730  1.7169  0.1289  0.4065
 4781TIP3   OH238537   5.380   6.910   9.890  0.0349  0.5023  0.0049
 4781TIP3    H138538   5.319   6.945   9.955 -1.5144 -0.2130 -1.0090
 4781TIP3    H238539   5.466   6.916   9.932 -0.8461  0.5471  1.8941
 4782TIP3   OH238540   2.791   4.994   7.218 -0.0769 -0.1822  0.1896
 4782TIP3    H138541   2.886   4.992   7.227 -0.1888 -1.0826  1.5037
 4782TIP3    H238542   2.770   5.087   7.205  1.0171 -0.0619 -0.8883
 4783TIP3   OH238543   4.376   2.122   2.543 -0.2821 -0.1627 -0.0147
 4783TIP3    H138544   4.420   2.110   2.459 -1.0010  0.0003 -0.4198
 4783TIP3    H238545   4.431   2.185   2.590  1.5993 -2.2398  0.7339
 4784TIP3   OH238546   3.216   2.399   1.111  0.0255 -0.5726  0.7469
 4784TIP3    H138547   3.265   2.351   1.178 -1.2226 -0.1941  1.9759
 4784TIP3    H238548   3.141   2.437   1.158  0.5594  1.9980 -0.3038
 4785TIP3   OH238549   4.181   2.898   0.440  0.3198  0.0302 -0.4182
 4785TIP3    H138550   4.260   2.889   0.493  1.1482 -1.3195 -1.8045
 4785TIP3    H238551   4.206   2.864   0.354 -1.5828  0.2033 -1.0810
 4786TIP3   OH238552   6.503   5.408   7.165  0.2522 -0.2167  0.5803
 4786TIP3    H138553   6.446   5.382   7.092  1.1870  0.9837 -0.6300
 4786TIP3    H238554   6.500   5.504   7.164  2.3077 -0.1221  0.4506
 4787TIP3   OH238555   6.977   2.004   1.240  0.5007 -0.0457 -0.2080
 4787TIP3    H138556   7.037   2.045   1.302  0.4911  1.6294 -1.2396
 4787TIP3    H238557   6.906   2.067   1.231 -0.5405 -1.2160 -0.3405
 4788TIP3   OH238558   3.345   5.372   0.011 -0.1635  0.3249  0.1693
 4788TIP3    H138559   3.398   5.318  -0.047  0.4591 -0.1970  1.2027
 4788TIP3    H238560   3.358   5.462  -0.021 -3.0809 -0.2036 -3.0937
 4789TIP3   OH238561   3.958   2.760   9.575 -0.4688 -0.0599  0.5646
 4789TIP3    H138562   4.035   2.766   9.519 -0.0154 -2.0132  0.8976
 4789TIP3    H238563   3.908   2.686   9.541 -0.9338 -0.3558  1.8059
 4790TIP3   OH238564   6.443   0.568   1.291  0.0688  0.2922 -0.1575
 4790TIP3    H138565   6.413   0.513   1.219  1.2204  0.7832 -1.0488
 4790TIP3    H238566   6.526   0.528   1.318 -0.2259  0.2637  0.7262
 4791TIP3   OH238567   6.835   2.821   1.418  0.0800  0.1316 -0.3752
 4791TIP3    H138568   6.897   2.748   1.425  1.5057  1.2220 -1.0727
 4791TIP3    H238569   6.824   2.835   1.324 -1.3487 -0.1180 -0.2605
 4792TIP3   OH238570   2.362   6.432   2.134 -0.2164  0.3558 -0.0542
 4792TIP3    H138571   2.445   6.440   2.180 -1.6095  1.1967  2.5232
 4792TIP3    H238572   2.372   6.486   2.055  1.9925 -0.4782 -0.4092
 4793TIP3   OH238573   2.902   6.755   7.716  0.6134  0.6672  0.4416
 4793TIP3    H138574   2.890   6.843   7.750  0.4643  0.5469  0.7022
 4793TIP3    H238575   2.939   6.768   7.629 -1.9816  1.0924 -0.6791
 4794TIP3   OH238576   0.964   4.424   0.503  0.0700 -0.5518  0.0967
 4794TIP3    H138577   1.027   4.427   0.430  2.6339  2.2075  2.1924
 4794TIP3    H238578   0.972   4.335   0.537  0.4608 -1.2148 -1.6054
 4795TIP3   OH238579   7.023   3.337   1.079 -0.0144  0.2163 -0.2747
 4795TIP3    H138580   6.985   3.419   1.111 -0.7223 -0.4507  0.6333
 4795TIP3    H238581   7.027   3.348   0.984  0.5746  1.5818 -0.1167
 4796TIP3   OH238582   2.110   1.644   0.183  0.2816 -0.8594 -0.0162
 4796TIP3    H138583   2.147   1.730   0.204  0.2408 -0.6678 -0.7030
 4796TIP3    H238584   2.135   1.629   0.092 -1.5604 -0.5931 -0.6100
 4797TIP3   OH238585   5.735   0.628   8.619  0.4239  0.3433 -0.3635
 4797TIP3    H138586   5.664   0.574   8.584  1.7288 -1.2223 -0.6531
 4797TIP3    H238587   5.713   0.717   8.589  0.4093 -0.5947 -3.5028
 4798TIP3   OH238588   2.154   6.536   1.148 -0.1505 -0.2270 -0.4219
 4798TIP3    H138589   2.225   6.601   1.151  0.4784 -0.8702 -0.9334
 4798TIP3    H238590   2.172   6.477   1.221 -1.5066  0.9273  0.9163
 4799TIP3   OH238591   5.626   4.070   0.485 -0.2480  0.3975  0.6903
 4799TIP3    H138592   5.619   4.140   0.550  1.4336 -0.3629  1.7370
 4799TIP3    H238593   5.548   4.081   0.430  0.1338  3.3040  0.5842
 4800TIP3   OH238594   3.224   6.985   9.145  0.3909 -0.1907 -0.0431
 4800TIP3    H138595   3.223   6.957   9.053 -0.9948 -3.0460  0.7221
 4800TIP3    H238596   3.226   6.903   9.195  0.9016  1.2677  2.5002
 4801TIP3   OH238597   6.142   5.315   7.963  0.8131 -0.0490  0.0602
 4801TIP3    H138598   6.118   5.251   7.895 -0.7229  2.0553 -1.4849
 4801TIP3    H238599   6.205   5.372   7.920 -0.0099  1.1853  0.4471
 4802TIP3   OH238600   2.526   5.800   9.407 -0.1038 -0.1074  0.1668
 4802TIP3    H138601   2.528   5.885   9.451  0.6504  1.3594 -2.4390
 4802TIP3    H238602   2.466   5.813   9.333  0.7193 -1.5503 -0.8083
 4803TIP3   OH238603   6.664   0.416   1.300  0.1066  0.3997  0.1420
 4803TIP3    H138604   6.678   0.329   1.263  1.4121  0.0522  1.3917
 4803TIP3    H238605   6.749   0.442   1.334 -0.7897  1.1013  2.0010
 4804TIP3   OH238606   5.418   6.714   2.366 -1.0216  0.0167  0.1530
 4804TIP3    H138607   5.489   6.687   2.425 -0.3483  1.3572 -0.0035
 4804TIP3    H238608   5.344   6.659   2.391  0.3075 -2.0702 -0.2890
 4805TIP3   OH238609   0.732   7.120   7.431  0.3034 -0.4365 -0.0781
 4805TIP3    H138610   0.799   7.170   7.478 -1.5802  2.3342 -0.1750
 4805TIP3    H238611   0.714   7.171   7.352 -1.1536 -1.6797 -0.5988
 4806TIP3   OH238612   5.191   4.543   7.166  0.0429  0.5068  0.6453
 4806TIP3    H138613   5.174   4.464   7.116  0.1663  2.0984 -2.1405
 4806TIP3    H238614   5.118   4.601   7.144  0.8010  1.7534  1.2935
 4807TIP3   OH238615   7.656   5.590   7.822 -0.6452  0.4177  0.3121
 4807TIP3    H138616   7.705   5.667   7.793  0.2255  0.3268  1.4522
 4807TIP3    H238617   7.652   5.534   7.745  3.3611 -0.7397  0.7285
 4808TIP3   OH238618   0.967   7.168   3.084 -0.2815 -0.3437 -0.2998
 4808TIP3    H138619   1.057   7.136   3.085 -0.0664  0.0896 -2.2104
 4808TIP3    H238620   0.963   7.234   3.153  0.2864 -1.7445  1.1410
 4809TIP3   OH238621   5.465   3.286   1.374 -0.2389  0.2368  1.3681
 4809TIP3    H138622   5.409   3.362   1.356 -0.8455 -0.0479  2.0181
 4809TIP3    H238623   5.434   3.218   1.314 -1.2474 -0.2237  2.3674
 4810TIP3   OH238624   3.473   0.100   9.848  0.2246  0.2217 -0.4007
 4810TIP3    H138625   3.511   0.073   9.932  1.1743 -0.0208 -0.9066
 4810TIP3    H238626   3.393   0.047   9.841 -0.6077  1.2350  0.9855
 4811TIP3   OH238627   6.276   0.619   9.895  0.2887 -0.4780  0.0745
 4811TIP3    H138628   6.186   0.640   9.868  1.0084  2.3111 -0.3930
 4811TIP3    H238629   6.305   0.555   9.830 -0.9982 -0.6176 -0.4041
 4812TIP3   OH238630   1.270   1.817   2.441 -0.0393  0.5676  0.1750
 4812TIP3    H138631   1.297   1.828   2.351  0.3028  1.8162  0.4182
 4812TIP3    H238632   1.231   1.901   2.465 -2.0337 -0.4039  0.5551
 4813TIP3   OH238633   2.432   5.565   9.558 -0.3690 -0.3843  0.1672
 4813TIP3    H138634   2.468   5.635   9.504  1.2519 -1.4039 -0.1751
 4813TIP3    H238635   2.471   5.579   9.644 -3.0050  1.2800  1.1985
 4814TIP3   OH238636   2.996   2.263   9.135 -0.0821  0.4014 -0.4845
 4814TIP3    H138637   3.025   2.329   9.197  1.2443 -0.9025  0.3543
 4814TIP3    H238638   3.075   2.237   9.088 -0.7675  0.1689 -1.5524
 4815TIP3   OH238639   3.631   1.386   8.932  0.6128 -0.5094  0.6938
 4815TIP3    H138640   3.705   1.440   8.903  0.4137  0.7947  2.4851
 4815TIP3    H238641   3.669   1.328   8.998  0.2817 -0.6967  0.7187
 4816TIP3   OH238642   3.759   1.890   2.036  0.2186  0.5941 -0.1678
 4816TIP3    H138643   3.756   1.981   2.006 -0.9171  0.6705  0.1641
 4816TIP3    H238644   3.814   1.893   2.114  1.3762  0.7412 -0.9489
 4817TIP3   OH238645   6.027   0.888   1.800 -0.6712 -0.4041 -0.5845
 4817TIP3    H138646   6.068   0.806   1.828 -0.9941 -0.4716 -0.3003
 4817TIP3    H238647   6.021   0.939   1.881 -0.9821 -0.3231 -0.6615
 4818TIP3   OH238648   5.573   7.114   2.173 -0.3683  0.0918  0.5335
 4818TIP3    H138649   5.604   7.078   2.256 -1.8131  0.8831  1.4594
 4818TIP3    H238650   5.479   7.094   2.172 -0.2387 -0.5341 -1.2513
 4819TIP3   OH238651   6.863   2.690   7.864 -0.4689 -0.5053 -0.1685
 4819TIP3    H138652   6.926   2.633   7.820  1.4567  0.1763  1.5229
 4819TIP3    H238653   6.846   2.761   7.802 -0.4776 -1.2892 -1.0800
 4820TIP3   OH238654   1.605   6.628   3.427 -0.3717  0.1996 -0.2592
 4820TIP3    H138655   1.603   6.684   3.505 -0.6246 -0.7589  0.4474
 4820TIP3    H238656   1.691   6.646   3.387  1.1800 -1.5529  1.9884
 4821TIP3   OH238657   5.970   6.836   0.653  0.4042  0.1355  0.4730
 4821TIP3    H138658   5.971   6.917   0.601 -0.2294 -0.7703 -1.0292
 4821TIP3    H238659   6.048   6.788   0.625 -0.3660 -0.7197 -0.2820
 4822TIP3   OH238660   7.486   1.101   0.818  0.1389  0.5906 -0.1176
 4822TIP3    H138661   7.522   1.062   0.738 -0.0006  1.1038 -0.4384
 4822TIP3    H238662   7.406   1.052   0.835  0.0407  0.6385 -0.4340
 4823TIP3   OH238663   6.301   6.569   7.650 -0.1266  0.2250 -0.0783
 4823TIP3    H138664   6.349   6.567   7.733 -0.3414 -2.3228  0.0693
 4823TIP3    H238665   6.359   6.526   7.588 -1.5771 -1.6411 -0.2220
 4824TIP3   OH238666   0.462   1.492   7.799  0.3272  0.0161 -0.0536
 4824TIP3    H138667   0.503   1.418   7.754  0.7730 -0.5681  1.2426
 4824TIP3    H238668   0.534   1.553   7.815 -0.1769  1.1160 -1.7961
 4825TIP3   OH238669   7.268   4.966   1.785  0.1820 -0.1026 -0.1130
 4825TIP3    H138670   7.267   5.047   1.734  4.3079  0.3436  0.1245
 4825TIP3    H238671   7.270   4.897   1.719 -1.9697 -0.0061 -0.3348
 4826TIP3   OH238672   2.715   2.551   1.293 -0.3359 -0.5470 -0.0810
 4826TIP3    H138673   2.642   2.515   1.243 -0.5042 -0.1529 -0.1239
 4826TIP3    H238674   2.779   2.480   1.297 -0.1540 -0.4700 -1.1808
 4827TIP3   OH238675  -0.030   0.258   9.867 -0.5858  0.2317  0.4929
 4827TIP3    H138676   0.006   0.177   9.904 -0.8132  0.7167  1.8285
 4827TIP3    H238677  -0.082   0.296   9.938 -2.6337  0.2557 -0.9227
 4828TIP3   OH238678   1.361   1.095   7.373 -0.0623  0.2807  0.7984
 4828TIP3    H138679   1.269   1.120   7.385 -0.3452  0.8743 -1.8836
 4828TIP3    H238680   1.377   1.107   7.279  2.6425 -0.2562  1.1012
 4829TIP3   OH238681   5.660   7.316   1.423 -0.2798  0.1099 -0.3257
 4829TIP3    H138682   5.682   7.335   1.514 -0.5968 -0.2341 -0.1762
 4829TIP3    H238683   5.610   7.392   1.393  0.9126  0.8216 -0.6123
 4830TIP3   OH238684   0.738   2.988   7.527 -0.4506 -0.0217  0.6448
 4830TIP3    H138685   0.785   3.070   7.511  0.0909 -0.2372  1.1343
 4830TIP3    H238686   0.658   2.996   7.475 -0.2314  0.6666  0.4096
 4831TIP3   OH238687   6.546   4.520   7.877 -0.0302  0.3525 -0.4268
 4831TIP3    H138688   6.525   4.448   7.937 -1.0287  1.2440  0.3290
 4831TIP3    H238689   6.575   4.591   7.933  0.2971  0.7764 -1.1145
 4832TIP3   OH238690   1.766   1.373   9.839  0.2937 -0.0475  0.1348
 4832TIP3    H138691   1.689   1.430   9.837 -0.8824 -1.5381  0.8376
 4832TIP3    H238692   1.810   1.395   9.922  0.2541  0.3432  0.0527
 4833TIP3   OH238693   1.795   7.029   2.262 -0.2091  0.1903 -0.2108
 4833TIP3    H138694   1.709   6.989   2.275  0.0181  0.1275  1.3610
 4833TIP3    H238695   1.802   7.094   2.332  1.0440  0.1554 -0.2762
 4834TIP3   OH238696   1.526   4.559   7.561 -0.4578  0.4216  0.5092
 4834TIP3    H138697   1.481   4.493   7.614 -0.5959  0.6143  0.6325
 4834TIP3    H238698   1.611   4.570   7.604 -0.0872 -0.3013 -0.0033
 4835TIP3   OH238699   3.599   6.657   1.658 -0.3750  0.1201 -0.0061
 4835TIP3    H138700   3.616   6.597   1.585 -0.6761  0.1619 -0.1131
 4835TIP3    H238701   3.620   6.743   1.623 -1.6940  0.2889 -0.4575
 4836TIP3   OH238702   4.997   3.546   8.063  0.0290 -0.2264 -0.4634
 4836TIP3    H138703   5.027   3.531   7.973  0.5572 -1.2695 -0.1304
 4836TIP3    H238704   5.057   3.613   8.097 -0.2616  0.2783 -0.9162
 4837TIP3   OH238705   3.817   2.432   0.884 -0.0682  0.2581  0.3248
 4837TIP3    H138706   3.783   2.466   0.967  1.7872 -0.7080  1.5701
 4837TIP3    H238707   3.912   2.439   0.893  0.1902 -0.4107 -1.5058
 4838TIP3   OH238708  -0.023   7.247   6.851 -0.0732 -0.6714 -0.2027
 4838TIP3    H138709  -0.081   7.199   6.911  0.9250 -1.4528  0.1706
 4838TIP3    H238710  -0.058   7.336   6.850  0.1024 -0.5279  1.8692
 4839TIP3   OH238711   2.720   1.555   1.626  0.5073 -0.2618  0.7543
 4839TIP3    H138712   2.747   1.463   1.630  0.4712 -0.2655  0.9342
 4839TIP3    H238713   2.802   1.604   1.633  0.7252 -0.2827 -1.0408
 4840TIP3   OH238714   0.877   1.050   3.395  0.6245  0.3853 -0.2393
 4840TIP3    H138715   0.783   1.033   3.395  0.9498 -1.6975 -1.2559
 4840TIP3    H238716   0.910   1.004   3.472  1.1491 -1.4446 -1.4858
 4841TIP3   OH238717   4.173   6.230   8.413 -0.3613 -0.3326  0.0765
 4841TIP3    H138718   4.125   6.165   8.465  1.8792 -0.6834  1.8710
 4841TIP3    H238719   4.157   6.313   8.459 -4.0733  0.8080 -2.7870
 4842TIP3   OH238720   2.754   7.539   0.779  0.0305 -0.3598  0.0098
 4842TIP3    H138721   2.661   7.517   0.786  0.3993 -1.7582  1.0461
 4842TIP3    H238722   2.756   7.615   0.722 -1.9471  1.1364  1.7640
 4843TIP3   OH238723   2.192   5.509   9.385 -0.3016 -0.2225  0.3740
 4843TIP3    H138724   2.133   5.458   9.442  0.0070  1.6492  2.5037
 4843TIP3    H238725   2.275   5.511   9.432 -0.0568  1.4588 -0.0721
 4844TIP3   OH238726   0.877   6.656   2.797  0.0183 -0.0413  0.3463
 4844TIP3    H138727   0.906   6.710   2.871  0.1257 -1.4682  1.3854
 4844TIP3    H238728   0.952   6.600   2.777 -0.6290 -0.9491  0.3887
 4845TIP3   OH238729   5.668   1.058   9.667  0.5484  0.2907 -1.3748
 4845TIP3    H138730   5.751   1.071   9.620  0.9103  0.4267 -0.7067
 4845TIP3    H238731   5.692   1.009   9.746  0.0947  0.9122 -0.8408
 4846TIP3   OH238732   5.335   5.835   0.334 -0.3456 -0.0978  0.0268
 4846TIP3    H138733   5.379   5.855   0.417 -0.7104 -1.9762  0.7343
 4846TIP3    H238734   5.400   5.787   0.284 -0.4774  0.0923 -0.3246
 4847TIP3   OH238735   7.435   6.050   1.125 -0.1514  0.4717 -0.0576
 4847TIP3    H138736   7.505   6.081   1.067 -0.4387  0.6216 -0.3241
 4847TIP3    H238737   7.403   6.129   1.168 -2.4326  0.9689 -2.4062
 4848TIP3   OH238738   4.800   1.182   9.791  0.1839 -1.0224  0.2487
 4848TIP3    H138739   4.818   1.151   9.879  0.6617 -0.3550  0.3897
 4848TIP3    H238740   4.711   1.219   9.796 -0.0496 -1.5795  0.2834
 4849TIP3   OH238741   6.622   3.707   2.288 -0.0216 -0.0361  0.3443
 4849TIP3    H138742   6.643   3.758   2.366  1.6557  0.2663 -0.2606
 4849TIP3    H238743   6.659   3.620   2.306 -0.8346 -0.3681  0.4343
 4850TIP3   OH238744   6.009   2.668   1.921  0.1385  0.3110  0.1053
 4850TIP3    H138745   6.022   2.755   1.959  0.7310  0.1421  0.3076
 4850TIP3    H238746   6.056   2.610   1.981  4.4045  0.3918 -2.7439
 4851TIP3   OH238747   4.881   2.707   7.757 -0.4672  0.4538 -0.1012
 4851TIP3    H138748   4.894   2.659   7.839 -0.1955 -0.5205 -0.7025
 4851TIP3    H238749   4.959   2.763   7.750  0.2151 -0.5059 -0.3878
 4852TIP3   OH238750   0.337   0.845   8.608 -0.4458  0.1401 -0.4541
 4852TIP3    H138751   0.327   0.940   8.611 -0.7599  0.1160 -0.6480
 4852TIP3    H238752   0.249   0.812   8.585 -0.3537 -0.1984 -0.3358
 4853TIP3   OH238753   2.009   4.321   2.106  0.1825  0.3033 -0.0799
 4853TIP3    H138754   2.037   4.253   2.168 -1.5099 -0.7296 -0.3849
 4853TIP3    H238755   2.036   4.403   2.147 -0.0843 -0.4014  1.5946
 4854TIP3   OH238756   5.698   7.290   0.222  0.0624 -0.4337 -0.1678
 4854TIP3    H138757   5.792   7.308   0.218 -0.0822  0.5456  0.4451
 4854TIP3    H238758   5.691   7.194   0.219  0.9839 -0.4927 -1.6893
 4855TIP3   OH238759   5.480   4.042   7.096 -0.1644 -0.6227  0.2601
 4855TIP3    H138760   5.545   4.105   7.063 -0.1671  0.2194  1.7515
 4855TIP3    H238761   5.401   4.061   7.045 -0.0577  0.3561  0.4284
 4856TIP3   OH238762   3.220   6.539   8.925  0.0355 -0.1002  0.2852
 4856TIP3    H138763   3.304   6.552   8.882 -0.2884 -1.0140 -0.6735
 4856TIP3    H238764   3.239   6.545   9.018  0.6955  2.3927  0.0637
 4857TIP3   OH238765   2.832   5.507   8.363  0.1817  0.3887  0.1429
 4857TIP3    H138766   2.865   5.551   8.442  0.2293  0.9854 -0.2048
 4857TIP3    H238767   2.795   5.424   8.396 -0.1695  0.8109  0.8498
 4858TIP3   OH238768   6.463   0.232   0.625  0.3467  0.0224  0.3124
 4858TIP3    H138769   6.401   0.260   0.693 -2.2310 -1.2374 -1.3637
 4858TIP3    H238770   6.549   0.247   0.664 -0.9727  0.6843  3.2886
 4859TIP3   OH238771   3.244   4.594   7.442  0.8690 -0.6737  0.0659
 4859TIP3    H138772   3.164   4.551   7.412  0.8531 -0.5114 -0.1254
 4859TIP3    H238773   3.212   4.671   7.490  0.9271 -0.2989 -0.4980
 4860TIP3   OH238774   1.455   6.718   0.758  0.3635 -0.9603 -0.1558
 4860TIP3    H138775   1.373   6.745   0.798  0.4110  0.4285 -0.9494
 4860TIP3    H238776   1.450   6.622   0.756 -1.8005 -0.8894 -1.3140
 4861TIP3   OH238777   7.342   0.656   2.394  0.0215  0.1320 -0.5477
 4861TIP3    H138778   7.264   0.600   2.399 -0.2457  0.5807  0.4000
 4861TIP3    H238779   7.414   0.598   2.420 -0.0717 -0.1217 -0.8434
 4862TIP3   OH238780   6.770   6.444   0.645  0.1415 -0.1034  0.5238
 4862TIP3    H138781   6.692   6.500   0.651 -0.2608 -0.4617 -1.0885
 4862TIP3    H238782   6.843   6.506   0.637 -0.0631  0.2140  1.0140
 4863TIP3   OH238783   0.542   2.897   8.219  0.1212 -0.4789 -0.2571
 4863TIP3    H138784   0.508   2.816   8.257 -1.3218  1.3147  2.6103
 4863TIP3    H238785   0.600   2.933   8.286  2.0595  0.0985 -2.1481
 4864TIP3   OH238786   7.475   5.930   8.946  0.1928 -0.0153 -0.4409
 4864TIP3    H138787   7.508   5.886   9.025 -0.3103 -0.7503 -0.6380
 4864TIP3    H238788   7.389   5.965   8.972  0.6245  0.9486 -0.2565
 4865TIP3   OH238789   4.154   1.869   0.715 -0.1594 -0.1329 -0.1100
 4865TIP3    H138790   4.070   1.909   0.694 -0.5272 -0.7332  0.1907
 4865TIP3    H238791   4.209   1.887   0.639  0.0350  1.8578  0.4414
 4866TIP3   OH238792   3.955   0.198   7.479 -0.0900 -0.5540 -0.0294
 4866TIP3    H138793   3.995   0.125   7.432 -0.7188  0.0204 -1.5162
 4866TIP3    H238794   3.863   0.172   7.489 -0.7206  0.6974 -2.0709
 4867TIP3   OH238795   5.573   6.154   9.758  0.0543 -0.2396 -0.3851
 4867TIP3    H138796   5.614   6.122   9.678 -0.0359 -0.4697 -0.3380
 4867TIP3    H238797   5.515   6.225   9.729  0.0017 -0.3406 -0.5236
 4868TIP3   OH238798   5.644   6.339   0.253 -0.4998 -0.3283 -0.5132
 4868TIP3    H138799   5.596   6.397   0.193  0.7071  0.7874 -0.4451
 4868TIP3    H238800   5.714   6.303   0.200 -0.5110 -0.7705 -0.2298
 4869TIP3   OH238801   1.769   3.416   8.624  0.1074 -0.2112 -0.3363
 4869TIP3    H138802   1.677   3.433   8.607  0.4894  2.9721  0.1487
 4869TIP3    H238803   1.777   3.420   8.719  0.9404  0.9329 -0.4405
 4870TIP3   OH238804   5.002   2.012   8.588 -0.1948 -0.5292  0.4377
 4870TIP3    H138805   5.092   2.023   8.620 -0.5122 -0.3044  1.2936
 4870TIP3    H238806   5.008   1.944   8.521  0.5707 -0.7088  0.6794
 4871TIP3   OH238807   5.045   1.275   1.865  0.0274 -0.2908  0.0609
 4871TIP3    H138808   5.007   1.202   1.914  0.4674 -0.6586 -0.1507
 4871TIP3    H238809   5.139   1.269   1.882  0.0489  0.3253  0.1762
 4872TIP3   OH238810   4.789   2.156   8.507 -0.2250  0.0515 -0.2997
 4872TIP3    H138811   4.769   2.211   8.583 -0.1299  0.8512 -0.8410
 4872TIP3    H238812   4.854   2.094   8.538 -1.0464 -0.3925  0.5857
 4873TIP3   OH238813   3.587   1.452   9.985 -0.4802 -0.0083  0.0796
 4873TIP3    H138814   3.533   1.492   9.917  0.5668  0.3447 -0.5825
 4873TIP3    H238815   3.606   1.524  10.046 -0.7688 -0.1337  0.3171
 4874TIP3   OH238816   3.044   2.487   6.927 -0.8450 -0.2299 -0.7673
 4874TIP3    H138817   2.991   2.463   6.852  0.3167  0.9826 -2.0319
 4874TIP3    H238818   2.983   2.489   7.001 -2.6917  1.6603 -2.2507
 4875TIP3   OH238819   6.318   6.410   8.926 -0.6098 -0.0097 -0.1293
 4875TIP3    H138820   6.341   6.321   8.903 -1.9064  0.0614 -1.9207
 4875TIP3    H238821   6.394   6.444   8.973  0.1257 -1.8500  0.0702
 4876TIP3   OH238822   1.601   7.728   7.780  0.1513  0.1722  0.0804
 4876TIP3    H138823   1.518   7.697   7.745  1.5840 -0.1506 -3.5386
 4876TIP3    H238824   1.639   7.652   7.823 -0.5767 -0.2644 -0.0376
 4877TIP3   OH238825   4.589   2.551   0.710 -0.0634 -0.1865 -0.4590
 4877TIP3    H138826   4.629   2.611   0.774  0.0624  0.6368 -1.2875
 4877TIP3    H238827   4.663   2.503   0.674 -0.1612 -0.8374  0.1838
 4878TIP3   OH238828   5.984   6.240   6.864  0.3578 -0.3090  0.0273
 4878TIP3    H138829   5.945   6.309   6.918 -0.4155  0.6937 -1.7174
 4878TIP3    H238830   5.943   6.159   6.895  0.2873  0.1569  1.2187
 4879TIP3   OH238831   1.429   0.450   9.682  0.0587  0.0272  0.0487
 4879TIP3    H138832   1.508   0.440   9.629  0.7849 -0.7314  1.2224
 4879TIP3    H238833   1.367   0.387   9.646  0.3837 -0.1585 -0.1887
 4880TIP3   OH238834   4.051   4.930   7.659  0.0056  0.3069 -0.1973
 4880TIP3    H138835   4.092   4.934   7.573  0.2811 -1.7587 -0.2132
 4880TIP3    H238836   4.118   4.961   7.719  1.4644 -2.3322 -0.3007
 4881TIP3   OH238837   1.723   7.526   0.993  0.0447  1.0834  0.0280
 4881TIP3    H138838   1.644   7.476   0.972  1.2803 -0.4788 -1.2040
 4881TIP3    H238839   1.747   7.566   0.909  1.4258  0.2003 -0.0212
 4882TIP3   OH238840   1.131   7.432   7.090  0.2260 -0.1272 -0.6230
 4882TIP3    H138841   1.171   7.434   7.177 -0.5615 -0.4094 -0.2453
 4882TIP3    H238842   1.139   7.522   7.058  0.2695  0.0453 -0.1427
 4883TIP3   OH238843   0.237   7.619   0.505 -0.0917 -0.7385  0.3050
 4883TIP3    H138844   0.180   7.548   0.476  1.5254 -1.2225 -1.9093
 4883TIP3    H238845   0.225   7.688   0.440  2.0171 -0.9708 -0.4089
 4884TIP3   OH238846   4.106   6.557   8.998  0.4272 -0.2187 -0.2198
 4884TIP3    H138847   4.201   6.570   9.001  0.6909  0.3329 -4.4929
 4884TIP3    H238848   4.070   6.639   9.033  1.6319  0.8980 -1.4892
 4885TIP3   OH238849   1.219   1.766   8.423  0.6185 -0.1586 -0.0414
 4885TIP3    H138850   1.254   1.716   8.349 -1.1384  0.1133 -1.1014
 4885TIP3    H238851   1.264   1.850   8.417 -0.0092  0.1112 -1.2435
 4886TIP3   OH238852   0.246   5.849   2.254  0.5425 -0.4128  0.7501
 4886TIP3    H138853   0.156   5.851   2.288  0.2094  1.0527 -0.1430
 4886TIP3    H238854   0.242   5.789   2.180  0.0546  0.3877  0.1138
 4887TIP3   OH238855   1.604   6.433   9.941  0.0113  0.2498  0.6672
 4887TIP3    H138856   1.523   6.382   9.940 -0.4178  0.9110 -0.1939
 4887TIP3    H238857   1.670   6.375   9.902 -0.0192 -0.3140  1.4301
 4888TIP3   OH238858   0.777   0.991   1.190 -0.2773  0.1669 -0.1031
 4888TIP3    H138859   0.744   1.016   1.277 -0.5476  3.2286 -0.9643
 4888TIP3    H238860   0.837   1.061   1.167  0.7398 -1.2306 -1.9304
 4889TIP3   OH238861   2.159   0.174   8.244 -0.2471  0.2491 -0.0974
 4889TIP3    H138862   2.110   0.169   8.162  1.0880  0.7448 -0.9577
 4889TIP3    H238863   2.246   0.202   8.218  0.5304 -0.6743  1.3864
 4890TIP3   OH238864   5.221   0.023   0.861 -0.1177 -0.5044  0.2305
 4890TIP3    H138865   5.300   0.056   0.818 -1.1631  0.6835 -0.8854
 4890TIP3    H238866   5.169  -0.015   0.790 -1.1869  0.0585  0.6837
 4891TIP3   OH238867   0.770   6.041   1.380  0.0136  0.2207  0.1777
 4891TIP3    H138868   0.724   6.041   1.464  0.9398 -1.1081  0.7166
 4891TIP3    H238869   0.862   6.053   1.403  0.2383  0.1500 -0.6617
 4892TIP3   OH238870   5.255   0.820   2.169  0.1858 -0.5269 -0.5882
 4892TIP3    H138871   5.320   0.750   2.177  1.4983  0.3641 -2.7920
 4892TIP3    H238872   5.223   0.814   2.080  0.1835  1.5310 -0.7810
 4893TIP3   OH238873   2.937   4.356   9.568 -0.0135 -0.3602  0.2252
 4893TIP3    H138874   2.867   4.382   9.509  0.9093 -1.6419 -1.5507
 4893TIP3    H238875   3.011   4.413   9.545  0.2032 -0.5265  0.4898
 4894TIP3   OH238876   7.511   3.940   0.210 -0.1147 -0.1959  0.3362
 4894TIP3    H138877   7.444   3.895   0.159 -0.5737  0.4367  0.3700
 4894TIP3    H238878   7.574   3.872   0.232 -0.1793 -0.5873 -0.6267
 4895TIP3   OH238879   6.190   6.262   9.463  0.0741  0.3909  0.2810
 4895TIP3    H138880   6.116   6.243   9.521  0.0643  1.1588  0.5285
 4895TIP3    H238881   6.244   6.324   9.511 -0.4630  1.8387 -0.9029
 4896TIP3   OH238882   2.926   1.738   9.678  0.4437 -0.2302 -0.2948
 4896TIP3    H138883   2.879   1.820   9.695  0.5834 -0.4105  1.0655
 4896TIP3    H238884   2.978   1.756   9.599  1.5713  1.4724  0.7626
 4897TIP3   OH238885   6.828   7.353   7.718 -0.1636  0.4061  0.3513
 4897TIP3    H138886   6.848   7.440   7.685  3.4224 -0.2325  0.3941
 4897TIP3    H238887   6.844   7.294   7.644 -1.6279 -0.3441  0.5776
 4898TIP3   OH238888   7.514   0.917   0.600 -0.2580  0.3429  0.3529
 4898TIP3    H138889   7.494   0.971   0.524  1.9799  0.0950 -0.4927
 4898TIP3    H238890   7.560   0.842   0.564  1.2227  0.4255  1.9583
 4899TIP3   OH238891   0.781   5.016   9.581 -0.1351 -0.2980 -0.8409
 4899TIP3    H138892   0.802   4.926   9.554 -1.0700  0.1389 -3.2410
 4899TIP3    H238893   0.751   5.059   9.501 -1.1914  1.7310  0.5582
 4900TIP3   OH238894   2.049   1.433   7.538  0.3315  0.4620  0.0058
 4900TIP3    H138895   1.989   1.360   7.554  0.9956 -0.1979 -0.4374
 4900TIP3    H238896   2.097   1.408   7.459  3.0835 -0.3165  1.8100
 4901TIP3   OH238897   1.292   4.966   2.721  0.4683  0.3435  0.2404
 4901TIP3    H138898   1.303   4.999   2.811 -0.4864 -0.7495  0.7788
 4901TIP3    H238899   1.373   4.918   2.704  0.3983  0.0286  0.7602
 4902TIP3   OH238900   4.462   6.730   7.597 -0.1127 -0.0700 -0.2560
 4902TIP3    H138901   4.478   6.742   7.691 -1.9154 -1.6810  0.3430
 4902TIP3    H238902   4.475   6.636   7.583  0.9507  0.2717 -1.8421
 4903TIP3   OH238903   6.479   5.238   9.142 -0.2179  0.6838  0.3295
 4903TIP3    H138904   6.551   5.209   9.199 -1.4533 -0.1505  1.5341
 4903TIP3    H238905   6.501   5.329   9.121  3.0375 -0.5418 -2.3728
 4904TIP3   OH238906   5.790   0.053   9.486  0.2104 -0.3717  0.4168
 4904TIP3    H138907   5.834  -0.028   9.461  0.8952 -0.2346  1.1367
 4904TIP3    H238908   5.861   0.114   9.504 -0.2416  1.2240 -2.6034
 4905TIP3   OH238909   1.565   3.436   9.317 -0.0143  0.3944 -0.1279
 4905TIP3    H138910   1.617   3.469   9.244  2.2643 -1.5957  0.4778
 4905TIP3    H238911   1.619   3.452   9.394 -1.2402  0.1233  0.8180
 4906TIP3   OH238912   3.307   3.213   7.100 -0.5990  0.0666  0.1257
 4906TIP3    H138913   3.391   3.180   7.066 -0.6305 -1.1071  1.1209
 4906TIP3    H238914   3.318   3.308   7.103  0.5919 -0.0487 -0.0390
 4907TIP3   OH238915   7.385   2.715   0.174 -0.3318  0.4328 -0.0327
 4907TIP3    H138916   7.398   2.736   0.267  1.3896  0.2339 -0.1972
 4907TIP3    H238917   7.337   2.790   0.140 -0.9511  0.5350  0.9996
 4908TIP3   OH238918   7.529   7.543   0.315  0.1530  0.0663  0.3539
 4908TIP3    H138919   7.567   7.456   0.303  1.0572  0.4876  0.0851
 4908TIP3    H238920   7.568   7.576   0.396 -0.2067  0.2102  0.4704
 4909TIP3   OH238921   5.155   1.381   0.781 -0.3425 -0.4766  0.1359
 4909TIP3    H138922   5.165   1.471   0.751 -1.2532 -0.1996  0.6376
 4909TIP3    H238923   5.160   1.386   0.876 -1.3857 -0.8084  0.2229
 4910TIP3   OH238924   6.738   6.524   0.309  1.1740 -0.0651 -0.2139
 4910TIP3    H138925   6.729   6.592   0.242 -0.5650  1.3797  1.3441
 4910TIP3    H238926   6.832   6.515   0.323  1.4771  1.2304 -1.2652
 4911TIP3   OH238927   1.568   4.937   0.394 -0.1602 -0.1342 -0.4778
 4911TIP3    H138928   1.584   4.923   0.487 -0.4812 -1.5409 -0.6036
 4911TIP3    H238929   1.638   4.889   0.350 -1.2103 -1.2805 -0.9607
 4912TIP3   OH238930   4.216   7.617   9.204  0.3377  0.0647 -0.9443
 4912TIP3    H138931   4.164   7.663   9.139 -0.2439  2.6270  1.1528
 4912TIP3    H238932   4.151   7.571   9.258  0.6721 -0.6082 -1.1030
 4913TIP3   OH238933   3.840   2.029   9.004 -0.1086  0.1831 -0.8513
 4913TIP3    H138934   3.779   2.101   9.022  0.4526  0.2281  1.1238
 4913TIP3    H238935   3.786   1.950   9.005  0.0029 -0.0251  2.9665
 4914TIP3   OH238936   3.822   1.236   9.599 -0.4781  0.4457  0.1053
 4914TIP3    H138937   3.782   1.161   9.556 -0.8577  1.0887 -0.7107
 4914TIP3    H238938   3.898   1.200   9.645 -0.5030 -0.3964 -0.4809
 4915TIP3   OH238939   3.916   6.851   1.660 -0.3094 -0.3667  0.0897
 4915TIP3    H138940   3.834   6.891   1.688 -0.4165 -0.6113  0.1231
 4915TIP3    H238941   3.903   6.833   1.567  0.7061  2.1414 -0.6288
 4916TIP3   OH238942   3.307   5.449   9.351 -0.1832  0.4153  0.4201
 4916TIP3    H138943   3.325   5.359   9.323  0.1627  1.1065 -1.7227
 4916TIP3    H238944   3.390   5.480   9.387 -0.6721 -0.5277  2.5354
 4917TIP3   OH238945   2.958   3.916   0.195  0.5404  0.0088  0.1361
 4917TIP3    H138946   2.868   3.898   0.222 -0.0011  1.7675 -0.3447
 4917TIP3    H238947   2.954   3.915   0.099  1.2471 -0.7443  0.0983
 4918TIP3   OH238948   0.066   0.762   2.311  0.1680  0.2616  0.1773
 4918TIP3    H138949   0.144   0.794   2.265  0.0366  1.3929  0.6948
 4918TIP3    H238950   0.035   0.689   2.258  2.3855 -1.1745  0.7240
 4919TIP3   OH238951   2.874   6.977   1.839  0.2261 -0.3525 -0.1073
 4919TIP3    H138952   2.857   7.021   1.922  1.0250  1.1572 -0.7044
 4919TIP3    H238953   2.931   7.037   1.791  1.3003 -2.0129 -1.0182
 4920TIP3   OH238954   5.935   1.557   1.752  0.3648  0.2013  0.1804
 4920TIP3    H138955   5.914   1.465   1.766 -0.7039  0.5400  0.9361
 4920TIP3    H238956   6.031   1.561   1.753  0.4167 -0.8853  0.1885
 4921TIP3   OH238957   2.031   4.354   9.846  0.1476 -0.2429  0.1298
 4921TIP3    H138958   2.067   4.370   9.933 -0.0953  1.1045 -0.0027
 4921TIP3    H238959   2.030   4.258   9.838 -0.6877 -0.4247  1.9666
 4922TIP3   OH238960   3.473   0.773   7.423 -0.1031 -0.2292 -0.5373
 4922TIP3    H138961   3.495   0.848   7.369  0.2868 -0.1021 -0.2027
 4922TIP3    H238962   3.409   0.806   7.487 -0.5389 -0.3716 -0.8912
 4923TIP3   OH238963   4.817   0.498   1.799  0.1123  0.1249 -0.1107
 4923TIP3    H138964   4.755   0.541   1.858  0.5541 -0.5194  0.8480
 4923TIP3    H238965   4.855   0.428   1.851  1.1928  0.1120 -0.8890
 4924TIP3   OH238966   7.029   1.337   8.466  0.0632 -0.2344 -0.2035
 4924TIP3    H138967   6.947   1.308   8.508  0.4793 -2.0600 -0.5639
 4924TIP3    H238968   7.004   1.415   8.417 -0.8477  0.8843  1.8911
 4925TIP3   OH238969   5.561   7.039   1.415  0.4680  0.5529 -0.2946
 4925TIP3    H138970   5.597   7.127   1.410 -0.4586  0.9065 -1.1122
 4925TIP3    H238971   5.567   7.016   1.508  1.5667  1.0984 -0.2164
 4926TIP3   OH238972   1.214   5.693   9.133 -0.4019  0.3015  0.1142
 4926TIP3    H138973   1.300   5.666   9.165 -0.4388 -0.1570 -0.1631
 4926TIP3    H238974   1.195   5.774   9.180  0.1831  0.4102  0.1683
 4927TIP3   OH238975   1.613   5.345   8.339  0.1324  0.0130  0.7584
 4927TIP3    H138976   1.614   5.254   8.368  0.7167 -0.9514 -1.9524
 4927TIP3    H238977   1.531   5.353   8.290  1.4234 -0.0142 -1.5437
 4928TIP3   OH238978   2.279   5.638   1.182 -0.0246 -0.2819  0.8094
 4928TIP3    H138979   2.209   5.702   1.164  0.1873 -0.5299 -1.2329
 4928TIP3    H238980   2.258   5.602   1.268 -2.6782 -0.6429  0.1059
 4929TIP3   OH238981   2.261   6.422   1.851  0.0758 -0.7262 -0.3236
 4929TIP3    H138982   2.325   6.491   1.834  0.4585 -1.1846 -0.7440
 4929TIP3    H238983   2.198   6.429   1.779 -1.7248  1.2620  1.2923
 4930TIP3   OH238984   3.611   2.433   1.579  0.6447  0.2328  0.4237
 4930TIP3    H138985   3.633   2.341   1.595 -0.8514 -0.1342  0.4843
 4930TIP3    H238986   3.522   2.443   1.612  0.7488  1.6915  0.3315
 4931TIP3   OH238987   2.783   0.151   0.368 -0.0763  0.1027 -0.5149
 4931TIP3    H138988   2.831   0.082   0.414 -2.8137 -0.5989  1.5729
 4931TIP3    H238989   2.704   0.108   0.337 -1.3090  2.0269 -0.2091
 4932TIP3   OH238990  -0.004   5.360   0.721 -0.3297  0.3994 -0.3051
 4932TIP3    H138991   0.056   5.415   0.771 -0.3086  0.3533 -0.2793
 4932TIP3    H238992   0.017   5.270   0.748 -0.3292  0.3751 -0.3843
 4933TIP3   OH238993   6.316   6.247   2.258 -0.3160  0.2104  0.2262
 4933TIP3    H138994   6.334   6.157   2.285 -0.5932  0.4512  1.2691
 4933TIP3    H238995   6.343   6.301   2.332 -0.2184  0.9870 -0.3556
 4934TIP3   OH238996   0.460   6.028   3.113  0.0932  0.2573  0.3351
 4934TIP3    H138997   0.485   5.944   3.075  1.6492  1.6518 -2.0636
 4934TIP3    H238998   0.366   6.022   3.126 -0.0382 -1.3945 -1.0726
 4935TIP3   OH238999   3.580   2.050   1.462 -0.3965  0.4048 -0.0128
 4935TIP3    H139000   3.528   2.093   1.394 -1.0840 -0.4679 -0.0591
 4935TIP3    H239001   3.652   2.111   1.480  0.8554 -0.1211 -2.7807
 4936TIP3   OH239002   5.798   2.958   1.622 -0.3722 -0.3043  0.3228
 4936TIP3    H139003   5.717   2.956   1.571 -1.6785 -0.3651  2.2532
 4936TIP3    H239004   5.773   3.004   1.703  1.3773 -0.8347  1.2122
 4937TIP3   OH239005   1.214   6.593   8.975  0.3489  0.2056  0.2225
 4937TIP3    H139006   1.271   6.668   8.994  3.0098 -1.9847  1.5570
 4937TIP3    H239007   1.210   6.590   8.879  1.8401  0.9249  0.1066
 4938TIP3   OH239008   5.740   7.406   7.892 -0.1090  0.4781  0.3892
 4938TIP3    H139009   5.682   7.407   7.968 -0.4047  1.3603  0.1632
 4938TIP3    H239010   5.784   7.490   7.894  1.2857 -0.2290  0.6285
 4939TIP3   OH239011   0.198   0.388   8.230 -0.3376  0.1750 -0.6698
 4939TIP3    H139012   0.279   0.388   8.180  0.1285  0.4448  0.0698
 4939TIP3    H239013   0.205   0.463   8.288 -0.0951 -1.0723  1.0044
 4940TIP3   OH239014   6.066   0.972   6.971 -0.9905 -0.5203  0.1454
 4940TIP3    H139015   5.977   1.005   6.977 -0.5727  0.5334  0.8182
 4940TIP3    H239016   6.120   1.050   6.957 -0.2981 -1.2623 -1.6714
 4941TIP3   OH239017   6.641   5.650   1.934  0.2092  1.0994 -0.4163
 4941TIP3    H139018   6.691   5.617   2.009  0.1014  0.9487 -0.4121
 4941TIP3    H239019   6.705   5.702   1.885  0.4775  0.5738 -0.6315
 4942TIP3   OH239020   4.458   2.306   1.680 -0.4451  0.3695 -0.0968
 4942TIP3    H139021   4.374   2.263   1.664  0.2872 -1.6615  1.1186
 4942TIP3    H239022   4.467   2.308   1.775  2.0226 -2.0168 -0.1572
 4943TIP3   OH239023   7.025   6.269   0.511 -0.1648 -0.7983 -0.1973
 4943TIP3    H139024   7.008   6.176   0.528  2.5345 -1.6949 -1.8291
 4943TIP3    H239025   7.120   6.275   0.501 -0.2620  2.1579 -0.2696
 4944TIP3   OH239026   1.579   1.480   9.238  0.0424 -0.0680 -0.0613
 4944TIP3    H139027   1.531   1.556   9.271 -0.1934 -0.8213  1.4001
 4944TIP3    H239028   1.671   1.503   9.248  0.0248  0.8328 -1.5951
 4945TIP3   OH239029   2.477   6.452   1.637  0.2610 -0.4254  0.3254
 4945TIP3    H139030   2.523   6.408   1.566  0.2526 -0.4652  0.3447
 4945TIP3    H239031   2.423   6.384   1.677 -1.7754  0.1269 -1.2867
 4946TIP3   OH239032   1.230   1.708   1.801 -0.1497 -0.1257  0.2899
 4946TIP3    H139033   1.306   1.702   1.743  0.0538  0.5764  0.4675
 4946TIP3    H239034   1.191   1.793   1.779 -1.3228 -0.8020 -0.3280
 4947TIP3   OH239035   0.568   5.036   9.726  0.1714 -0.7333 -0.4429
 4947TIP3    H139036   0.649   5.026   9.676  0.2411  3.1845 -1.4445
 4947TIP3    H239037   0.498   5.015   9.664  0.3463  1.0508 -1.2917
 4948TIP3   OH239038   1.426   2.210   0.363  0.2769 -0.2573 -0.2776
 4948TIP3    H139039   1.333   2.188   0.358 -0.0941  1.0097  0.6146
 4948TIP3    H239040   1.434   2.263   0.443  1.8918 -0.9304  0.0405
 4949TIP3   OH239041   0.744   5.261   2.540  0.0906 -0.0115 -0.0634
 4949TIP3    H139042   0.655   5.241   2.570  0.0914 -1.2122 -0.8024
 4949TIP3    H239043   0.799   5.201   2.589  0.4707  0.4919  0.1337
 4950TIP3   OH239044   1.854   5.673   9.270  0.7142 -0.7124  0.1452
 4950TIP3    H139045   1.902   5.594   9.246  0.9755 -0.4285 -0.2893
 4950TIP3    H239046   1.825   5.710   9.187  0.4232 -0.4579  0.3566
 4951TIP3   OH239047   5.620   3.031   8.067 -0.0122  0.3517  0.2621
 4951TIP3    H139048   5.582   3.005   7.984 -0.1476  1.5141 -0.0662
 4951TIP3    H239049   5.694   3.087   8.044  1.2071 -0.9463  0.9138
 4952TIP3   OH239050   3.705   0.075   7.456 -0.3348  0.0878 -0.3267
 4952TIP3    H139051   3.699   0.003   7.393 -1.5840  0.5576 -0.7665
 4952TIP3    H239052   3.631   0.132   7.435  0.3247  1.2353  0.3576
 4953TIP3   OH239053   2.118   6.235   8.175 -0.6593  0.5511 -0.5687
 4953TIP3    H139054   2.204   6.195   8.189 -0.4727  1.0853 -0.1148
 4953TIP3    H239055   2.066   6.208   8.251 -0.9881 -0.0173 -0.9948
 4954TIP3   OH239056   0.390   1.935   7.247  0.1125  0.4694  0.3961
 4954TIP3    H139057   0.313   1.972   7.204 -0.5295 -1.1673  0.0669
 4954TIP3    H239058   0.390   1.843   7.222  1.8056  0.2776  0.9482
 4955TIP3   OH239059   3.400   0.830   0.116  0.2081 -0.2673 -0.2081
 4955TIP3    H139060   3.461   0.844   0.188  0.3548 -0.2674 -0.3314
 4955TIP3    H239061   3.328   0.890   0.134  0.6877  0.4246 -0.5656
 4956TIP3   OH239062   6.276   0.546   7.166 -0.1870  0.1048 -0.0669
 4956TIP3    H139063   6.263   0.468   7.112 -1.0695  0.5810 -0.5575
 4956TIP3    H239064   6.241   0.522   7.251  0.1755 -0.2666 -0.0205
 4957TIP3   OH239065   3.785   2.195   1.583  0.0402  0.1866 -0.0516
 4957TIP3    H139066   3.849   2.264   1.600  0.4867  0.0650 -1.1032
 4957TIP3    H239067   3.775   2.150   1.667  1.8018 -0.1588  0.0160
 4958TIP3   OH239068   3.097   3.415   8.908  0.4905 -0.6601  0.0313
 4958TIP3    H139069   3.026   3.396   8.846  1.6277 -2.9183 -0.6846
 4958TIP3    H239070   3.069   3.374   8.990  1.0424 -1.7937 -0.3270
 4959TIP3   OH239071   6.330   6.735   7.335 -0.3092  0.0448  0.0490
 4959TIP3    H139072   6.338   6.819   7.380 -1.3048 -0.4058  1.0901
 4959TIP3    H239073   6.410   6.729   7.282  0.2948  1.1417  0.8057
 4960TIP3   OH239074   2.506   1.380   2.058  0.0706  0.2064 -0.2065
 4960TIP3    H139075   2.510   1.462   2.107  0.1894 -0.5148  1.0422
 4960TIP3    H239076   2.594   1.343   2.066 -0.4723 -0.9152  0.8398
 4961TIP3   OH239077   1.366   4.115   8.958 -0.3370 -0.1441  0.3338
 4961TIP3    H139078   1.424   4.143   8.888 -0.4024  1.1959  0.7953
 4961TIP3    H239079   1.424   4.078   9.024 -0.1638 -0.2254  0.1377
 4962TIP3   OH239080   7.263   3.912   8.131  0.0344  0.7601  0.3012
 4962TIP3    H139081   7.244   3.901   8.038 -1.3966 -1.5974  0.8037
 4962TIP3    H239082   7.353   3.945   8.133 -0.3753  2.2286 -1.9147
 4963TIP3   OH239083   1.876   1.849   7.732  0.0779 -0.2937  0.6029
 4963TIP3    H139084   1.791   1.820   7.699 -0.2333 -0.0717  1.1910
 4963TIP3    H239085   1.912   1.772   7.776 -0.1993 -0.1485  1.0903
 4964TIP3   OH239086   7.106   7.550   9.125  0.0825 -0.4234 -0.0245
 4964TIP3    H139087   7.115   7.541   9.030  0.4446 -0.6111  0.0246
 4964TIP3    H239088   7.193   7.530   9.159  0.2111  0.5969  0.2831
 4965TIP3   OH239089   1.843   4.840   2.785 -0.3551  0.0671  0.0408
 4965TIP3    H139090   1.836   4.746   2.768 -2.7013 -0.1056  1.4509
 4965TIP3    H239091   1.884   4.846   2.872  2.1354  0.5073 -1.0976
 4966TIP3   OH239092   2.504   3.779   9.433 -0.0898 -0.5211 -0.1856
 4966TIP3    H139093   2.413   3.803   9.418  0.2842  0.8068 -0.4772
 4966TIP3    H239094   2.554   3.855   9.404  1.1851 -1.6667 -1.1706
 4967TIP3   OH239095   7.103   6.639   7.164  0.2546  0.0230 -0.3843
 4967TIP3    H139096   7.093   6.574   7.234 -0.1781 -1.1466 -1.4804
 4967TIP3    H239097   7.197   6.647   7.152  0.3146 -0.6883 -0.4622
 4968TIP3   OH239098   6.796   7.527   1.544 -0.2922 -0.1115  0.1858
 4968TIP3    H139099   6.722   7.586   1.556 -1.5693 -1.6722  0.3695
 4968TIP3    H239100   6.797   7.508   1.450  1.4673  1.8255 -0.2426
 4969TIP3   OH239101   5.889   1.153   0.070 -0.1917  0.5413  0.0929
 4969TIP3    H139102   5.922   1.069   0.038  0.3758  0.5996  0.5057
 4969TIP3    H239103   5.884   1.208  -0.009 -1.1761 -0.0608 -0.2863
 4970TIP3   OH239104   7.266   4.639   8.459  0.5416  0.1497 -0.1306
 4970TIP3    H139105   7.250   4.679   8.544  3.6612  1.7994 -0.1795
 4970TIP3    H239106   7.337   4.691   8.421 -0.8754 -0.3580 -3.8852
 4971TIP3   OH239107   0.544   6.473  10.023  0.5912  0.0553  0.1849
 4971TIP3    H139108   0.497   6.423   9.956  0.3154  1.2280 -0.5197
 4971TIP3    H239109   0.625   6.424  10.036 -0.1265 -1.1410  0.2773
 4972TIP3   OH239110   0.302   2.595   0.501 -0.0470  0.2509  0.3533
 4972TIP3    H139111   0.270   2.684   0.489 -0.1920  0.1409 -0.1446
 4972TIP3    H239112   0.366   2.601   0.571 -0.6225  0.6096  0.8605
 4973TIP3   OH239113   4.742   7.384   8.157 -0.1281 -0.0625  0.3498
 4973TIP3    H139114   4.738   7.413   8.066  0.5491 -0.0821  0.3015
 4973TIP3    H239115   4.817   7.431   8.193 -0.2320 -0.2543  0.8238
 4974TIP3   OH239116   5.993   5.980   8.674  0.3329  0.3632 -0.0772
 4974TIP3    H139117   6.035   5.981   8.760 -1.3241  3.1092  0.8375
 4974TIP3    H239118   5.919   5.920   8.684  0.3481  0.4043  0.2973
 4975TIP3   OH239119   7.372   0.174   1.304 -0.2228  0.0945  0.2553
 4975TIP3    H139120   7.377   0.093   1.355 -1.1912 -1.0590 -1.4085
 4975TIP3    H239121   7.463   0.193   1.281  0.0732 -0.1698  1.1564
 4976TIP3   OH239122   1.081   4.471   8.907 -0.5345  0.5177 -0.2352
 4976TIP3    H139123   1.024   4.531   8.859 -0.1428  1.4364  0.4243
 4976TIP3    H239124   1.122   4.525   8.974 -0.8753 -0.6727  0.9900
 4977TIP3   OH239125   1.438   6.227   7.797  0.3997  0.0965  0.7302
 4977TIP3    H139126   1.483   6.184   7.725 -0.1621  1.5869 -0.5797
 4977TIP3    H239127   1.467   6.318   7.793 -2.1149  0.9788  0.2276
 4978TIP3   OH239128   0.950   2.857   7.115 -0.1435  0.1390  0.2065
 4978TIP3    H139129   1.031   2.806   7.113  2.3748  3.6548  2.3899
 4978TIP3    H239130   0.913   2.841   7.202 -1.0061 -0.2254 -0.2095
 4979TIP3   OH239131   0.433   4.956   7.328  0.5446  0.1414 -0.3853
 4979TIP3    H139132   0.368   4.903   7.374  0.8250 -0.3404 -0.5326
 4979TIP3    H239133   0.508   4.958   7.387  0.8608 -0.3806 -0.7556
 4980TIP3   OH239134   0.942   2.300   9.946  0.2941 -0.3829 -0.2736
 4980TIP3    H139135   0.849   2.279   9.952  0.5605 -2.3534 -1.9197
 4980TIP3    H239136   0.945   2.383   9.899 -0.6279  0.3499  0.8970
 4981TIP3   OH239137   0.345   7.661   1.632  0.1101 -0.0018  0.7107
 4981TIP3    H139138   0.258   7.638   1.665 -1.9014  1.5667 -2.9095
 4981TIP3    H239139   0.350   7.618   1.547  2.3938  0.9329  0.3137
 4982TIP3   OH239140   1.499   2.350   0.922  0.0669  0.3816  0.3021
 4982TIP3    H139141   1.445   2.427   0.940 -0.5828  0.1161 -0.4243
 4982TIP3    H239142   1.487   2.293   0.998  0.5529  0.9893  0.8442
 4983TIP3   OH239143   4.338   0.408   7.419  0.3284 -0.3193  0.4854
 4983TIP3    H139144   4.350   0.372   7.331  1.2571 -0.1717  0.5462
 4983TIP3    H239145   4.423   0.397   7.462  0.5976  1.6912  0.5851
 4984TIP3   OH239146   4.806   1.716   9.693 -0.4761 -0.0167 -0.2737
 4984TIP3    H139147   4.876   1.666   9.735 -0.3562 -0.3640 -0.8870
 4984TIP3    H239148   4.829   1.718   9.601 -2.4019 -2.0954 -0.8892
 4985TIP3   OH239149   1.756   1.075   0.859  0.2196  0.0485 -0.2539
 4985TIP3    H139150   1.814   1.043   0.929  0.1396  0.5308  0.0332
 4985TIP3    H239151   1.782   1.166   0.845  0.2732 -0.0569 -0.8948
 4986TIP3   OH239152   4.743   5.202   7.441  0.5450 -0.3981  0.0777
 4986TIP3    H139153   4.790   5.154   7.373  0.9691 -1.3238  0.9998
 4986TIP3    H239154   4.694   5.135   7.488  1.4032 -0.0067  1.6060
 4987TIP3   OH239155   1.976   7.153   7.860 -0.3034  0.2536 -0.5515
 4987TIP3    H139156   2.011   7.237   7.888  0.9569  0.1313 -1.6337
 4987TIP3    H239157   1.899   7.139   7.914 -0.0868  1.7365  0.1778
 4988TIP3   OH239158   0.137   2.444   2.892 -0.3078  0.3376 -0.1595
 4988TIP3    H139159   0.153   2.362   2.937  1.4197  1.2446  0.9993
 4988TIP3    H239160   0.069   2.488   2.943 -0.3231  0.1656 -0.0336
 4989TIP3   OH239161   1.392   1.873   1.323 -0.5534  0.4226  0.1174
 4989TIP3    H139162   1.374   1.954   1.371 -2.1451 -1.2553  2.5281
 4989TIP3    H239163   1.306   1.841   1.296  0.0600 -0.4305 -0.9280
 4990TIP3   OH239164   6.715   0.269   7.154 -0.0009 -0.5417 -0.3270
 4990TIP3    H139165   6.623   0.258   7.176  0.1370 -0.7035  0.1716
 4990TIP3    H239166   6.749   0.180   7.144  0.4886 -0.5347  1.1214
 4991TIP3   OH239167   2.966   3.654   9.603 -0.0523  0.8141  0.6660
 4991TIP3    H139168   2.903   3.700   9.657 -0.6895  0.5891  0.1293
 4991TIP3    H239169   2.972   3.706   9.523  1.4604  1.5675  1.2287
 4992TIP3   OH239170   0.118   3.730   9.844  0.1060 -0.4607  0.6412
 4992TIP3    H139171   0.123   3.815   9.800 -1.0405 -2.2902 -3.4386
 4992TIP3    H239172   0.024   3.712   9.851  0.2945 -2.3581 -0.8574
 4993TIP3   OH239173   5.528   1.990   8.887  0.1231  0.5416  0.1002
 4993TIP3    H139174   5.450   2.038   8.861  1.0353  0.8684 -2.2712
 4993TIP3    H239175   5.599   2.053   8.877  1.1654 -0.8388 -1.6495
 4994TIP3   OH239176   2.801   2.909   9.439  0.2590 -0.5754 -0.4342
 4994TIP3    H139177   2.752   2.987   9.468  0.7223 -0.6000  0.4680
 4994TIP3    H239178   2.881   2.945   9.401  0.0459 -0.5766 -0.8836
 4995TIP3   OH239179   4.384   6.410   8.269 -0.5372  0.0515  0.0788
 4995TIP3    H139180   4.355   6.319   8.277 -1.5607  0.3732  0.2697
 4995TIP3    H239181   4.302   6.460   8.263  0.0154  0.9246 -0.3785
 4996TIP3   OH239182   2.251   3.486   7.805 -0.0272 -0.3906  0.4822
 4996TIP3    H139183   2.304   3.500   7.727 -0.0380  0.0442  0.5513
 4996TIP3    H239184   2.167   3.527   7.785 -0.4749 -1.4193  0.2230
 4997TIP3   OH239185   7.392   7.030   8.937 -0.0023 -0.0296 -0.1826
 4997TIP3    H139186   7.416   7.056   8.849 -0.2737 -0.9551 -0.5395
 4997TIP3    H239187   7.298   7.046   8.943 -0.2651 -1.3129 -0.5648
 4998TIP3   OH239188   0.875   3.219   0.645 -0.1019 -0.1541 -0.8419
 4998TIP3    H139189   0.952   3.267   0.675 -0.9205  0.6372  0.0367
 4998TIP3    H239190   0.900   3.188   0.557  1.8680 -1.4435  0.0930
 4999TIP3   OH239191   1.906   3.524   8.424 -0.0354 -0.1571 -0.3577
 4999TIP3    H139192   1.839   3.500   8.487 -0.6795 -1.8301 -1.5829
 4999TIP3    H239193   1.888   3.615   8.402  1.5385  1.2254  3.3778
 5000TIP3   OH239194   0.198   6.955   6.724 -0.2201 -0.1644  0.4860
 5000TIP3    H139195   0.112   6.975   6.687  0.8847  0.3617 -2.0415
 5000TIP3    H239196   0.182   6.882   6.783 -2.3638 -0.2459 -0.0921
 5001TIP3   OH239197   1.780   6.067   0.196 -0.2722  0.2490  0.1431
 5001TIP3    H139198   1.692   6.103   0.183 -0.2200  0.1959 -0.3835
 5001TIP3    H239199   1.766   5.972   0.196 -0.3144  0.2552  0.8099
 5002TIP3   OH239200   5.059   2.486   2.453  0.0792  0.6045  0.7802
 5002TIP3    H139201   5.105   2.444   2.526 -0.0432 -0.0884  0.4666
 5002TIP3    H239202   5.073   2.580   2.467  0.1876  0.4764  1.6075
 5003TIP3   OH239203   4.654   4.259   9.216  0.4512  0.8105 -0.2478
 5003TIP3    H139204   4.747   4.282   9.225  0.6787 -0.4293  0.7931
 5003TIP3    H239205   4.635   4.206   9.293 -0.5473 -0.8145 -1.5630
 5004TIP3   OH239206   0.130   1.402   2.194  0.0727 -0.4938  0.2737
 5004TIP3    H139207   0.112   1.473   2.133  3.2497  1.8571  1.7795
 5004TIP3    H239208   0.045   1.363   2.213 -1.5678  1.7494 -1.9861
 5005TIP3   OH239209   2.242   0.998   9.711 -0.4281 -0.5768 -0.5601
 5005TIP3    H139210   2.235   1.094   9.704  1.7956 -0.3043  0.1816
 5005TIP3    H239211   2.201   0.977   9.794  0.2820 -0.0792 -0.0760
 5006TIP3   OH239212   3.177   0.708   9.849 -0.1162 -0.3333  0.1976
 5006TIP3    H139213   3.253   0.766   9.856 -0.8666  0.4564  2.3970
 5006TIP3    H239214   3.123   0.729   9.925 -0.7088 -3.5289  0.7781
 5007TIP3   OH239215   0.973   6.615   1.310  0.4685  0.1639  0.2760
 5007TIP3    H139216   0.981   6.572   1.225 -0.6397  3.1128 -1.4920
 5007TIP3    H239217   0.883   6.649   1.311 -0.2058 -1.3050  3.4959
 5008TIP3   OH239218   0.840   7.321   0.819 -0.7492 -0.5515  0.3718
 5008TIP3    H139219   0.886   7.259   0.762 -1.5285 -1.0708  0.2936
 5008TIP3    H239220   0.903   7.391   0.834 -0.4334 -0.5309 -0.9219
 5009TIP3   OH239221   0.750   7.016   1.240  0.0862  0.1053  0.4016
 5009TIP3    H139222   0.659   7.003   1.269 -0.4597 -0.5884 -1.5124
 5009TIP3    H239223   0.743   7.045   1.149  1.7654  1.4502  0.6486
 5010TIP3   OH239224   7.063   6.815   2.327  0.1153 -0.0814  0.0963
 5010TIP3    H139225   7.067   6.733   2.277  0.6148 -1.1396  1.8027
 5010TIP3    H239226   7.153   6.849   2.322  0.4673 -0.8110  1.2520
 5011TIP3   OH239227   2.589   3.499   7.891  0.1042 -1.0856 -0.1811
 5011TIP3    H139228   2.556   3.588   7.883  1.5010 -0.5056  0.1398
 5011TIP3    H239229   2.531   3.446   7.837 -1.9457 -0.3238  1.1685
 5012TIP3   OH239230   7.421   1.760   2.007 -0.4272 -0.5221  0.0785
 5012TIP3    H139231   7.383   1.688   2.057 -0.6399 -0.3103  0.2274
 5012TIP3    H239232   7.346   1.798   1.960 -0.6634  0.7275  1.3912
 5013TIP3   OH239233   7.631   6.866   0.567  0.2312  0.8118 -0.0722
 5013TIP3    H139234   7.611   6.870   0.474 -1.0804 -0.1144  0.1269
 5013TIP3    H239235   7.677   6.783   0.578  1.3074  1.4024 -0.0331
 5014TIP3   OH239236   0.015   3.625   0.991 -0.1893  0.1526  0.2737
 5014TIP3    H139237   0.052   3.647   1.076  0.5695 -0.2268  0.0531
 5014TIP3    H239238  -0.012   3.710   0.954 -2.5037  0.1422  1.7413
 5015TIP3   OH239239   6.117   7.179   2.870 -0.2770  0.1846  0.3810
 5015TIP3    H139240   6.115   7.091   2.909 -1.2305  0.6002  1.3108
 5015TIP3    H239241   6.103   7.238   2.944 -0.8320  1.0589 -0.4038
 5016TIP3   OH239242   3.969   2.403   8.740  0.1140 -0.8082  0.5090
 5016TIP3    H139243   3.935   2.315   8.724  0.8736 -0.5832 -3.1715
 5016TIP3    H239244   4.062   2.390   8.755 -0.1328 -0.7354  2.3973
 5017TIP3   OH239245   4.917   2.497   9.096  0.4529 -0.0718  0.6638
 5017TIP3    H139246   4.861   2.420   9.101  0.8336 -0.4551 -0.5460
 5017TIP3    H239247   4.861   2.565   9.059  0.5381 -0.2157  0.2609
 5018TIP3   OH239248   7.085   5.592   1.472 -0.0821 -0.2171 -0.0728
 5018TIP3    H139249   7.107   5.578   1.380 -0.5334  0.0871 -0.2296
 5018TIP3    H239250   7.075   5.687   1.480 -1.6471 -0.3520 -0.0835
 5019TIP3   OH239251   7.609   1.990   1.085  0.1561 -0.4372  0.5415
 5019TIP3    H139252   7.692   1.964   1.045  0.4133 -0.5978  1.1619
 5019TIP3    H239253   7.549   1.998   1.012  0.3814 -1.5974  0.2026
 5020TIP3   OH239254   1.164   7.343   2.317 -0.4340  0.1868  0.1676
 5020TIP3    H139255   1.096   7.341   2.251  2.1485  0.0030 -2.6889
 5020TIP3    H239256   1.167   7.434   2.346 -1.3419  0.3432 -0.2035
 5021TIP3   OH239257   0.287   0.740   1.633 -0.2998  0.2463  0.3402
 5021TIP3    H139258   0.244   0.764   1.715  0.0578  0.5465  0.4397
 5021TIP3    H239259   0.379   0.732   1.655  0.0251  1.7574 -0.3185
 5022TIP3   OH239260   5.008   2.580   0.597  0.1504 -0.4734 -0.2588
 5022TIP3    H139261   5.080   2.533   0.557  0.7744  1.2430 -1.2728
 5022TIP3    H239262   5.026   2.672   0.579 -1.4186  0.1277  0.9348
 5023TIP3   OH239263   6.375   0.829   9.160 -0.2836 -0.2646  0.2908
 5023TIP3    H139264   6.416   0.745   9.178  1.7499  0.8727  1.2959
 5023TIP3    H239265   6.319   0.846   9.236  0.4845 -0.0441  0.8179
 5024TIP3   OH239266   1.955   1.667   8.769  0.5923  0.7033 -0.1052
 5024TIP3    H139267   1.906   1.669   8.687  1.0082  1.5348 -0.3409
 5024TIP3    H239268   2.017   1.594   8.757 -2.0102 -1.9208  1.0797
 5025TIP3   OH239269   7.443   5.855   9.925  0.0283  0.0354 -0.2181
 5025TIP3    H139270   7.383   5.890   9.992  0.4464 -1.5978  1.0630
 5025TIP3    H239271   7.405   5.884   9.842 -1.7678  0.2323  0.6209
 5026TIP3   OH239272   4.156   5.493   7.567  0.0444 -0.1897  0.3728
 5026TIP3    H139273   4.108   5.450   7.497  0.0311  0.4963 -0.0494
 5026TIP3    H239274   4.248   5.479   7.544  0.0466 -0.5223  0.5723
 5027TIP3   OH239275   2.051   3.817   1.706 -0.2130  0.1382  0.2008
 5027TIP3    H139276   1.984   3.850   1.764 -2.0048  1.0417 -2.2130
 5027TIP3    H239277   2.131   3.817   1.758 -0.8115  4.7226  1.5493
 5028TIP3   OH239278   7.592   5.482   8.268 -0.1794 -0.4705 -0.6798
 5028TIP3    H139279   7.560   5.421   8.201 -0.6696 -0.8476 -0.1205
 5028TIP3    H239280   7.650   5.429   8.323 -0.6964 -0.4790 -0.1234
 5029TIP3   OH239281   6.494   1.753   7.779 -0.6068 -0.2397  0.3663
 5029TIP3    H139282   6.582   1.724   7.803 -0.5720 -1.0351 -0.6586
 5029TIP3    H239283   6.500   1.773   7.686 -1.4137  0.1030  0.3811
 5030TIP3   OH239284   6.705   4.469  10.002  0.2498  0.5189  0.3415
 5030TIP3    H139285   6.627   4.499  10.048 -0.4397 -2.9980  1.8194
 5030TIP3    H239286   6.672   4.426   9.923  0.7942  0.1849  0.2912
 5031TIP3   OH239287   2.099   4.400   0.916 -0.0576  0.0136 -0.1011
 5031TIP3    H139288   2.186   4.441   0.911 -0.5407  1.0220 -0.4067
 5031TIP3    H239289   2.118   4.306   0.927  1.0810  0.3825  1.5562
 5032TIP3   OH239290   7.231   0.537   9.627  0.2394 -0.1292 -0.1990
 5032TIP3    H139291   7.312   0.512   9.671  1.2106  1.9330 -0.6691
 5032TIP3    H239292   7.202   0.616   9.673 -0.1478  0.5454 -1.5289
 5033TIP3   OH239293   1.376   3.269   8.545 -0.6524  0.3241 -0.2563
 5033TIP3    H139294   1.398   3.279   8.452  0.6172  1.3313  0.1081
 5033TIP3    H239295   1.385   3.175   8.562  0.9875  0.3625 -0.7473
 5034TIP3   OH239296   6.333   0.085   1.447 -0.3979  0.1286  0.3969
 5034TIP3    H139297   6.338   0.135   1.366  1.8537 -0.7891 -0.0956
 5034TIP3    H239298   6.365  -0.002   1.424 -0.4105 -0.3730  2.1226
 5035TIP3   OH239299   7.300   4.144   1.499 -0.2181 -0.4859  0.0943
 5035TIP3    H139300   7.226   4.196   1.532 -0.6289 -1.3473  0.5677
 5035TIP3    H239301   7.369   4.159   1.563 -0.6680 -1.3031  0.7981
 5036TIP3   OH239302   5.877   3.848   8.789  0.3232  0.2659  0.1409
 5036TIP3    H139303   5.942   3.780   8.805  0.4487  0.4456  0.4140
 5036TIP3    H239304   5.802   3.822   8.843 -0.1890 -0.4380 -0.8924
 5037TIP3   OH239305   1.271   3.268   7.132  0.0407 -0.2390 -0.3779
 5037TIP3    H139306   1.290   3.199   7.070  0.8532 -0.9529  0.6324
 5037TIP3    H239307   1.296   3.232   7.217 -1.5264  0.5017  0.4518
 5038TIP3   OH239308   3.491   4.107   8.477  0.2014 -0.0407 -0.2228
 5038TIP3    H139309   3.425   4.047   8.441  0.7689 -0.0751 -1.2511
 5038TIP3    H239310   3.490   4.090   8.571  1.4898 -2.9141 -0.6121
 5039TIP3   OH239311   3.473   0.449   9.849  0.3169  0.7832 -0.0295
 5039TIP3    H139312   3.468   0.490   9.935  2.6825 -0.9018  1.0200
 5039TIP3    H239313   3.465   0.521   9.787 -1.6407  2.0174  1.5402
 5040TIP3   OH239314   4.140   1.864   2.579  0.0236 -0.5033  0.2981
 5040TIP3    H139315   4.198   1.788   2.588  1.2556  0.2992 -0.5300
 5040TIP3    H239316   4.140   1.904   2.666  1.5875  0.0671  0.0714
 5041TIP3   OH239317   1.148   5.856   7.889  0.9152 -0.2012 -0.2015
 5041TIP3    H139318   1.088   5.793   7.928  0.9171  0.8003  1.5449
 5041TIP3    H239319   1.235   5.827   7.917  0.8733  0.8599  1.1321
 5042TIP3   OH239320   3.833   5.525   9.483  0.3108 -0.1910  0.3089
 5042TIP3    H139321   3.929   5.528   9.477  0.3001 -0.5565 -0.1420
 5042TIP3    H239322   3.812   5.572   9.564  0.5971  3.4255 -1.5265
 5043TIP3   OH239323   2.125   4.481   0.102  0.0421  0.4806 -0.0118
 5043TIP3    H139324   2.108   4.436   0.185  2.7926  1.3726  1.1543
 5043TIP3    H239325   2.200   4.435   0.064  0.7276  1.9181 -0.4897
 5044TIP3   OH239326   1.062   4.153   7.618  0.1994  0.2996 -0.2833
 5044TIP3    H139327   1.095   4.234   7.578  0.7445 -0.0315 -0.5148
 5044TIP3    H239328   1.141   4.100   7.633 -0.1930 -0.3632 -0.5304
 5045TIP3   OH239329   2.731   2.271   2.146 -0.2151 -0.1252 -0.6979
 5045TIP3    H139330   2.802   2.306   2.091 -0.5831  0.1109 -1.0304
 5045TIP3    H239331   2.771   2.257   2.231  0.1895  0.1767 -0.8345
 5046TIP3   OH239332   7.158   1.592   0.811  0.0172 -0.8453  0.0991
 5046TIP3    H139333   7.136   1.524   0.748  2.2155  0.5404 -2.4050
 5046TIP3    H239334   7.083   1.597   0.870 -0.9971 -4.0745 -0.7631
 5047TIP3   OH239335   1.564   2.681   0.649  0.0897 -0.7013 -0.2466
 5047TIP3    H139336   1.535   2.772   0.638  0.7155 -0.3860  0.5887
 5047TIP3    H239337   1.505   2.645   0.715 -0.1155 -0.8764 -0.5285
 5048TIP3   OH239338   3.369   7.472   9.209 -0.4767  0.5781 -0.3703
 5048TIP3    H139339   3.372   7.495   9.301 -2.8440 -0.8188  0.1299
 5048TIP3    H239340   3.453   7.427   9.192 -0.3448  0.1594  1.2937
 5049TIP3   OH239341   1.037   3.380   9.585  0.2025  0.6744  0.1800
 5049TIP3    H139342   1.053   3.448   9.650 -0.0411  0.1070  0.8418
 5049TIP3    H239343   1.049   3.298   9.632 -2.2631  0.2030  0.1384
 5050TIP3   OH239344   0.134   0.702   0.330  0.0502  0.2488 -0.0717
 5050TIP3    H139345   0.154   0.673   0.241 -2.0755  0.5742 -0.7236
 5050TIP3    H239346   0.199   0.659   0.384  1.3046 -0.0935 -1.7588
 5051TIP3   OH239347   2.022   2.732   7.852 -0.2412 -0.0828  0.1297
 5051TIP3    H139348   1.931   2.714   7.830 -0.3058  1.0775 -0.5890
 5051TIP3    H239349   2.023   2.739   7.948 -1.2849  1.7572  0.0494
 5052TIP3   OH239350   4.012   5.837   0.243  0.4928 -0.3146 -0.0446
 5052TIP3    H139351   3.958   5.787   0.305  0.3418 -0.7514 -0.5215
 5052TIP3    H239352   3.987   5.928   0.257  1.4652 -0.2416  1.5301
 5053TIP3   OH239353   1.351   0.890   7.581 -0.4053  0.5870 -0.0624
 5053TIP3    H139354   1.320   0.937   7.504  0.7485 -0.4204 -1.2118
 5053TIP3    H239355   1.436   0.854   7.554 -0.7582 -1.2627  1.0735
 5054TIP3   OH239356   1.314   5.315   8.228  0.0805  0.0184  0.1049
 5054TIP3    H139357   1.220   5.307   8.208 -0.1779 -0.5385  1.4116
 5054TIP3    H239358   1.354   5.337   8.145 -1.2201  0.2886 -0.4818
 5055TIP3   OH239359   0.820   0.599   0.524 -0.1926  0.5554 -0.6659
 5055TIP3    H139360   0.864   0.587   0.440 -0.3543  2.2740 -1.0331
 5055TIP3    H239361   0.864   0.674   0.564 -1.4863  1.0897 -0.1844
 5056TIP3   OH239362   1.732   0.697   6.747  0.0174  0.2084  0.2728
 5056TIP3    H139363   1.689   0.781   6.733 -0.0683  0.3009  1.0508
 5056TIP3    H239364   1.823   0.720   6.766  0.5309 -0.0038 -1.7386
 5057TIP3   OH239365   5.499   6.200   7.678  0.6914  0.2590 -0.1943
 5057TIP3    H139366   5.570   6.154   7.633  1.5767  1.4910 -0.0955
 5057TIP3    H239367   5.543   6.268   7.728 -0.5750  1.1097 -0.2103
 5058TIP3   OH239368   5.971   0.889   3.269  0.1544 -0.0011 -0.1409
 5058TIP3    H139369   5.957   0.978   3.300 -0.1211 -0.7800  2.2395
 5058TIP3    H239370   6.047   0.895   3.211 -0.3106  1.8572 -0.6108
 5059TIP3   OH239371   1.643   4.167   0.279  0.0844  0.0639  0.0324
 5059TIP3    H139372   1.612   4.076   0.277 -1.8712  0.6652  0.8727
 5059TIP3    H239373   1.601   4.207   0.203  0.7285  0.3350 -0.1820
 5060TIP3   OH239374   0.995   2.151   9.219 -0.0235  1.1157 -0.8414
 5060TIP3    H139375   1.008   2.210   9.145 -2.4915  0.4644 -1.9035
 5060TIP3    H239376   1.022   2.065   9.188  2.2782  1.3752  0.2562
 5061TIP3   OH239377   5.620   2.005   7.206 -0.2319  0.1080  0.1806
 5061TIP3    H139378   5.706   1.971   7.232 -0.1313 -2.1400 -2.6549
 5061TIP3    H239379   5.639   2.065   7.134 -1.0202  0.0474 -0.0820
 5062TIP3   OH239380   5.726   1.035   0.251 -0.8519  0.3229  0.0849
 5062TIP3    H139381   5.784   1.067   0.183  0.4782 -1.9401  0.0433
 5062TIP3    H239382   5.757   0.946   0.269 -0.9793  0.8596  3.8163
 5063TIP3   OH239383   3.138   4.800   8.180  0.1256  0.0257 -0.0357
 5063TIP3    H139384   3.232   4.789   8.195  0.3431  1.3075 -0.3349
 5063TIP3    H239385   3.105   4.841   8.260 -0.0575  0.1637 -0.1813
 5064TIP3   OH239386   6.895   1.657   1.610 -0.1180  0.1623 -0.1335
 5064TIP3    H139387   6.806   1.682   1.583  0.3400  0.8532 -1.0416
 5064TIP3    H239388   6.931   1.612   1.533 -1.2458 -4.4206  1.6457
 5065TIP3   OH239389   3.147  -0.026   0.310 -0.2467 -0.8583 -0.5466
 5065TIP3    H139390   3.106  -0.113   0.316 -1.2705 -0.3256  0.4122
 5065TIP3    H239391   3.099   0.018   0.241  0.1490 -0.9774 -0.9026
 5066TIP3   OH239392   1.806   3.585   2.461 -0.0707  1.2148  0.5267
 5066TIP3    H139393   1.805   3.565   2.554 -0.2174  0.9812  0.4761
 5066TIP3    H239394   1.768   3.673   2.455  0.7539  1.5989  0.7680
 5067TIP3   OH239395   5.366   1.931   9.306  0.1599  0.1678  0.2639
 5067TIP3    H139396   5.442   1.874   9.314  0.0943  0.1752  1.0225
 5067TIP3    H239397   5.291   1.871   9.303  0.1214  0.1962  0.6198
 5068TIP3   OH239398   1.504   3.427   0.600  0.5701 -0.3822 -0.0543
 5068TIP3    H139399   1.456   3.398   0.677 -1.6872  0.9999 -0.8326
 5068TIP3    H239400   1.497   3.355   0.538 -0.7163 -0.1623 -0.2025
 5069TIP3   OH239401   0.736   5.402   2.009  0.0069  0.5939 -0.3985
 5069TIP3    H139402   0.708   5.314   1.982  0.3337  1.1751 -2.8174
 5069TIP3    H239403   0.831   5.401   1.997  0.1182  1.0382  0.3942
 5070TIP3   OH239404   0.122   1.249   7.332 -0.5324 -0.5603  0.5789
 5070TIP3    H139405   0.072   1.266   7.253  0.0341 -1.8347 -0.0992
 5070TIP3    H239406   0.056   1.238   7.400 -1.0257  0.6336  0.3100
 5071TIP3   OH239407   6.936   0.196   0.463 -0.5700 -0.0246 -0.3097
 5071TIP3    H139408   6.968   0.262   0.402 -0.9037 -0.8057 -1.3583
 5071TIP3    H239409   7.015   0.162   0.505 -0.1378 -0.7468 -1.6452
 5072TIP3   OH239410   4.074   2.676   8.113 -0.0052  0.1068  0.0798
 5072TIP3    H139411   4.008   2.636   8.055 -0.0390  1.0052 -0.5172
 5072TIP3    H239412   4.134   2.605   8.133  0.2362 -0.1365 -1.4034
 5073TIP3   OH239413   1.279   0.338   9.930  1.0500  0.0158  0.3616
 5073TIP3    H139414   1.322   0.367   9.850  1.3956 -0.5032  0.3505
 5073TIP3    H239415   1.186   0.354   9.915  1.0548 -0.5636 -0.3654
 5074TIP3   OH239416   2.736   6.583   8.706 -0.2949  0.1551 -0.4341
 5074TIP3    H139417   2.741   6.488   8.697 -0.6801  0.1666 -0.7853
 5074TIP3    H239418   2.824   6.614   8.683 -0.2278 -0.1010 -0.5230
 5075TIP3   OH239419   6.473   7.509   0.079 -0.3043 -1.0074 -0.3233
 5075TIP3    H139420   6.551   7.452   0.077  1.3544  1.0804  0.8461
 5075TIP3    H239421   6.489   7.573   0.010 -2.0980 -1.8128 -1.5515
 5076TIP3   OH239422   0.147   7.544   1.159  0.3606  0.1227  0.7960
 5076TIP3    H139423   0.059   7.566   1.191 -0.1994 -0.7529 -0.1036
 5076TIP3    H239424   0.154   7.589   1.075  0.6078 -0.1802  0.6545
 5077TIP3   OH239425   0.150   2.114   0.539  0.4604  0.3088 -0.3562
 5077TIP3    H139426   0.168   2.108   0.445  1.0671  1.9912 -0.3926
 5077TIP3    H239427   0.143   2.208   0.555 -0.3288  0.0097  1.1707
 5078TIP3   OH239428   5.968   5.929   6.893  0.5245 -0.0294  0.2312
 5078TIP3    H139429   5.953   5.847   6.847 -0.1491 -0.4966  1.2580
 5078TIP3    H239430   5.882   5.955   6.925  0.3498  2.1051 -1.7050
 5079TIP3   OH239431   4.177   1.649   7.976 -0.0973  0.8013  0.1788
 5079TIP3    H139432   4.239   1.651   7.904  0.7124 -2.4212  0.6197
 5079TIP3    H239433   4.228   1.677   8.052  0.5289 -0.6087  0.3120
 5080TIP3   OH239434   0.437   1.330   9.027 -0.3145  0.3104 -0.0353
 5080TIP3    H139435   0.356   1.350   8.981 -1.1686  1.3366  1.7907
 5080TIP3    H239436   0.491   1.408   9.016 -0.2090  0.2472  0.0311
 5081TIP3   OH239437   0.853   2.635   0.460 -0.5701 -0.8766  0.2649
 5081TIP3    H139438   0.880   2.564   0.401 -0.1231 -0.7634  0.3292
 5081TIP3    H239439   0.879   2.715   0.414 -1.4279 -0.7329  0.0128
 5082TIP3   OH239440   0.983   4.710   0.444  0.0150 -0.2798  0.3186
 5082TIP3    H139441   0.969   4.622   0.479 -0.2401 -1.2462 -2.0176
 5082TIP3    H239442   0.931   4.712   0.364 -0.2348  2.1439  0.4845
 5083TIP3   OH239443   6.967   5.838   8.908 -0.1285  0.1897  0.3885
 5083TIP3    H139444   6.939   5.921   8.947 -1.2518 -0.2062  0.4419
 5083TIP3    H239445   6.895   5.777   8.925 -0.2713 -0.2413 -1.4621
 5084TIP3   OH239446   0.301   1.017   7.428 -0.4751 -0.0034  0.1254
 5084TIP3    H139447   0.256   1.101   7.430 -0.3818  0.0443  0.2370
 5084TIP3    H239448   0.275   0.978   7.344  0.0746  0.4619 -0.2661
 5085TIP3   OH239449   2.751   6.296   0.090 -0.1640 -0.1479  0.4315
 5085TIP3    H139450   2.840   6.260   0.098  0.1873  0.5426 -0.3183
 5085TIP3    H239451   2.705   6.260   0.166  0.6261 -0.8755  0.5893
 5086TIP3   OH239452   0.155   1.694   0.828  1.3579 -0.4233 -0.1502
 5086TIP3    H139453   0.188   1.605   0.813  1.1904 -0.6264  0.6426
 5086TIP3    H239454   0.153   1.734   0.741  0.5646 -1.4975 -0.6476
 5087TIP3   OH239455   2.434   6.521   9.744  0.2620 -0.1796  0.4370
 5087TIP3    H139456   2.457   6.479   9.827  0.8922 -0.3111  0.2021
 5087TIP3    H239457   2.341   6.502   9.733  0.2418 -0.4172  0.9686
 5088TIP3   OH239458   6.011   1.248   7.877  0.0218  0.3519  0.1623
 5088TIP3    H139459   6.023   1.180   7.811  1.3610  0.9303 -0.2243
 5088TIP3    H239460   5.959   1.315   7.833 -0.5507 -0.0295  0.2575
 5089TIP3   OH239461   2.121   2.157   9.888 -0.1605 -0.0726  0.3408
 5089TIP3    H139462   2.047   2.203   9.928  0.3904  0.3074  0.9600
 5089TIP3    H239463   2.102   2.155   9.795 -0.7571  0.3779  0.4528
 5090TIP3   OH239464   3.190   3.026   8.012  0.4019 -0.3037  0.1628
 5090TIP3    H139465   3.107   3.057   8.048  0.9637  0.2625  1.0220
 5090TIP3    H239466   3.237   2.991   8.088  0.7608 -1.0661 -0.3947
 5091TIP3   OH239467   2.374   0.542   2.050 -0.1704 -0.0132  0.0375
 5091TIP3    H139468   2.402   0.622   2.094 -0.6448  1.2343 -1.8097
 5091TIP3    H239469   2.288   0.564   2.013 -0.0551 -1.1955 -1.0041
 5092TIP3   OH239470   1.912   2.367   1.431  0.0786 -0.6039 -0.2884
 5092TIP3    H139471   1.968   2.291   1.444  3.8139  2.0148  0.4360
 5092TIP3    H239472   1.888   2.395   1.519  0.4928  0.2380 -0.4355
 5093TIP3   OH239473   2.891   1.063   8.474  0.2949  0.3245  0.0401
 5093TIP3    H139474   2.866   1.038   8.563 -0.9329  0.4646 -0.2567
 5093TIP3    H239475   2.904   0.981   8.428 -0.4341  0.2344 -0.0176
 5094TIP3   OH239476   3.204   4.903   9.568  0.0298 -0.5060  0.1255
 5094TIP3    H139477   3.212   4.819   9.613  0.2149 -0.8562 -0.5399
 5094TIP3    H239478   3.214   4.969   9.637 -0.4190 -1.0247  0.7053
 5095TIP3   OH239479   1.297   6.093   9.725 -0.2241  0.1313 -0.3013
 5095TIP3    H139480   1.354   6.033   9.773  0.5014  0.9773 -0.0859
 5095TIP3    H239481   1.217   6.097   9.779  0.1169  0.1441  0.2088
 5096TIP3   OH239482   2.358   6.730   3.026 -0.6834  0.1883  0.6170
 5096TIP3    H139483   2.365   6.654   3.084 -1.2292 -0.5730 -0.2891
 5096TIP3    H239484   2.279   6.714   2.975 -1.1524  1.6788  0.8329
 5097TIP3   OH239485   0.571   6.498   0.772  0.0974 -0.0828  0.3614
 5097TIP3    H139486   0.549   6.584   0.809  1.0323 -0.0885  0.9535
 5097TIP3    H239487   0.656   6.511   0.730  0.0986 -0.6432  0.1878
 5098TIP3   OH239488   7.335   7.205   7.583  0.7139 -0.1936 -0.5228
 5098TIP3    H139489   7.287   7.166   7.656  0.4806  0.6848 -0.1905
 5098TIP3    H239490   7.280   7.190   7.506  1.2207 -1.6253 -0.6501
 5099TIP3   OH239491   5.893   0.097   9.830  0.2281 -0.3168  0.4431
 5099TIP3    H139492   5.857   0.169   9.882  0.0823  0.4060 -0.6305
 5099TIP3    H239493   5.816   0.047   9.803  0.4337 -2.2886  3.0825
 5100TIP3   OH239494   6.394   7.363   2.501  0.2229  0.3492 -0.3197
 5100TIP3    H139495   6.388   7.272   2.472  0.3086  0.5231 -0.8905
 5100TIP3    H239496   6.303   7.390   2.513  0.2195 -0.0452  0.6065
 5101TIP3   OH239497   0.455   5.469   6.924 -0.2087 -0.3161  0.6009
 5101TIP3    H139498   0.393   5.521   6.872  0.2376 -1.5211 -1.2447
 5101TIP3    H239499   0.402   5.399   6.963 -1.0055  1.9058  3.9261
 5102TIP3   OH239500   1.837   5.849   8.641 -0.2804  0.1404 -0.3306
 5102TIP3    H139501   1.930   5.851   8.618 -0.3518 -1.5019 -0.9198
 5102TIP3    H239502   1.831   5.898   8.724  1.0654  0.4180 -0.3802
 5103TIP3   OH239503   7.594   3.189   8.915  0.2529  0.5127  0.5554
 5103TIP3    H139504   7.657   3.221   8.851 -0.5537  0.3056 -0.3558
 5103TIP3    H239505   7.511   3.230   8.890 -0.5674 -1.3448  0.0449
 5104TIP3   OH239506   6.523   2.893   3.098  0.0267  0.1940 -0.0101
 5104TIP3    H139507   6.482   2.878   3.013  0.3701 -0.0188 -0.1392
 5104TIP3    H239508   6.595   2.954   3.080  0.5710 -0.4349 -0.0027
 5105TIP3   OH239509   5.603   3.700   7.735 -0.1400  0.1542  0.7721
 5105TIP3    H139510   5.564   3.688   7.648 -3.1349 -0.0382  2.0009
 5105TIP3    H239511   5.626   3.611   7.763  0.0760  0.1224  0.4979
 5106TIP3   OH239512   4.935   0.620   7.753 -0.7250 -0.2236 -1.2429
 5106TIP3    H139513   4.890   0.621   7.668  0.4111 -0.0527 -1.8598
 5106TIP3    H239514   4.952   0.528   7.769  0.3713 -0.1585 -1.9335
 5107TIP3   OH239515   3.980   3.570   8.827 -0.1287 -0.3346  0.4980
 5107TIP3    H139516   3.886   3.552   8.836 -0.4348  0.6346 -0.4732
 5107TIP3    H239517   4.015   3.561   8.915 -1.7154  2.2595  1.5360
 5108TIP3   OH239518   3.034   1.767   0.153 -0.3361 -0.3285  0.0592
 5108TIP3    H139519   2.966   1.828   0.181  0.1225 -0.3926  1.3831
 5108TIP3    H239520   3.075   1.810   0.078 -0.0019  1.0434  0.9814
 5109TIP3   OH239521   1.493   7.390   8.919 -0.2905  0.1138 -0.1132
 5109TIP3    H139522   1.512   7.450   8.847  1.2983  0.0491  0.2161
 5109TIP3    H239523   1.408   7.417   8.952 -1.0830  0.1096 -2.0411
 5110TIP3   OH239524   1.723   0.208   7.571  0.3277 -0.0894 -0.0334
 5110TIP3    H139525   1.640   0.254   7.576  1.8267  2.7283  1.4979
 5110TIP3    H239526   1.705   0.122   7.610 -1.8961  0.3324  0.0094
 5111TIP3   OH239527   2.914   3.318   9.457  0.1035  0.5209  0.8076
 5111TIP3    H139528   2.839   3.295   9.511 -0.2958  1.0038  0.4678
 5111TIP3    H239529   2.913   3.413   9.453 -0.2834  0.4804 -0.6019
 5112TIP3   OH239530   5.831   5.501   8.224  0.1928  0.2077 -0.2825
 5112TIP3    H139531   5.804   5.438   8.157 -0.3612 -1.9905  1.8912
 5112TIP3    H239532   5.926   5.509   8.211  0.0265  0.3180 -1.6661
 5113TIP3   OH239533   3.718   1.021   9.452 -0.0624  0.1517 -0.6002
 5113TIP3    H139534   3.636   1.050   9.410  0.3719 -0.2405 -1.7769
 5113TIP3    H239535   3.711   0.926   9.456  0.1184  0.1527 -0.2189
 5114TIP3   OH239536   6.954   4.040   8.594 -0.1579 -0.7169  0.0646
 5114TIP3    H139537   6.906   3.973   8.545 -0.5701  0.0489 -0.6052
 5114TIP3    H239538   7.041   4.002   8.607  0.2387 -0.6144 -2.0074
 5115TIP3   OH239539   5.972   1.395   8.313 -0.5454  0.1690  0.2528
 5115TIP3    H139540   5.983   1.311   8.357  2.2158 -0.1436 -0.8476
 5115TIP3    H239541   5.953   1.457   8.384  0.8873 -0.8004  1.5588
 5116TIP3   OH239542   2.333   1.982   2.249  0.0993 -0.4784 -0.5635
 5116TIP3    H139543   2.387   2.007   2.324 -1.7721 -0.4119  0.8215
 5116TIP3    H239544   2.393   1.988   2.174  1.8881 -0.0216  0.8220
 5117TIP3   OH239545   3.048   2.308   1.410 -0.5074  0.5831 -0.3688
 5117TIP3    H139546   3.137   2.288   1.382 -1.3453 -1.7633 -1.6043
 5117TIP3    H239547   3.056   2.331   1.503  1.2160 -1.0890 -0.0510
 5118TIP3   OH239548   2.102   3.590   8.205  0.6972  0.3451 -0.0527
 5118TIP3    H139549   2.127   3.681   8.223 -0.5320  0.7142 -0.1125
 5118TIP3    H239550   2.064   3.559   8.287 -0.4168  0.4424 -0.5114
 5119TIP3   OH239551   7.667   5.943   0.856 -0.3776 -0.6692  0.0703
 5119TIP3    H139552   7.628   5.879   0.915 -1.1502  0.8820  1.3195
 5119TIP3    H239553   7.685   6.019   0.911 -0.3017  0.5124 -1.5194
 5120TIP3   OH239554   4.130   2.085   9.730  0.1589 -0.8274  0.4855
 5120TIP3    H139555   4.137   2.040   9.645  1.1016  0.2040 -0.0111
 5120TIP3    H239556   4.159   2.021   9.794  2.1878 -0.7392 -0.2864
 5121TIP3   OH239557   6.548   1.951   0.215  0.6464 -0.0111  0.0802
 5121TIP3    H139558   6.575   1.973   0.304 -0.5930 -1.4191  0.8462
 5121TIP3    H239559   6.600   2.009   0.159 -0.1564  2.4853  1.7779
 5122TIP3   OH239560   7.154   6.574   0.087 -0.1149 -0.5781 -0.1362
 5122TIP3    H139561   7.089   6.644   0.080  0.5041  0.0031 -0.1914
 5122TIP3    H239562   7.225   6.602   0.029  1.2139 -0.0377  1.6802
 5123TIP3   OH239563   3.012   2.892   0.663  0.3292 -0.0235  0.1527
 5123TIP3    H139564   3.061   2.811   0.645  0.1034  0.2172 -1.7149
 5123TIP3    H239565   3.069   2.962   0.633  0.2455  0.5018  1.1641
 5124TIP3   OH239566   7.398   6.845   0.706  0.8119  0.2859  0.0085
 5124TIP3    H139567   7.482   6.850   0.661  0.0331  2.2144 -1.3632
 5124TIP3    H239568   7.351   6.924   0.679 -0.9509 -0.0701  1.7614
 5125TIP3   OH239569   3.226   0.487   7.804 -0.2837 -0.2186 -0.1917
 5125TIP3    H139570   3.231   0.392   7.808 -2.2402 -0.3828 -0.8485
 5125TIP3    H239571   3.157   0.505   7.740  0.6892  1.6609 -0.7744
 5126TIP3   OH239572   0.634   6.938   9.409 -0.2439 -0.2097  0.2128
 5126TIP3    H139573   0.576   6.869   9.442 -1.1385 -0.3354 -1.5163
 5126TIP3    H239574   0.605   7.018   9.453 -2.5726 -0.0463 -1.4513
 5127TIP3   OH239575   4.988   1.178   6.904  0.5411  0.0410 -0.5735
 5127TIP3    H139576   5.022   1.143   6.821  1.6261 -0.3148 -0.0039
 5127TIP3    H239577   4.916   1.119   6.927  0.0151  0.3327 -1.4106
 5128TIP3   OH239578   6.167   6.013   9.774  0.3680 -0.1746  0.2947
 5128TIP3    H139579   6.072   6.003   9.774  0.4241 -1.3952 -1.8273
 5128TIP3    H239580   6.200   5.923   9.773  1.5833  0.2279  1.4608
 5129TIP3   OH239581   2.301   4.403   9.506 -0.1949  0.1361  0.0915
 5129TIP3    H139582   2.221   4.450   9.528  0.2104  1.5488 -1.3368
 5129TIP3    H239583   2.276   4.311   9.507 -1.3060  0.4230  1.7144
 5130TIP3   OH239584   1.581   3.912   2.030 -0.3777 -0.1846  0.2135
 5130TIP3    H139585   1.538   3.845   2.084 -0.9450  0.3354  0.4142
 5130TIP3    H239586   1.635   3.961   2.092  0.4063 -0.7462 -0.0133
 5131TIP3   OH239587   3.221   2.765   0.920  0.3624 -0.2525  0.1036
 5131TIP3    H139588   3.238   2.747   0.827 -1.7228 -0.3512 -0.3091
 5131TIP3    H239589   3.273   2.700   0.967 -0.5923 -1.9768 -1.1091
 5132TIP3   OH239590   1.720   6.227   8.361  0.4810  0.4745 -0.5687
 5132TIP3    H139591   1.639   6.202   8.405 -0.1208  1.4717 -1.0436
 5132TIP3    H239592   1.786   6.168   8.395 -0.6325 -0.9824 -0.8474
 5133TIP3   OH239593   4.196   5.582   9.700 -0.5384 -0.5652  0.3778
 5133TIP3    H139594   4.160   5.646   9.762  1.7140  0.4792  0.6965
 5133TIP3    H239595   4.258   5.531   9.751 -0.1987 -1.0959 -0.5474
 5134TIP3   OH239596   4.113   2.191   1.188 -0.5176 -0.2239 -0.0991
 5134TIP3    H139597   4.168   2.269   1.195 -0.1526 -0.3184 -1.5502
 5134TIP3    H239598   4.138   2.151   1.104 -0.5303 -2.0289  0.6916
 5135TIP3   OH239599   0.152   1.057   8.372  0.1672  0.0225  0.3317
 5135TIP3    H139600   0.090   1.111   8.421 -0.1015  1.0560 -1.1062
 5135TIP3    H239601   0.236   1.100   8.384  0.2316 -0.1339  0.4549
 5136TIP3   OH239602   7.563   6.500   9.628 -0.2364  0.4729  0.0965
 5136TIP3    H139603   7.478   6.493   9.585  0.3495 -0.9085 -0.9460
 5136TIP3    H239604   7.567   6.591   9.659 -1.1257  1.2761 -1.9300
 5137TIP3   OH239605   6.457   1.670   8.706 -0.2986  0.7054  0.0904
 5137TIP3    H139606   6.466   1.734   8.777 -0.1602 -1.3594  2.0381
 5137TIP3    H239607   6.479   1.586   8.746 -0.8340 -0.6524 -2.2656
 5138TIP3   OH239608   1.943   7.499   2.619 -0.0482 -0.2292 -0.2143
 5138TIP3    H139609   1.945   7.509   2.714  0.9529 -0.3862 -0.2140
 5138TIP3    H239610   1.853   7.522   2.595 -0.3462 -0.3044  0.7777
 5139TIP3   OH239611   1.899   4.078   9.458 -0.0522 -0.0006 -0.4679
 5139TIP3    H139612   1.814   4.035   9.471  0.7647 -1.7412 -0.5308
 5139TIP3    H239613   1.930   4.099   9.546 -0.2004 -0.0742 -0.3983
 5140TIP3   OH239614   3.582   2.361   8.334  0.0030 -0.2942 -0.3290
 5140TIP3    H139615   3.647   2.342   8.266 -0.1069 -0.5723 -0.3568
 5140TIP3    H239616   3.627   2.421   8.393  0.0789  0.0011 -0.6806
 5141TIP3   OH239617   7.213   0.980   8.291 -0.4603 -0.3532  0.2910
 5141TIP3    H139618   7.162   1.048   8.335  0.0986 -0.8189  1.7089
 5141TIP3    H239619   7.150   0.938   8.232 -0.8037  1.3838 -0.6513
 5142TIP3   OH239620   0.411   0.886   8.874 -0.3456 -0.0322 -0.5829
 5142TIP3    H139621   0.361   0.817   8.918 -1.1887  0.1605 -1.2243
 5142TIP3    H239622   0.363   0.903   8.793  0.2041  0.8640 -0.7338
 5143TIP3   OH239623   6.524   1.444   7.752  0.0579 -0.3477 -0.1155
 5143TIP3    H139624   6.617   1.429   7.769  0.1736  0.0200 -0.4232
 5143TIP3    H239625   6.503   1.525   7.797  0.0893  0.0142 -0.7450
 5144TIP3   OH239626  -0.010   2.156   9.006 -0.6031  0.4596 -0.0604
 5144TIP3    H139627  -0.102   2.131   9.009 -1.3991  3.1051  0.9599
 5144TIP3    H239628   0.001   2.196   8.920 -0.3319 -0.0919 -0.2827
 5145TIP3   OH239629   7.141   5.165   7.621 -0.1422  0.0698 -0.1557
 5145TIP3    H139630   7.180   5.248   7.648 -0.2683  0.0082  0.2201
 5145TIP3    H239631   7.153   5.162   7.526 -0.7350  0.8261 -0.2607
 5146TIP3   OH239632   4.553   1.932   1.600  0.7555  0.6666 -0.4175
 5146TIP3    H139633   4.603   1.919   1.680  0.0135  0.6522  0.0568
 5146TIP3    H239634   4.575   1.857   1.545  0.4131  0.0860  0.2302
 5147TIP3   OH239635   5.838   7.011   9.172  0.1055  0.4292  0.6770
 5147TIP3    H139636   5.800   6.978   9.091 -1.0516 -2.1911  2.1523
 5147TIP3    H239637   5.917   6.958   9.185 -0.1723  0.2179  1.6277
 5148TIP3   OH239638   4.529   1.992   0.845 -0.6139 -0.3198 -0.5834
 5148TIP3    H139639   4.504   2.031   0.761 -0.3623  1.9031  0.3048
 5148TIP3    H239640   4.452   2.005   0.901  0.0331  0.3634  0.1833
 5149TIP3   OH239641   2.438   3.957   0.142 -0.0405 -0.8138  0.8229
 5149TIP3    H139642   2.435   3.900   0.065  0.8769  0.6020 -0.3121
 5149TIP3    H239643   2.346   3.978   0.160 -0.2042  0.2570 -1.0241
 5150TIP3   OH239644   6.842   4.637   9.336 -0.2270  0.6878  0.0620
 5150TIP3    H139645   6.911   4.663   9.397 -0.9186 -2.4305  2.4308
 5150TIP3    H239646   6.819   4.548   9.362 -3.2747  0.5705 -2.3986
 5151TIP3   OH239647   0.581   1.279   7.684  0.4264  0.3287  0.2091
 5151TIP3    H139648   0.563   1.185   7.682 -1.6185  0.6337 -3.0886
 5151TIP3    H239649   0.668   1.289   7.646  1.4965 -0.2581  2.3587
 5152TIP3   OH239650   6.695   3.655   0.968  0.2879  0.3230  0.3156
 5152TIP3    H139651   6.608   3.623   0.946 -0.7059  0.1619  3.7945
 5152TIP3    H239652   6.692   3.749   0.948  0.3481 -0.1594 -2.1731
 5153TIP3   OH239653   4.606   1.548   9.081 -0.6570 -0.4393  0.8360
 5153TIP3    H139654   4.616   1.539   9.176  0.2628  0.0704  0.7968
 5153TIP3    H239655   4.600   1.458   9.050  3.3460 -0.9027  0.9688
 5154TIP3   OH239656   0.600   4.175   9.842 -0.3667  0.4289 -0.1354
 5154TIP3    H139657   0.596   4.244   9.909 -1.6375  0.9268 -0.6903
 5154TIP3    H239658   0.586   4.094   9.890  2.1547  0.3796  0.6947
 5155TIP3   OH239659   6.016   1.322   9.856  0.6998  0.2189 -0.2890
 5155TIP3    H139660   5.961   1.363   9.790  0.9959  2.2306  0.6403
 5155TIP3    H239661   6.049   1.243   9.814 -2.4823 -0.8480 -1.0548
 5156TIP3   OH239662   6.352   2.839   8.692 -0.2632  0.0460 -0.1428
 5156TIP3    H139663   6.297   2.864   8.618 -1.1240  1.3353  0.8786
 5156TIP3    H239664   6.297   2.782   8.745 -1.1098  2.2014  1.4420
 5157TIP3   OH239665   5.933   1.185   7.535  0.1354  0.1922 -0.1321
 5157TIP3    H139666   5.970   1.258   7.486 -1.9648 -0.0559 -2.2785
 5157TIP3    H239667   5.848   1.217   7.565 -0.8062 -1.2826 -1.0790
 5158TIP3   OH239668   2.951   4.022   7.568 -0.6780 -0.6188  0.0559
 5158TIP3    H139669   2.904   3.996   7.489  1.0564  1.3006 -1.7396
 5158TIP3    H239670   3.034   3.974   7.563 -1.2530 -1.8601  1.7148
 5159TIP3   OH239671   3.923   2.320   9.572 -0.2555  0.1937  0.2532
 5159TIP3    H139672   3.905   2.241   9.521  1.2849 -0.0279  0.0043
 5159TIP3    H239673   4.013   2.343   9.550  0.3693  0.2848  2.6465
 5160TIP3   OH239674   6.858   5.003   1.707  0.1120 -0.2585  0.1391
 5160TIP3    H139675   6.911   5.035   1.633  1.2094 -0.5396  0.7731
 5160TIP3    H239676   6.779   5.056   1.705  0.0604 -0.3489 -1.3235
 5161TIP3   OH239677   2.784   0.400   2.588 -0.5754  0.4178 -0.6505
 5161TIP3    H139678   2.801   0.476   2.644 -0.6296  0.9668 -1.3590
 5161TIP3    H239679   2.823   0.326   2.635  0.8984  1.1299 -0.7123
 5162TIP3   OH239680   6.444   1.336   8.174  0.2212 -0.3447  0.4527
 5162TIP3    H139681   6.437   1.422   8.214 -0.2306 -0.4436  0.5925
 5162TIP3    H239682   6.426   1.352   8.081  0.7264 -0.1984  0.3804
 5163TIP3   OH239683   0.235   0.564   1.199 -0.2811 -0.5745  0.1513
 5163TIP3    H139684   0.223   0.536   1.108  2.0709  0.9446 -0.7029
 5163TIP3    H239685   0.272   0.488   1.243 -1.3269 -1.2865 -0.1677
 5164TIP3   OH239686   4.413   5.606   9.100 -0.2834  0.5215  0.2961
 5164TIP3    H139687   4.418   5.510   9.097 -0.1663  0.4972  1.1172
 5164TIP3    H239688   4.465   5.631   9.176  1.2848  1.3709 -0.9896
 5165TIP3   OH239689   6.235   7.259   8.346 -0.4854 -0.3726  0.0742
 5165TIP3    H139690   6.222   7.278   8.253  0.5159 -0.1127 -0.0124
 5165TIP3    H239691   6.151   7.283   8.387 -0.8659 -0.3084 -0.7231
 5166TIP3   OH239692   6.304   4.258   8.684 -0.6175  0.0518  0.8564
 5166TIP3    H139693   6.267   4.344   8.664 -0.2815 -0.1274 -0.6239
 5166TIP3    H239694   6.360   4.273   8.760 -0.5814  1.1399  0.6232
 5167TIP3   OH239695   1.035   7.483   8.723  0.0566 -1.1173  0.2385
 5167TIP3    H139696   0.979   7.475   8.801  0.5147  1.0193  0.8358
 5167TIP3    H239697   1.098   7.551   8.745  0.5111 -0.7970 -1.8396
 5168TIP3   OH239698   2.324   1.070   7.135  0.3535 -0.6003 -0.5542
 5168TIP3    H139699   2.327   0.988   7.086  0.5322 -0.6753 -0.4173
 5168TIP3    H239700   2.399   1.120   7.103  1.3557 -1.2452  0.6886
 5169TIP3   OH239701   5.064   2.895   7.674  0.2969 -0.0608  0.1313
 5169TIP3    H139702   5.102   2.917   7.760 -0.3941  0.1870  0.3768
 5169TIP3    H239703   5.140   2.868   7.622  0.5694 -1.7446  1.2883
 5170TIP3   OH239704   5.480   7.374   0.865 -0.1084  0.6383  0.1488
 5170TIP3    H139705   5.412   7.317   0.901 -0.9603  0.5528 -1.4563
 5170TIP3    H239706   5.479   7.452   0.921 -0.7818  0.1814  0.7870
 5171TIP3   OH239707   0.050   4.640   6.865 -0.1207 -0.2129  0.3846
 5171TIP3    H139708   0.077   4.686   6.786 -2.3846  0.1602 -0.2291
 5171TIP3    H239709   0.107   4.674   6.934  0.8956  0.5373 -0.7941
 5172TIP3   OH239710   5.527   6.986   0.743 -0.1503  0.6927 -0.4820
 5172TIP3    H139711   5.512   6.925   0.814 -0.4305  0.2618 -0.9022
 5172TIP3    H239712   5.572   7.060   0.783  0.0884  0.2603  0.0529
 5173TIP3   OH239713   1.422   5.108   8.366  0.1501 -0.3711 -0.3387
 5173TIP3    H139714   1.357   5.060   8.417  0.1564  0.6094  0.6215
 5173TIP3    H239715   1.372   5.181   8.328  1.1844  2.4054  3.1083
 5174TIP3   OH239716   0.527   4.158   9.600 -0.2263 -0.2768 -0.0334
 5174TIP3    H139717   0.437   4.186   9.616 -0.3890  0.4441 -1.9455
 5174TIP3    H239718   0.572   4.174   9.683 -0.9530  3.2130 -0.1449
 5175TIP3   OH239719   4.709   1.495   1.521  0.2306 -0.0193 -0.8136
 5175TIP3    H139720   4.701   1.411   1.478 -1.3093 -0.4590  0.2602
 5175TIP3    H239721   4.783   1.485   1.581  0.7590 -0.2193 -1.4881
 5176TIP3   OH239722   1.510   5.737   0.664  0.5160  0.2065  0.6265
 5176TIP3    H139723   1.543   5.783   0.587  1.1214 -0.0582  0.7230
 5176TIP3    H239724   1.439   5.793   0.697  0.9266  0.8271  0.4693
 5177TIP3   OH239725   4.060   2.555   9.818  0.6942  0.1525 -0.3699
 5177TIP3    H139726   4.109   2.600   9.749  0.5502  0.2114 -0.4328
 5177TIP3    H239727   4.068   2.612   9.894  0.7243  0.1615 -0.3789
 5178TIP3   OH239728   3.667   2.217   8.997  1.2048 -0.6714  0.3405
 5178TIP3    H139729   3.674   2.312   8.994 -0.7006 -0.5190 -1.6548
 5178TIP3    H239730   3.597   2.199   9.059 -0.3750 -0.5575 -1.3321
 5179TIP3   OH239731   5.870   0.576   0.104  0.0315 -0.2817  0.0435
 5179TIP3    H139732   5.782   0.540   0.118  0.8317 -1.9229  1.1177
 5179TIP3    H239733   5.880   0.577   0.009 -1.3825  0.5991 -0.1350
 5180TIP3   OH239734   6.898   5.054   0.569 -0.3958  0.2122  0.4847
 5180TIP3    H139735   6.806   5.038   0.552  0.1066 -1.8412 -0.6513
 5180TIP3    H239736   6.926   5.114   0.499 -0.4154 -0.8572 -0.4592
 5181TIP3   OH239737   4.648   1.627   7.885  0.7004  0.2791 -0.5608
 5181TIP3    H139738   4.639   1.613   7.979  0.2894  0.4111 -0.5784
 5181TIP3    H239739   4.667   1.720   7.876 -0.9031  0.6188 -0.6977
 5182TIP3   OH239740   2.261   5.451   2.901  0.0846  0.4695  0.4336
 5182TIP3    H139741   2.191   5.439   2.966  0.5767  0.7681  1.0258
 5182TIP3    H239742   2.276   5.363   2.866  0.9803 -0.0024  1.9457
 5183TIP3   OH239743   6.762   4.467   7.713  0.2504  0.3069  0.2245
 5183TIP3    H139744   6.697   4.497   7.777  1.7081  1.7169  1.0983
 5183TIP3    H239745   6.751   4.525   7.638 -0.3582 -0.3143 -0.1888
 5184TIP3   OH239746   6.648   4.494   1.560  0.5156 -0.2928  0.2925
 5184TIP3    H139747   6.653   4.578   1.604 -0.2659 -0.9291  1.6582
 5184TIP3    H239748   6.676   4.512   1.470 -0.4357  1.5804  0.3308
 5185TIP3   OH239749   4.275   0.331   9.862  0.6957  0.0227  0.5174
 5185TIP3    H139750   4.304   0.288   9.781  1.0222  2.0110 -0.4787
 5185TIP3    H239751   4.183   0.305   9.872  1.0142 -1.2946  0.2679
 5186TIP3   OH239752   5.501   0.176   0.170  0.3682  0.1803 -0.0576
 5186TIP3    H139753   5.454   0.244   0.122  0.0638  0.1255  0.1620
 5186TIP3    H239754   5.435   0.109   0.186  1.2403 -1.5112 -2.7489
 5187TIP3   OH239755   6.865   4.610   9.788 -0.9299 -0.1372  0.4857
 5187TIP3    H139756   6.811   4.579   9.859  0.3948  1.1806  2.1656
 5187TIP3    H239757   6.844   4.704   9.781 -1.1570 -0.2649 -1.0050
 5188TIP3   OH239758   2.296   5.117   8.311  0.4725 -0.2576  0.4722
 5188TIP3    H139759   2.333   5.184   8.253  1.1909 -1.1500 -0.1136
 5188TIP3    H239760   2.355   5.042   8.303 -0.5896 -1.1500  0.7502
 5189TIP3   OH239761   3.447   6.668   8.128 -0.0427 -0.1224  0.8576
 5189TIP3    H139762   3.368   6.615   8.118  0.4610 -0.7705  0.1918
 5189TIP3    H239763   3.443   6.731   8.055  0.6964 -1.0132  0.0246
 5190TIP3   OH239764   2.201   7.432   1.071 -0.5073 -0.3060 -0.3955
 5190TIP3    H139765   2.239   7.435   1.159 -0.6568 -1.1397 -0.2910
 5190TIP3    H239766   2.219   7.518   1.034  1.3487 -0.6172 -0.2897
 5191TIP3   OH239767   3.435   3.082   7.900 -0.0761 -1.2203 -0.6973
 5191TIP3    H139768   3.420   3.071   7.806 -1.8330  1.1867 -0.7883
 5191TIP3    H239769   3.368   3.027   7.941 -2.2692  1.0787 -0.9872
 5192TIP3   OH239770   3.954   5.363   8.545  0.6563  0.3265 -0.2753
 5192TIP3    H139771   3.866   5.330   8.527  0.9175 -0.0639 -0.8888
 5192TIP3    H239772   3.995   5.296   8.600  0.5256  0.5794  0.1362
 5193TIP3   OH239773   3.789   1.043   6.828 -0.1364 -0.2027  0.0904
 5193TIP3    H139774   3.797   1.001   6.742  2.1027 -0.3256  0.2865
 5193TIP3    H239775   3.705   1.088   6.825 -0.7283 -1.3124 -1.6572
 5194TIP3   OH239776   5.138   7.118   7.968  0.2205  0.0973 -0.0905
 5194TIP3    H139777   5.091   7.202   7.968  2.1060  1.2301 -0.8267
 5194TIP3    H239778   5.142   7.094   8.061  1.3552  1.9017  0.3893
 5195TIP3   OH239779   4.436   7.276   7.798  0.0209 -0.4155  0.0082
 5195TIP3    H139780   4.364   7.331   7.767  0.1692  0.1640  0.6461
 5195TIP3    H239781   4.397   7.222   7.867  0.2818  0.2456  0.6978
 5196TIP3   OH239782   5.067   7.543   0.081  0.4490  0.0123  0.0997
 5196TIP3    H139783   5.057   7.635   0.057 -0.3834  0.6532  2.5951
 5196TIP3    H239784   5.029   7.495   0.008 -0.0223  1.6957 -0.8064
 5197TIP3   OH239785   6.037   2.813   7.602  0.6527 -0.5431  0.2804
 5197TIP3    H139786   6.117   2.853   7.568 -0.3075  0.6206 -0.7195
 5197TIP3    H239787   6.053   2.801   7.695  1.8066  0.1469  0.1848
 5198TIP3   OH239788   6.611   6.500   9.728  0.3752 -0.3446 -0.3710
 5198TIP3    H139789   6.662   6.508   9.808  1.2381  1.3053 -1.0216
 5198TIP3    H239790   6.529   6.460   9.755  0.9096 -0.4267  1.2148
 5199TIP3   OH239791   4.432   0.874   0.344 -0.5178 -0.0211 -0.4502
 5199TIP3    H139792   4.405   0.789   0.379  2.5756 -0.9999 -0.0833
 5199TIP3    H239793   4.435   0.932   0.420  0.9518 -0.6718  0.0314
 5200TIP3   OH239794   6.787   3.826   8.555  0.1947 -0.6446  0.0764
 5200TIP3    H139795   6.744   3.742   8.568 -0.9395  0.0865  1.2822
 5200TIP3    H239796   6.718   3.884   8.523  1.4084 -0.6172 -2.8120
 5201TIP3   OH239797   1.408   1.704   7.814 -0.1928  0.5067 -0.5590
 5201TIP3    H139798   1.475   1.640   7.840 -0.8214  0.5260  1.2529
 5201TIP3    H239799   1.458   1.777   7.778  0.7582  0.3711  0.4117
 5202TIP3   OH239800   3.185   5.133   9.764  0.4241  0.0550 -0.0572
 5202TIP3    H139801   3.280   5.122   9.776  0.3607 -2.1116 -1.0260
 5202TIP3    H239802   3.147   5.101   9.846  0.4713 -2.0550 -0.7979
 5203TIP3   OH239803   6.749   0.137   1.191 -0.1857 -0.0167 -0.6403
 5203TIP3    H139804   6.746   0.047   1.224  0.1467  0.2207  0.0514
 5203TIP3    H239805   6.686   0.138   1.118  0.3381 -0.9857 -1.1205
 5204TIP3   OH239806   6.312   2.299   0.901  0.3832  0.3679 -0.0782
 5204TIP3    H139807   6.245   2.271   0.963 -0.6538  1.2854 -0.7374
 5204TIP3    H239808   6.326   2.391   0.922  0.8279  0.3935 -0.4847
 5205TIP3   OH239809   2.777   5.190   8.993 -0.3355  0.1612  0.1236
 5205TIP3    H139810   2.696   5.219   9.034 -1.2083 -0.3349 -1.1653
 5205TIP3    H239811   2.754   5.106   8.951  0.8378  0.0082 -0.2570
 5206TIP3   OH239812   3.760   3.211   9.016  0.7216 -0.3961 -0.2885
 5206TIP3    H139813   3.713   3.242   8.939  0.6243  0.1512 -0.0100
 5206TIP3    H239814   3.723   3.260   9.089  2.5176  0.9540 -0.2120
 5207TIP3   OH239815   2.770   0.879   9.945  0.0262  0.0433 -0.3111
 5207TIP3    H139816   2.766   0.974   9.958 -1.7836 -0.2134  1.4285
 5207TIP3    H239817   2.704   0.843  10.004  0.6927 -2.3328 -0.8838
 5208TIP3   OH239818   0.892   7.681   0.946 -0.3497  0.0017  0.6202
 5208TIP3    H139819   0.899   7.753   0.883  1.1005  0.3213  1.1170
 5208TIP3    H239820   0.979   7.675   0.985 -1.8126  1.7976  4.7976
 5209TIP3   OH239821   1.255   5.074   2.986 -0.3607  0.1164 -0.0303
 5209TIP3    H139822   1.163   5.098   2.987 -0.3280  0.3624 -1.4468
 5209TIP3    H239823   1.297   5.139   3.043 -1.0207  0.1087  0.4821
 5210TIP3   OH239824   0.200   0.194   8.548  0.2121 -0.0275 -0.3486
 5210TIP3    H139825   0.200   0.154   8.461  0.7374  1.9041 -1.3155
 5210TIP3    H239826   0.116   0.240   8.553 -0.4793 -1.3595  0.8180
 5211TIP3   OH239827   1.684   0.459   8.647 -0.5971 -0.2509  0.7232
 5211TIP3    H139828   1.657   0.528   8.708  0.2936  0.6947  0.0686
 5211TIP3    H239829   1.776   0.477   8.629 -0.8530 -0.4593 -0.9523
 5212TIP3   OH239830   1.462   2.113   2.566 -0.0365  0.3511  0.1089
 5212TIP3    H139831   1.514   2.163   2.630 -0.2789 -2.5724  2.8374
 5212TIP3    H239832   1.374   2.114   2.602 -0.2399 -1.1717 -0.3002
 5213TIP3   OH239833   5.184   0.094   8.507 -0.5264 -0.4323  0.1251
 5213TIP3    H139834   5.230   0.058   8.584  0.2014 -2.5317 -1.2014
 5213TIP3    H239835   5.164   0.017   8.454 -0.3958  1.0223 -2.1307
 5214TIP3   OH239836   0.286   6.581   8.986 -0.3815  0.3778  0.4522
 5214TIP3    H139837   0.211   6.616   8.938  0.5302  4.0902  1.4001
 5214TIP3    H239838   0.294   6.637   9.062  2.8381 -0.4291  0.8676
 5215TIP3   OH239839   0.948   2.871   7.888  0.4456  0.2980 -0.5134
 5215TIP3    H139840   1.021   2.921   7.924  0.7010  0.2005 -0.8879
 5215TIP3    H239841   0.976   2.848   7.799 -1.4689  3.2899 -2.0472
 5216TIP3   OH239842   5.901   3.120   9.470  0.4374  0.2684 -0.1671
 5216TIP3    H139843   5.905   3.077   9.385 -0.2896  1.1948 -0.6973
 5216TIP3    H239844   5.909   3.049   9.534  0.8969 -0.4469 -1.0064
 5217TIP3   OH239845   5.734  -0.019   7.987 -0.0665  0.1924  0.0020
 5217TIP3    H139846   5.737   0.007   8.079 -3.2181  0.8849  0.0336
 5217TIP3    H239847   5.737   0.063   7.939 -0.2689 -0.0380 -0.4057
 5218TIP3   OH239848   4.393   4.701   8.640 -0.3574 -0.7064 -0.1309
 5218TIP3    H139849   4.462   4.636   8.626 -0.7920 -0.8630 -1.7137
 5218TIP3    H239850   4.332   4.658   8.701 -0.0649 -1.3433 -0.2796
 5219TIP3   OH239851   5.984   7.668   1.394 -0.7001 -0.3568  0.3330
 5219TIP3    H139852   6.070   7.708   1.406 -0.0328 -1.0829 -1.6770
 5219TIP3    H239853   5.934   7.732   1.343 -1.2525 -0.0981  1.1717
 5220TIP3   OH239854   2.767   6.973   1.192 -0.3262  0.7810  0.6808
 5220TIP3    H139855   2.681   7.013   1.202 -0.1815  1.2625  0.0603
 5220TIP3    H239856   2.763   6.928   1.108 -0.0298  0.6538  0.7347
 5221TIP3   OH239857   0.903   4.080   9.173  0.5523  0.3253 -0.1826
 5221TIP3    H139858   0.941   4.134   9.243  1.1304 -0.6592  0.2945
 5221TIP3    H239859   0.965   4.089   9.100  0.2778  0.8597 -0.3513
 5222TIP3   OH239860   5.958   0.084   0.838 -0.3807 -0.3612  0.6762
 5222TIP3    H139861   5.925   0.168   0.870 -1.5562 -0.2631 -0.7125
 5222TIP3    H239862   5.921   0.020   0.899 -1.2748 -0.0413  0.4840
 5223TIP3   OH239863   5.097   2.484   0.120  0.6894 -0.0908  0.1575
 5223TIP3    H139864   5.030   2.553   0.119 -0.6460 -1.3307 -0.3858
 5223TIP3    H239865   5.167   2.518   0.064 -0.0754  0.7145 -0.3455
 5224TIP3   OH239866   5.964   4.505   7.096 -0.6133  0.1404 -0.3659
 5224TIP3    H139867   6.021   4.567   7.142 -0.7444 -0.3439  0.4890
 5224TIP3    H239868   6.021   4.460   7.035  0.4174 -1.6609  1.7734
 5225TIP3   OH239869   3.642   2.864   8.595 -0.1023 -0.2876 -0.2711
 5225TIP3    H139870   3.650   2.909   8.511 -0.3017  2.2029  0.9624
 5225TIP3    H239871   3.548   2.850   8.606 -0.0236 -1.3125 -0.7664
 5226TIP3   OH239872   7.020   2.918   6.988 -0.4058 -0.5382 -0.1970
 5226TIP3    H139873   7.077   2.995   6.997 -0.0308 -0.7386 -0.8494
 5226TIP3    H239874   6.942   2.951   6.942 -0.7947 -0.2839  0.6192
 5227TIP3   OH239875   4.117   4.453   7.928 -0.8599 -0.2242 -0.3825
 5227TIP3    H139876   4.096   4.370   7.971 -0.0365 -1.7342 -2.6932
 5227TIP3    H239877   4.208   4.469   7.953 -1.3643  0.6388  0.9919
 5228TIP3   OH239878   1.435   4.651   7.999  0.1039  0.3194  0.2667
 5228TIP3    H139879   1.522   4.661   8.038  1.4737 -2.5640 -1.6917
 5228TIP3    H239880   1.427   4.726   7.941  1.1318  0.8193  0.7348
 5229TIP3   OH239881   7.398   6.147   1.783 -0.2403  0.1607 -0.0983
 5229TIP3    H139882   7.486   6.184   1.776 -0.6302  0.8807 -1.8881
 5229TIP3    H239883   7.409   6.070   1.839  1.7641 -0.3869 -1.1273
 5230TIP3   OH239884   5.861   1.596   7.118 -0.4077  0.3544 -0.0272
 5230TIP3    H139885   5.798   1.530   7.090  0.1157 -0.6427  1.0344
 5230TIP3    H239886   5.878   1.649   7.039 -1.2933 -0.3977 -0.7415
 5231TIP3   OH239887   0.987   5.318   9.386 -0.0383 -0.1708 -1.0182
 5231TIP3    H139888   0.946   5.239   9.421 -1.9072  1.2689  0.2452
 5231TIP3    H239889   0.980   5.310   9.291  2.1156 -2.6375 -1.0691
 5232TIP3   OH239890   2.420   2.776   0.108 -0.2004  0.2168 -0.6048
 5232TIP3    H139891   2.427   2.801   0.016 -0.0006  0.7240 -0.4558
 5232TIP3    H239892   2.500   2.727   0.126  0.7134  1.7829 -0.2018
 5233TIP3   OH239893   0.652   3.880   3.123  0.1027  0.2417  0.1813
 5233TIP3    H139894   0.654   3.911   3.213  0.2749 -0.3920  0.3994
 5233TIP3    H239895   0.649   3.785   3.130  1.1179  0.1420 -0.4814
 5234TIP3   OH239896   0.380   5.978   0.708  0.0111  0.8091 -0.5019
 5234TIP3    H139897   0.471   5.991   0.680  0.1403  2.3576  0.4994
 5234TIP3    H239898   0.363   6.052   0.766 -1.8667  0.4802 -0.5906
 5235TIP3   OH239899   2.732   0.406   0.437 -0.4124  0.0551  0.1613
 5235TIP3    H139900   2.743   0.329   0.381  0.7538 -0.5563  1.1910
 5235TIP3    H239901   2.763   0.378   0.523 -1.6648  1.1453  1.0049
 5236TIP3   OH239902   2.866   1.567   2.523  0.2313  0.4698 -0.0520
 5236TIP3    H139903   2.960   1.576   2.538  0.3456 -2.7313  2.2155
 5236TIP3    H239904   2.859   1.516   2.442  0.3759  1.4811 -0.7143
 5237TIP3   OH239905   5.762   1.715   1.055  0.6053  0.4616 -0.0209
 5237TIP3    H139906   5.757   1.630   1.011 -0.4407  0.3785  0.2291
 5237TIP3    H239907   5.826   1.764   1.004  0.6190 -0.1986 -0.6616
 5238TIP3   OH239908   1.924   1.871   2.588 -0.5392  0.5267 -0.2703
 5238TIP3    H139909   1.915   1.776   2.594  0.7321  0.3798 -0.4024
 5238TIP3    H239910   2.002   1.884   2.534 -1.6388  1.6579 -1.6665
 5239TIP3   OH239911   7.005   1.133   1.509 -0.1360 -0.2565 -0.2500
 5239TIP3    H139912   6.991   1.184   1.429  1.1588 -0.0418 -0.3512
 5239TIP3    H239913   6.937   1.164   1.569  0.0230  0.9005 -0.6453
 5240TIP3   OH239914   6.073   4.614   0.473  0.2925 -0.3316  0.0635
 5240TIP3    H139915   6.028   4.692   0.505 -0.0129 -1.4974  2.6817
 5240TIP3    H239916   6.003   4.557   0.442  0.3223 -0.4297  0.1765
 5241TIP3   OH239917   1.518   3.842   9.173  0.3468 -0.3721 -0.1481
 5241TIP3    H139918   1.432   3.801   9.189  0.4078 -1.1355 -1.6036
 5241TIP3    H239919   1.581   3.771   9.189  0.6829  0.0268  0.3413
 5242TIP3   OH239920   0.223   6.954   8.324  0.1940 -0.7472 -0.9057
 5242TIP3    H139921   0.185   7.040   8.338  1.2300 -0.6665  2.1671
 5242TIP3    H239922   0.276   6.963   8.245 -1.3183  0.7973 -1.8070
 5243TIP3   OH239923   1.996   0.513   0.673  0.1665 -0.4753 -0.3672
 5243TIP3    H139924   2.024   0.596   0.712 -2.4192  1.5271 -2.4039
 5243TIP3    H239925   2.067   0.489   0.614  0.8164  0.4487  0.0094
 5244TIP3   OH239926   4.814   6.281   8.156 -0.4839  0.3933 -0.4038
 5244TIP3    H139927   4.829   6.242   8.242 -0.0683 -0.5869 -0.9042
 5244TIP3    H239928   4.817   6.375   8.171 -0.3849  0.2279  0.6513
 5245TIP3   OH239929   6.094   1.177   2.076  0.6733 -0.2661 -0.4667
 5245TIP3    H139930   6.049   1.212   2.153  2.3543  1.2226 -0.0793
 5245TIP3    H239931   6.079   1.083   2.080 -2.0224  0.0928 -0.1693
 5246TIP3   OH239932   3.047   6.131   7.959  0.5658 -0.1876 -0.6221
 5246TIP3    H139933   2.975   6.076   7.928 -0.0425 -0.2829  0.8481
 5246TIP3    H239934   3.103   6.071   8.007  0.1895  0.3506  0.5236
 5247TIP3   OH239935   0.965   3.651   0.754  0.0221 -0.0303 -0.4827
 5247TIP3    H139936   1.056   3.658   0.726  0.1533 -2.2035 -0.7610
 5247TIP3    H239937   0.968   3.596   0.832 -0.9424  1.0160  0.3179
 5248TIP3   OH239938   4.836   0.098   0.736  0.3342 -0.2060  0.2636
 5248TIP3    H139939   4.856   0.012   0.699  3.4395 -0.6369  2.5245
 5248TIP3    H239940   4.761   0.082   0.794 -2.8950 -0.0205 -3.4410
 5249TIP3   OH239941   7.078   4.308   8.420  0.5821  0.6693  0.0948
 5249TIP3    H139942   7.034   4.386   8.453  0.8160  1.6024 -1.7079
 5249TIP3    H239943   7.121   4.270   8.497 -0.4962  1.6430  1.2211
 5250TIP3   OH239944   6.034   4.500   9.887 -0.1488  0.2497 -0.0241
 5250TIP3    H139945   6.091   4.529   9.815 -0.8341  0.8879 -0.3183
 5250TIP3    H239946   6.013   4.409   9.865  2.4780 -0.7485  1.1966
 5251TIP3   OH239947   0.154   3.043   9.072 -0.1288 -0.1644 -0.2445
 5251TIP3    H139948   0.127   3.034   8.981  1.0797  1.1483 -0.7645
 5251TIP3    H239949   0.246   3.014   9.073 -0.3936 -1.0415  0.7520
 5252TIP3   OH239950   1.756   6.130   1.802  0.2887 -0.2631 -0.2516
 5252TIP3    H139951   1.815   6.189   1.849  0.2956  1.8941 -2.6787
 5252TIP3    H239952   1.676   6.182   1.789 -0.5067 -1.5571 -0.6844
 5253TIP3   OH239953   5.458   4.636   7.231  0.6513 -0.0020  0.1128
 5253TIP3    H139954   5.508   4.556   7.218 -2.0285 -1.8391  0.3399
 5253TIP3    H239955   5.367   4.610   7.217 -0.3165  3.1053 -0.1352
 5254TIP3   OH239956   1.116   0.598   3.515  0.1141  0.6321  0.2289
 5254TIP3    H139957   1.082   0.514   3.485 -1.1710  1.4534 -0.7112
 5254TIP3    H239958   1.073   0.663   3.460  2.6477  1.8238 -0.5097
 5255TIP3   OH239959   4.768   2.785   9.411  0.0399  0.2121  0.5100
 5255TIP3    H139960   4.700   2.746   9.356 -0.1229  0.7143  0.3549
 5255TIP3    H239961   4.755   2.879   9.402  1.2789  0.3439 -0.2057
 5256TIP3   OH239962   2.473   4.193   9.027  0.1653  0.2263  0.6049
 5256TIP3    H139963   2.407   4.187   8.958 -0.4469 -0.4125  1.2329
 5256TIP3    H239964   2.512   4.105   9.030  1.4655  0.7422 -0.1520
 5257TIP3   OH239965   1.308   4.316   2.188 -0.1590  0.3726 -0.6704
 5257TIP3    H139966   1.272   4.265   2.115  0.7451 -0.0832 -0.8243
 5257TIP3    H239967   1.367   4.379   2.146 -0.3616  0.7477 -0.3935
 5258TIP3   OH239968   2.144   5.895   1.662  0.4110 -0.5731  0.3392
 5258TIP3    H139969   2.141   5.800   1.652 -0.2636 -0.4412 -1.0080
 5258TIP3    H239970   2.052   5.922   1.661  0.6059  0.1170  0.3667
 5259TIP3   OH239971   4.960   7.202   0.676 -0.3401  0.1427 -0.3651
 5259TIP3    H139972   4.933   7.112   0.690  0.5892 -0.2563 -1.0647
 5259TIP3    H239973   4.982   7.207   0.583  2.5546  0.2565  0.2514
 5260TIP3   OH239974   0.745   0.509   8.528 -0.6922  0.3160 -0.0039
 5260TIP3    H139975   0.677   0.560   8.482 -1.5919 -0.8295  0.0136
 5260TIP3    H239976   0.696   0.454   8.589  0.4058  0.9126  1.4736
 5261TIP3   OH239977   2.491   4.098   7.167  0.4972  0.1469  0.0590
 5261TIP3    H139978   2.524   4.130   7.083 -1.1105 -0.8391 -1.0098
 5261TIP3    H239979   2.569   4.071   7.215  1.4096  0.1272 -1.3756
 5262TIP3   OH239980   1.001   0.813   0.360  0.1351  0.3349  0.0070
 5262TIP3    H139981   1.077   0.755   0.356  1.6853  2.2514 -4.2128
 5262TIP3    H239982   1.035   0.895   0.396 -0.7228  0.3441  0.8471
 5263TIP3   OH239983   1.393   5.389   8.594 -0.1908 -0.3963  0.1949
 5263TIP3    H139984   1.414   5.320   8.657  0.0353 -0.9904 -0.5176
 5263TIP3    H239985   1.363   5.342   8.516 -0.5286  0.3293 -0.1195
 5264TIP3   OH239986   2.693   2.683   2.533 -0.3748 -0.0609 -0.0019
 5264TIP3    H139987   2.762   2.712   2.474  0.5540 -0.8557  0.6501
 5264TIP3    H239988   2.735   2.618   2.589 -1.4788 -0.0569  0.8816
 5265TIP3   OH239989   1.242   0.283   0.715  0.5046  0.3601 -0.0317
 5265TIP3    H139990   1.266   0.376   0.709  1.1756  0.1699 -0.3128
 5265TIP3    H239991   1.270   0.246   0.632  3.0041 -0.7353  1.2218
 5266TIP3   OH239992   1.885   0.675   1.782 -0.3140 -0.0399  0.2166
 5266TIP3    H139993   1.868   0.725   1.862  0.7765  2.2273 -0.8574
 5266TIP3    H239994   1.823   0.709   1.718  0.2784 -0.2279 -0.4778
 5267TIP3   OH239995   4.099   5.569   9.437  0.1260  0.4966 -0.2464
 5267TIP3    H139996   4.142   5.578   9.522  2.3295 -1.7880 -0.9782
 5267TIP3    H239997   4.121   5.480   9.409 -1.7581  0.6679 -2.5704
 5268TIP3   OH239998   2.034   5.614   7.194  0.2376 -0.1091 -0.6301
 5268TIP3    H139999   2.023   5.523   7.164  0.6663 -0.4941  0.3575
 5268TIP3    H240000   2.005   5.667   7.119 -1.8008 -1.0497 -0.5840
 5269TIP3   OH240001   7.672   6.675   9.356  0.3419  0.6826  0.1188
 5269TIP3    H140002   7.652   6.689   9.449  0.3382  1.6864 -0.0203
 5269TIP3    H240003   7.765   6.653   9.355  0.2851  0.4253  0.3804
 5270TIP3   OH240004   6.624   7.083   8.030 -0.3448  0.6978 -0.5832
 5270TIP3    H140005   6.538   7.125   8.029 -0.5868  0.2120 -1.5587
 5270TIP3    H240006   6.679   7.140   8.084 -1.0705  1.4432 -0.6261
 5271TIP3   OH240007   2.003   6.481   7.493 -0.1091  0.1492 -0.6023
 5271TIP3    H140008   1.943   6.450   7.561  0.8460 -0.3035  0.0635
 5271TIP3    H240009   1.972   6.570   7.473 -1.7614 -0.5266 -1.2108
 5272TIP3   OH240010   1.271   2.825   0.154  0.8519 -0.3718  0.0660
 5272TIP3    H140011   1.342   2.762   0.136  2.1061  0.9585  0.1754
 5272TIP3    H240012   1.206   2.808   0.085  1.4979 -1.2990 -0.3339
 5273TIP3   OH240013   4.303   7.605   9.659 -0.7908  0.0142 -0.6189
 5273TIP3    H140014   4.215   7.626   9.691 -0.4392  2.3762 -1.0124
 5273TIP3    H240015   4.358   7.603   9.738 -0.8515  0.6282 -0.5539
 5274TIP3   OH240016   7.684   6.278   2.586  0.1262 -0.4762  0.6180
 5274TIP3    H140017   7.757   6.217   2.571  2.1928  2.0755 -0.3171
 5274TIP3    H240018   7.651   6.298   2.498  0.0828  0.4365  0.8328
 5275TIP3   OH240019   1.195   2.424   8.379  0.4124 -0.5420 -0.4180
 5275TIP3    H140020   1.205   2.378   8.462 -0.2992 -0.7680 -0.4525
 5275TIP3    H240021   1.156   2.360   8.319  0.0320 -0.1064 -0.6512
 5276TIP3   OH240022   1.886   6.626   0.797  0.7906  0.5557 -0.0498
 5276TIP3    H140023   1.836   6.671   0.865  0.0017  1.0646 -0.9301
 5276TIP3    H240024   1.967   6.677   0.789  0.9844  0.3611  0.6527
 5277TIP3   OH240025   6.826   5.391   9.189  0.4816  0.2434  0.4640
 5277TIP3    H140026   6.748   5.442   9.214  0.0889 -0.2198  0.1998
 5277TIP3    H240027   6.812   5.305   9.226  0.2816 -0.2083 -0.6189
 5278TIP3   OH240028   3.342   3.407   9.405  0.2350 -1.1060 -0.0948
 5278TIP3    H140029   3.294   3.325   9.418  1.5311 -1.5450  2.6913
 5278TIP3    H240030   3.413   3.403   9.469  0.4230  2.1392  0.0469
 5279TIP3   OH240031   0.488   3.854   7.314 -0.2982  0.7677 -0.9457
 5279TIP3    H140032   0.508   3.873   7.223 -0.5609  0.0311 -1.1586
 5279TIP3    H240033   0.571   3.866   7.360 -0.8661  5.1936 -0.5551
 5280TIP3   OH240034   1.640   1.323   9.477  0.3061 -0.2021  0.5974
 5280TIP3    H140035   1.593   1.404   9.457  1.2332  0.0421 -0.7075
 5280TIP3    H240036   1.645   1.322   9.572 -0.7596  0.6671  0.6872
 5281TIP3   OH240037   2.494   6.822   9.873 -0.1121 -0.5630  0.4500
 5281TIP3    H140038   2.509   6.854   9.784  1.5770 -0.9390  0.5551
 5281TIP3    H240039   2.445   6.892   9.915  0.9665  0.6270 -0.1700
 5282TIP3   OH240040   0.279   3.333   2.041  0.0370  0.3819  0.9740
 5282TIP3    H140041   0.197   3.365   2.079 -0.1422 -0.2503  1.1263
 5282TIP3    H240042   0.307   3.262   2.099  0.8523  0.7850  1.0910
 5283TIP3   OH240043   4.740   7.648   8.893 -0.6549  0.3254 -0.6640
 5283TIP3    H140044   4.667   7.604   8.936 -0.2608 -0.6783 -0.9908
 5283TIP3    H240045   4.748   7.731   8.939 -1.2784 -0.0333  0.1202
 5284TIP3   OH240046   2.918   0.661   7.063 -0.5016 -0.0773  0.2501
 5284TIP3    H140047   2.930   0.570   7.034  0.6428 -0.3379  1.4419
 5284TIP3    H240048   3.006   0.689   7.088 -0.8976  1.2757  0.1693
 5285TIP3   OH240049   3.614   5.377   8.881 -0.6680  0.9906  0.7633
 5285TIP3    H140050   3.691   5.320   8.875 -0.2538  1.5751  0.4610
 5285TIP3    H240051   3.620   5.434   8.805 -1.5817  0.8340  0.5576
 5286TIP3   OH240052   5.445   5.556   8.098 -0.2250 -0.0701 -0.2724
 5286TIP3    H140053   5.521   5.524   8.050  1.9238  2.7215  1.0152
 5286TIP3    H240054   5.421   5.484   8.157  2.8225 -0.3478  0.7863
 5287TIP3   OH240055   4.249   3.801   7.421 -0.3426 -0.7130 -0.8501
 5287TIP3    H140056   4.281   3.747   7.493 -1.0853 -0.0434  0.0173
 5287TIP3    H240057   4.327   3.838   7.381  0.1156 -1.6276 -0.8230
 5288TIP3   OH240058   2.547   1.208   1.234  0.0916  0.1900  0.1053
 5288TIP3    H140059   2.495   1.212   1.154  0.6380 -0.6786 -0.3050
 5288TIP3    H240060   2.621   1.153   1.212  0.2216 -0.1088  1.2311
 5289TIP3   OH240061   2.765   5.675   9.227 -0.0506 -0.4505  0.3887
 5289TIP3    H140062   2.719   5.693   9.310  0.6791 -0.6336  0.8447
 5289TIP3    H240063   2.803   5.587   9.240 -0.5376 -0.7897 -0.4199
 5290TIP3   OH240064   2.053   7.463   2.270 -0.2029 -0.2098 -0.0753
 5290TIP3    H140065   2.058   7.436   2.178 -1.3197 -0.4991 -0.0624
 5290TIP3    H240066   2.052   7.558   2.267  3.7859 -0.0018 -0.1230
 5291TIP3   OH240067   3.670   4.874   7.769  0.0578 -0.6848 -0.6320
 5291TIP3    H140068   3.735   4.943   7.758 -0.6311 -0.2497 -2.2653
 5291TIP3    H240069   3.717   4.793   7.750  0.8446 -0.7129  1.1982
 5292TIP3   OH240070   2.789   3.093   1.155  0.2400 -0.1240  0.5810
 5292TIP3    H140071   2.882   3.073   1.153  0.2880  0.0624  0.8934
 5292TIP3    H240072   2.747   3.013   1.186  0.1800 -0.6043 -0.7049
 5293TIP3   OH240073   1.017   7.351   9.761 -0.1936  0.2440 -0.1719
 5293TIP3    H140074   1.010   7.261   9.728  0.7334 -0.3064  1.0587
 5293TIP3    H240075   1.060   7.399   9.690  0.1718 -0.5033 -0.4710
 5294TIP3   OH240076   0.227   5.312   9.035  0.0003  0.3418  0.0113
 5294TIP3    H140077   0.266   5.257   8.967 -1.1720 -2.1854  1.2702
 5294TIP3    H240078   0.285   5.388   9.039  3.2300 -1.8701 -0.1602
 5295TIP3   OH240079   6.197   1.452   9.335 -0.6038 -0.5429 -0.4640
 5295TIP3    H140080   6.162   1.541   9.341 -2.2668 -1.2165  0.2822
 5295TIP3    H240081   6.265   1.458   9.268 -0.8751  1.2197 -0.6359
 5296TIP3   OH240082   2.144   3.644   9.073 -0.2234 -0.2764  0.0970
 5296TIP3    H140083   2.197   3.621   9.150  0.0013  2.8285  1.0033
 5296TIP3    H240084   2.057   3.661   9.109 -1.3516 -2.9474 -1.0490
 5297TIP3   OH240085   1.820   1.172   2.258  0.4903  0.1296 -0.0839
 5297TIP3    H140086   1.732   1.134   2.265  0.5550  0.2518  2.0865
 5297TIP3    H240087   1.873   1.102   2.218 -0.3779 -0.2764 -0.5698
 5298TIP3   OH240088   1.516   2.043   9.931  0.1592  0.2356  0.0809
 5298TIP3    H140089   1.492   2.004  10.015  2.3444 -1.0067  0.1954
 5298TIP3    H240090   1.441   2.098   9.908 -0.2386  1.1539  3.1419
 5299TIP3   OH240091   3.473   4.389   7.392 -0.4684 -1.2050  0.0637
 5299TIP3    H140092   3.548   4.410   7.448 -1.4139  1.0264  0.5998
 5299TIP3    H240093   3.406   4.454   7.415 -1.2760 -0.8057 -2.9318
 5300TIP3   OH240094   6.439   3.313   9.973 -0.1268  0.0441  0.3408
 5300TIP3    H140095   6.446   3.400  10.011  0.4942 -0.2850  1.0333
 5300TIP3    H240096   6.369   3.319   9.908  0.6113  1.3020 -0.3527
 5301TIP3   OH240097   5.407   1.494   1.893 -0.4457 -0.0044 -0.2357
 5301TIP3    H140098   5.314   1.519   1.884 -0.4519  0.4046  0.8518
 5301TIP3    H240099   5.453   1.557   1.837 -0.7732  0.1986 -0.2848
 5302TIP3   OH240100   5.224   7.581   1.697 -0.2900  0.7539  0.2856
 5302TIP3    H140101   5.131   7.562   1.697 -0.7269  2.2978 -2.5905
 5302TIP3    H240102   5.233   7.662   1.646  2.5963  0.8360  0.7065
 5303TIP3   OH240103   2.588   5.584   8.240  0.2658 -0.1919 -0.2276
 5303TIP3    H140104   2.625   5.581   8.328  1.0490 -1.0277 -0.5717
 5303TIP3    H240105   2.600   5.496   8.205 -0.1106  0.0990 -1.1514
 5304TIP3   OH240106   2.914   2.447   8.914  0.3224  0.1872 -0.0489
 5304TIP3    H140107   2.997   2.490   8.892  0.2518  0.3719  0.0436
 5304TIP3    H240108   2.934   2.394   8.991  0.6852 -0.8169 -0.8040
 5305TIP3   OH240109   6.977   0.703   8.445 -0.1370  0.2395  0.0171
 5305TIP3    H140110   6.923   0.692   8.523 -2.9862  0.8275 -1.7192
 5305TIP3    H240111   6.967   0.622   8.396 -0.8554  0.9734 -1.1072
 5306TIP3   OH240112   6.081   7.365  -0.026  0.1274 -0.4936 -0.2822
 5306TIP3    H140113   6.145   7.299  -0.052 -0.9014 -1.1115 -1.2827
 5306TIP3    H240114   6.109   7.445  -0.071  1.4961 -0.1517  1.0983
 5307TIP3   OH240115   5.895   7.239   1.939  0.3696 -0.1883 -0.0716
 5307TIP3    H140116   5.819   7.222   1.884  0.6857  2.7034 -1.5704
 5307TIP3    H240117   5.860   7.283   2.016  0.3325 -0.9735  0.3797
 5308TIP3   OH240118   3.258   2.723   9.876 -0.4590  0.1185 -0.0430
 5308TIP3    H140119   3.349   2.720   9.849 -0.7006 -0.5372 -0.8244
 5308TIP3    H240120   3.211   2.753   9.798 -0.8717  0.8359  0.4709
 5309TIP3   OH240121   6.805   6.848   0.557 -0.1130 -0.1423 -0.3078
 5309TIP3    H140122   6.840   6.923   0.509 -1.1443  1.0553  0.7348
 5309TIP3    H240123   6.867   6.777   0.539  1.0786  1.0328 -1.0533
 5310TIP3   OH240124   7.583   2.934   8.485  0.3694  0.2299  0.6159
 5310TIP3    H140125   7.576   2.920   8.580 -1.0884 -0.3373  0.4493
 5310TIP3    H240126   7.665   2.982   8.474 -0.2958  1.8796  2.3334
 5311TIP3   OH240127   2.367   5.801   8.646 -0.6446 -0.0974  0.2869
 5311TIP3    H140128   2.302   5.747   8.692 -0.9051  0.5870  0.7458
 5311TIP3    H240129   2.446   5.795   8.700 -0.4978 -0.4746  0.0325
 5312TIP3   OH240130   3.887   7.368   9.787 -0.1365 -0.8765 -0.3506
 5312TIP3    H140131   3.942   7.333   9.717  0.2003 -0.4110 -0.3198
 5312TIP3    H240132   3.816   7.414   9.741  1.6317  1.9817 -0.4812
 5313TIP3   OH240133   0.264   1.929   8.541 -0.3285 -0.5429  0.0999
 5313TIP3    H140134   0.338   1.952   8.596  0.7181  0.2800 -1.5678
 5313TIP3    H240135   0.191   1.978   8.577  0.4073  0.2497  0.5438
 5314TIP3   OH240136   3.333   4.991   8.821  0.3903  0.4941  0.4951
 5314TIP3    H140137   3.375   4.936   8.755 -0.1581 -0.6951  1.1172
 5314TIP3    H240138   3.315   5.074   8.775 -1.3045 -0.7888 -1.3002
 5315TIP3   OH240139   1.147   6.696   0.424  0.0300 -0.2650 -0.2623
 5315TIP3    H140140   1.113   6.613   0.456 -0.9189  0.3212  0.3111
 5315TIP3    H240141   1.242   6.683   0.420  0.0899 -0.7728  1.6565
 5316TIP3   OH240142   6.549   5.567   0.637 -0.0930 -0.4743 -0.0614
 5316TIP3    H140143   6.549   5.645   0.693 -0.6434 -0.7467  0.3294
 5316TIP3    H240144   6.639   5.533   0.644 -0.1619 -0.5203  0.6800
 5317TIP3   OH240145   6.978   5.475   8.209  0.0743  0.2285 -0.3554
 5317TIP3    H140146   6.970   5.477   8.113 -0.0769  1.1286 -0.3371
 5317TIP3    H240147   6.975   5.567   8.235  1.3633  0.0774  0.4233
 5318TIP3   OH240148   6.300   1.498   2.495 -0.3877 -0.2611 -0.1175
 5318TIP3    H140149   6.246   1.425   2.464 -0.7553  0.2057 -0.5834
 5318TIP3    H240150   6.309   1.556   2.419  0.5500 -0.1956  0.0271
 5319TIP3   OH240151   0.900   2.333   7.509  0.1334 -0.5307  0.0203
 5319TIP3    H140152   0.874   2.388   7.435  0.7420  0.3441  0.4360
 5319TIP3    H240153   0.882   2.243   7.480 -2.5105 -0.0755 -0.0508
 5320TIP3   OH240154   3.310   3.994   7.811 -0.1746 -0.2188  0.0726
 5320TIP3    H140155   3.276   4.024   7.726  0.1667 -0.8918 -0.3139
 5320TIP3    H240156   3.254   4.037   7.876 -0.3926  0.3677 -0.4917
 5321TIP3   OH240157   0.827   1.690   7.403 -0.7690  0.3233  0.2708
 5321TIP3    H140158   0.848   1.617   7.344 -1.6744  0.4642 -0.2371
 5321TIP3    H240159   0.841   1.768   7.349  3.2885  0.8259  1.6520
 5322TIP3   OH240160   3.376   2.681   1.340  0.4796  0.1997 -0.2624
 5322TIP3    H140161   3.432   2.604   1.326 -1.4449 -0.8118 -3.4884
 5322TIP3    H240162   3.407   2.745   1.276 -1.2363  0.0470 -1.3061
 5323TIP3   OH240163   4.455   1.083   1.521  0.5742 -0.0029 -0.3873
 5323TIP3    H140164   4.481   1.051   1.607 -1.7327 -0.1261  0.3469
 5323TIP3    H240165   4.384   1.024   1.494  0.0972  1.0606 -1.5888
 5324TIP3   OH240166   7.117   5.275   1.943  0.1232  0.0255 -0.2679
 5324TIP3    H140167   7.122   5.251   1.850 -1.4182 -1.4953 -0.0165
 5324TIP3    H240168   7.122   5.370   1.943 -1.5682  0.1924 -2.0832
 5325TIP3   OH240169   0.511   3.741   0.380 -0.0171 -0.4296 -0.8119
 5325TIP3    H140170   0.455   3.806   0.420 -0.5250 -0.2710 -1.7690
 5325TIP3    H240171   0.479   3.657   0.414 -1.5006 -0.4261 -2.0959
 5326TIP3   OH240172   2.525   3.874   0.768 -0.2145  0.1999  0.6974
 5326TIP3    H140173   2.430   3.867   0.761 -0.1113  0.3375 -1.4114
 5326TIP3    H240174   2.556   3.783   0.766 -0.2321  0.2086 -0.1102
 5327TIP3   OH240175   0.402   2.232   9.791 -0.1657  0.2002  0.0668
 5327TIP3    H140176   0.363   2.146   9.803 -0.4517  0.1473 -1.0914
 5327TIP3    H240177   0.327   2.292   9.783 -0.0015  0.9868  3.3034
 5328TIP3   OH240178   3.565   5.133   7.227  0.0656 -0.4358 -0.9044
 5328TIP3    H140179   3.524   5.057   7.187  1.2744 -2.1822  1.0203
 5328TIP3    H240180   3.497   5.170   7.284  0.0118 -1.0849 -0.5486
 5329TIP3   OH240181   0.401   3.503   1.027 -0.1133 -0.2368 -0.6137
 5329TIP3    H140182   0.464   3.573   1.043  0.7273 -0.5313 -2.4049
 5329TIP3    H240183   0.387   3.464   1.113  0.7161  1.0367  0.1285
 5330TIP3   OH240184   6.773   7.597   1.809 -0.6334 -0.2333 -0.4112
 5330TIP3    H140185   6.805   7.603   1.719  0.5050  0.5830  0.0310
 5330TIP3    H240186   6.786   7.685   1.845 -0.2031 -0.7951  0.8325
 5331TIP3   OH240187   0.603   0.956   3.307 -0.2177 -0.1950 -0.5127
 5331TIP3    H140188   0.627   0.865   3.286 -0.4042 -0.1015 -1.1647
 5331TIP3    H240189   0.568   0.990   3.225  1.6187  1.0694 -0.8233
 5332TIP3   OH240190   4.742   1.380   9.405  0.2115  0.0296  0.1519
 5332TIP3    H140191   4.671   1.440   9.428 -0.5219 -0.0801 -1.6472
 5332TIP3    H240192   4.726   1.303   9.459 -0.0081  0.6698  1.0286
 5333TIP3   OH240193   0.182   7.529   8.225  0.6317 -0.4178 -0.6639
 5333TIP3    H140194   0.258   7.542   8.167  0.8197 -0.0228 -0.3352
 5333TIP3    H240195   0.129   7.608   8.212 -0.1143 -1.0224 -1.4573
 5334TIP3   OH240196   7.537   2.514   8.849  0.0751  0.1064  0.3986
 5334TIP3    H140197   7.594   2.583   8.886  0.1142  0.2828  0.0105
 5334TIP3    H240198   7.474   2.561   8.795  0.4410 -0.2031 -0.3087
 5335TIP3   OH240199   7.434   3.655   8.912 -0.7641 -0.2102  0.3219
 5335TIP3    H140200   7.456   3.638   8.821  0.8511 -0.3909  0.7222
 5335TIP3    H240201   7.498   3.605   8.963 -1.0537  0.6128  1.5486
 5336TIP3   OH240202   5.148   3.488   8.619 -0.2229 -0.6390 -0.3034
 5336TIP3    H140203   5.154   3.441   8.702  2.1229 -3.2018 -1.7521
 5336TIP3    H240204   5.239   3.500   8.591 -0.6166  4.6254 -0.3158
 5337TIP3   OH240205   1.059   2.319   2.228 -0.1025  0.2953 -0.8187
 5337TIP3    H140206   1.084   2.297   2.318 -0.6389  0.6104 -0.5856
 5337TIP3    H240207   1.090   2.409   2.216  0.5300  0.0338 -1.1680
 5338TIP3   OH240208   7.554   2.476   8.475  0.4988 -0.0651 -0.2755
 5338TIP3    H140209   7.488   2.504   8.539  0.7883 -0.9185  0.4109
 5338TIP3    H240210   7.562   2.550   8.415 -0.3734  0.4303  0.2033
 5339TIP3   OH240211   0.049   6.796   7.769  0.0348 -0.1384  0.1780
 5339TIP3    H140212  -0.025   6.855   7.756  0.4399  0.6609  1.3725
 5339TIP3    H240213   0.118   6.831   7.712 -0.1397 -0.2191 -0.0834
 5340TIP3   OH240214   1.229   1.635   0.963 -0.4870 -0.2459  0.1024
 5340TIP3    H140215   1.155   1.579   0.986 -0.5587  0.1060  0.7610
 5340TIP3    H240216   1.192   1.723   0.960  0.1051  0.0980  1.5847
 5341TIP3   OH240217   5.515   4.448   0.310 -0.0279 -0.2307 -0.0081
 5341TIP3    H140218   5.465   4.412   0.384  0.9162  0.2126  0.8801
 5341TIP3    H240219   5.498   4.543   0.314  0.4950 -0.1345  0.0149
 5342TIP3   OH240220   6.680   1.941   0.490  0.3464  0.7725 -0.3163
 5342TIP3    H140221   6.735   1.863   0.498 -0.4911  0.0108 -1.5605
 5342TIP3    H240222   6.594   1.913   0.521  0.0513  1.2092 -0.7217
 5343TIP3   OH240223   0.887   4.230   9.831 -0.2282  0.6228  0.3543
 5343TIP3    H140224   0.917   4.139   9.840  0.7371  0.8768 -0.0723
 5343TIP3    H240225   0.798   4.223   9.798  0.8532 -0.2125 -2.7832
 5344TIP3   OH240226   3.160   0.203   9.454  0.3375  0.4781  0.0139
 5344TIP3    H140227   3.121   0.120   9.481 -0.0242  0.4907 -0.4488
 5344TIP3    H240228   3.248   0.202   9.491 -0.2470  0.6495  1.4633
 5345TIP3   OH240229   0.058   5.447   7.600  0.1593 -0.4134 -0.0755
 5345TIP3    H140230  -0.019   5.412   7.556  1.0722 -1.2167 -1.1201
 5345TIP3    H240231   0.104   5.497   7.533  0.5197  0.1126  0.5436
 5346TIP3   OH240232   2.234   3.682   2.351  0.1923 -0.2228 -0.4210
 5346TIP3    H140233   2.269   3.729   2.427 -2.8135  0.9378  0.3894
 5346TIP3    H240234   2.171   3.620   2.388  0.5371 -1.4793 -1.8364
 5347TIP3   OH240235   7.478   1.156   3.021 -0.0150 -0.0592  0.9244
 5347TIP3    H140236   7.535   1.152   3.098  1.9344 -0.5752 -0.4874
 5347TIP3    H240237   7.468   1.250   3.004  0.8066  0.0373  0.9253
 5348TIP3   OH240238   1.300   5.861   2.744  0.7048  0.3358 -0.0738
 5348TIP3    H140239   1.395   5.869   2.736  1.0034 -1.8710  0.6157
 5348TIP3    H240240   1.286   5.828   2.833 -0.6131 -0.3230 -0.4984
 5349TIP3   OH240241   3.202   5.337   0.677  0.0423 -0.7910  0.1573
 5349TIP3    H140242   3.229   5.246   0.693  2.0658 -0.2396  0.1279
 5349TIP3    H240243   3.281   5.380   0.645 -1.3408  0.5644 -1.6537
 5350TIP3   OH240244   2.508   7.655   2.263 -0.0562 -0.2384 -0.3514
 5350TIP3    H140245   2.579   7.602   2.300  0.2976  0.3892 -0.1038
 5350TIP3    H240246   2.509   7.736   2.315  0.1217  0.4604 -1.4141
 5351TIP3   OH240247   4.697   2.256   8.744 -0.1057 -0.3178 -0.2290
 5351TIP3    H140248   4.704   2.229   8.835 -0.3247 -1.3127 -0.4998
 5351TIP3    H240249   4.606   2.236   8.720  0.5609 -2.2917 -1.3373
 5352TIP3   OH240250   3.767   0.389   8.677  0.4610  0.2404  0.3551
 5352TIP3    H140251   3.841   0.362   8.623 -0.0949 -1.1865  0.2817
 5352TIP3    H240252   3.706   0.429   8.615 -0.0545 -1.1413 -0.0546
 5353TIP3   OH240253   1.808   5.197   2.415  0.1430 -0.7171 -0.1758
 5353TIP3    H140254   1.731   5.190   2.360 -0.8863 -2.3956  1.3746
 5353TIP3    H240255   1.879   5.162   2.362 -0.3862 -0.3416 -1.1569
 5354TIP3   OH240256   6.148   0.701   1.405 -0.0500  0.1733 -0.2711
 5354TIP3    H140257   6.220   0.708   1.342  1.2114  0.9625  1.1896
 5354TIP3    H240258   6.164   0.617   1.449 -1.0913 -0.5131 -1.1474
 5355TIP3   OH240259   2.175   4.129   0.974 -1.0101  0.0452  0.0904
 5355TIP3    H140260   2.120   4.057   1.005  0.3497 -1.2897 -0.4991
 5355TIP3    H240261   2.264   4.094   0.974 -0.4936  1.2366 -1.6384
 5356TIP3   OH240262   0.238   7.483   7.596 -0.0419 -0.1792 -0.2115
 5356TIP3    H140263   0.209   7.453   7.510  1.9651  0.3192 -1.1226
 5356TIP3    H240264   0.202   7.571   7.605 -0.2262 -0.2192 -0.5621
 5357TIP3   OH240265   7.576   2.260   9.253  0.0890  0.5174  0.1619
 5357TIP3    H140266   7.534   2.337   9.214  0.0260 -0.1747 -1.2073
 5357TIP3    H240267   7.614   2.214   9.178  1.6663  0.1305  1.1487
 5358TIP3   OH240268   0.941   4.829   2.549  0.1380  0.5945 -0.4203
 5358TIP3    H140269   0.901   4.806   2.465 -1.4360  0.8083  0.2364
 5358TIP3    H240270   0.991   4.751   2.574 -2.5573 -1.0287  0.2733
 5359TIP3   OH240271   2.217   1.030   8.610  0.1687 -0.1129 -0.1806
 5359TIP3    H140272   2.294   1.087   8.614 -0.6328  0.9639  2.3668
 5359TIP3    H240273   2.148   1.085   8.574 -0.4997  0.5123  1.8856
 5360TIP3   OH240274   2.711   1.655   9.231  0.1063 -0.4341  0.0368
 5360TIP3    H140275   2.792   1.636   9.185 -0.5608 -0.0763 -1.3340
 5360TIP3    H240276   2.730   1.733   9.283  0.0094  1.1128 -2.1272
 5361TIP3   OH240277   4.522   6.607   0.783 -0.4663 -0.0650 -0.2095
 5361TIP3    H140278   4.577   6.528   0.778 -0.9412 -0.3787 -0.5739
 5361TIP3    H240279   4.482   6.613   0.696 -1.5706 -0.2531  0.2690
 5362TIP3   OH240280   1.156   6.012   2.087  0.2318 -0.0837 -0.2599
 5362TIP3    H140281   1.105   6.092   2.069 -2.3821 -1.7876 -0.9601
 5362TIP3    H240282   1.155   6.005   2.183  0.1678  0.5306 -0.2067
 5363TIP3   OH240283   0.286   3.596   9.653  0.7462 -0.0235 -0.3744
 5363TIP3    H140284   0.214   3.627   9.707  1.7581 -0.3212  1.2157
 5363TIP3    H240285   0.363   3.604   9.709  1.4673 -2.7719 -0.8435
 5364TIP3   OH240286   5.659   0.383   1.767  0.7483 -0.3086 -0.3778
 5364TIP3    H140287   5.720   0.408   1.836  0.8784 -2.2051  0.2391
 5364TIP3    H240288   5.697   0.303   1.729 -1.0940 -1.2714 -0.2860
 5365TIP3   OH240289   7.669   4.559   8.412 -0.2509  0.3251  0.2584
 5365TIP3    H140290   7.756   4.538   8.379 -0.7600 -0.5796 -0.5556
 5365TIP3    H240291   7.641   4.633   8.358 -0.4686 -0.1681 -0.3133
 5366TIP3   OH240292   5.365   7.396   2.243  0.2397 -0.3836  0.0557
 5366TIP3    H140293   5.450   7.437   2.227  1.2773 -2.3597  0.2526
 5366TIP3    H240294   5.305   7.470   2.258  2.0429  1.0316  0.5957
 5367TIP3   OH240295   1.362   1.891   8.844  0.7466 -0.0723  0.3280
 5367TIP3    H140296   1.426   1.957   8.819  1.0401  0.0011  1.2585
 5367TIP3    H240297   1.377   1.819   8.782 -0.1429  1.0423 -1.2342
 5368TIP3   OH240298   4.817   5.605   9.886 -0.0034 -0.1168  0.0573
 5368TIP3    H140299   4.844   5.602   9.978  2.6538  0.3304 -0.6146
 5368TIP3    H240300   4.852   5.688   9.854 -1.0418 -0.1866 -1.3268
 5369TIP3   OH240301   3.169   6.726   0.562 -0.1855 -1.2823  0.3588
 5369TIP3    H140302   3.200   6.764   0.644  0.9428  0.0928 -0.6361
 5369TIP3    H240303   3.074   6.739   0.563  0.0763  1.1728  0.3427
 5370TIP3   OH240304   1.104   7.328   0.430  0.1862 -0.3891 -0.1307
 5370TIP3    H140305   1.076   7.352   0.342  1.7820  1.1727 -0.2510
 5370TIP3    H240306   1.110   7.411   0.477  0.6429 -1.0757  1.0725
 5371TIP3   OH240307   7.307   0.161   9.149 -0.5173  0.1414  0.4106
 5371TIP3    H140308   7.309   0.104   9.072  0.7481  0.5807  0.0888
 5371TIP3    H240309   7.311   0.100   9.224 -2.0361 -0.2981  0.1700
 5372TIP3   OH240310   7.402   7.513   2.838  0.6459 -0.0367  0.4776
 5372TIP3    H140311   7.331   7.449   2.843  0.3275  0.2408 -0.3371
 5372TIP3    H240312   7.364   7.588   2.792  0.8266  1.0096  1.9268
 5373TIP3   OH240313   0.608   5.292   8.834  0.4826 -0.4569  0.0469
 5373TIP3    H140314   0.674   5.240   8.787  1.8197  0.8861  0.3604
 5373TIP3    H240315   0.579   5.357   8.770 -0.1412 -0.6775  0.0944
 5374TIP3   OH240316   4.473   4.273   8.033  0.2144 -0.1945  0.2006
 5374TIP3    H140317   4.439   4.362   8.023 -2.2914 -0.7500  2.4075
 5374TIP3    H240318   4.476   4.260   8.128  0.7426 -2.3861 -0.0690
 5375TIP3   OH240319   2.794   2.231   7.980 -0.3975  0.5335 -0.2535
 5375TIP3    H140320   2.782   2.237   7.885 -1.0432  0.7087 -0.1660
 5375TIP3    H240321   2.845   2.308   8.003  1.1864 -0.3499 -0.6727
 5376TIP3   OH240322   1.673   7.659   0.309  0.4023 -0.4420  0.4729
 5376TIP3    H140323   1.616   7.610   0.368  0.4582  0.5570  1.3879
 5376TIP3    H240324   1.638   7.642   0.221 -1.3929  0.2384  1.0077
 5377TIP3   OH240325   7.296   3.541   1.484  0.0771 -0.7089 -0.5211
 5377TIP3    H140326   7.340   3.583   1.558  0.9960  1.4658 -2.1643
 5377TIP3    H240327   7.212   3.513   1.519  0.1090  1.0527  1.1549
 5378TIP3   OH240328   1.225   6.828   9.266  0.0955  0.1587 -0.1918
 5378TIP3    H140329   1.176   6.910   9.261 -1.7728 -0.6719  2.5893
 5378TIP3    H240330   1.221   6.793   9.177 -2.9997  0.9387 -0.4719
 5379TIP3   OH240331   5.300   0.196   7.044 -0.3509 -0.1632  0.1365
 5379TIP3    H140332   5.326   0.289   7.044 -1.7611  0.2704 -0.6724
 5379TIP3    H240333   5.272   0.179   7.133  0.4790  0.0056  0.4399
 5380TIP3   OH240334   3.471   2.002   8.155 -0.7353 -0.2477 -0.2475
 5380TIP3    H140335   3.432   2.083   8.188 -1.3605 -0.8648  0.5813
 5380TIP3    H240336   3.556   2.029   8.120 -0.8473  0.7333  0.1920
 5381TIP3   OH240337   0.725   3.009   2.439  0.4578 -0.8571 -0.0089
 5381TIP3    H140338   0.758   3.039   2.354  0.7175 -1.2920 -0.0682
 5381TIP3    H240339   0.672   3.081   2.471 -1.0099 -1.2932 -1.2954
 5382TIP3   OH240340   5.085   4.176   0.018  0.3869 -0.2343 -0.3577
 5382TIP3    H140341   5.015   4.112   0.001  0.8687 -0.6900 -0.6284
 5382TIP3    H240342   5.150   4.161  -0.050  0.3709  0.7595 -0.6098
 5383TIP3   OH240343   6.858   2.772   2.257 -0.4640  0.1163 -0.6592
 5383TIP3    H140344   6.795   2.775   2.185 -2.4398  0.7024  0.9586
 5383TIP3    H240345   6.883   2.680   2.263 -1.4202 -0.1973 -1.1735
 5384TIP3   OH240346   3.594   1.117  -0.023  0.1346 -0.1863  0.0840
 5384TIP3    H140347   3.528   1.172   0.019 -1.8108 -3.1421  1.2323
 5384TIP3    H240348   3.570   1.118  -0.116 -0.9082 -0.3535  0.3324
 5385TIP3   OH240349   1.309   3.811   0.403  0.3288 -0.0075 -0.1205
 5385TIP3    H140350   1.281   3.756   0.476 -0.5798 -0.8739 -1.0931
 5385TIP3    H240351   1.291   3.759   0.325  2.3828  0.4082 -0.9409
 5386TIP3   OH240352   5.651   7.194   3.182 -0.1357  0.2180  0.5822
 5386TIP3    H140353   5.652   7.099   3.177 -0.2182  0.2958 -1.7914
 5386TIP3    H240354   5.560   7.218   3.164  0.1712  0.7865 -0.2372
 5387TIP3   OH240355   7.441   7.613   2.179 -0.0705  0.2212 -0.4830
 5387TIP3    H140356   7.440   7.517   2.186 -0.9933  0.0574 -2.1558
 5387TIP3    H240357   7.384   7.643   2.249  0.4481 -0.4341  0.2319
 5388TIP3   OH240358   1.975   4.003   1.328  0.2576  0.1086 -0.2455
 5388TIP3    H140359   1.880   3.995   1.335  0.4504 -1.6059  1.0458
 5388TIP3    H240360   1.999   4.068   1.394  0.1465 -1.1496  1.0931
 5389TIP3   OH240361   0.103   1.512   0.453 -0.7347 -0.3193 -0.4497
 5389TIP3    H140362   0.162   1.514   0.377  0.2823  0.2611  0.3389
 5389TIP3    H240363   0.115   1.596   0.496 -0.8375 -0.8638  0.7000
 5390TIP3   OH240364   3.788   6.742   7.214  0.0342 -0.4398  0.1848
 5390TIP3    H140365   3.764   6.721   7.124  0.1635  0.5978 -0.1079
 5390TIP3    H240366   3.829   6.662   7.247  1.5130 -0.3319 -1.2329
 5391TIP3   OH240367   2.565   0.012   3.064 -0.7906 -0.7650 -0.4074
 5391TIP3    H140368   2.632   0.080   3.069 -0.5831 -1.0344  0.8682
 5391TIP3    H240369   2.482   0.058   3.078 -0.6823 -0.7092  0.0736
 5392TIP3   OH240370   7.137   4.534  10.000  0.6361 -0.4554 -0.9819
 5392TIP3    H140371   7.219   4.556   9.955  0.6841  4.1830  0.7544
 5392TIP3    H240372   7.068   4.567   9.942  0.4909  1.6296  0.2526
 5393TIP3   OH240373   4.785   5.748   7.980  0.3496  0.6475  0.0745
 5393TIP3    H140374   4.750   5.795   7.905 -0.4682 -0.2852 -0.1477
 5393TIP3    H240375   4.787   5.656   7.952  2.5276  0.5919  0.2577
 5394TIP3   OH240376   0.466   0.241   7.679 -0.2594 -0.1952 -0.6994
 5394TIP3    H140377   0.484   0.279   7.593 -0.2807 -0.2682 -0.7360
 5394TIP3    H240378   0.489   0.311   7.741  0.1367 -0.2787 -0.7478
 5395TIP3   OH240379   1.035   1.012   2.802  0.4015 -0.2168 -0.1978
 5395TIP3    H140380   0.953   1.060   2.797  0.5876  0.2396  0.8127
 5395TIP3    H240381   1.103   1.079   2.790  0.6309 -0.5332 -0.6798
 5396TIP3   OH240382   2.230   3.239   7.705 -0.1957 -0.0456  0.8020
 5396TIP3    H140383   2.319   3.242   7.740  0.5165  2.5036 -0.9599
 5396TIP3    H240384   2.188   3.317   7.741 -0.8590  0.1782 -0.4299
 5397TIP3   OH240385   2.009   2.133   9.209  0.0979 -0.3623  0.0097
 5397TIP3    H140386   2.025   2.047   9.248 -0.6464 -0.8158 -0.6602
 5397TIP3    H240387   2.066   2.136   9.132 -1.7289 -1.3157 -1.4368
 5398TIP3   OH240388   7.506   6.517   2.676 -0.1986 -0.4298 -0.1279
 5398TIP3    H140389   7.576   6.453   2.659  0.0192  0.1655 -1.5332
 5398TIP3    H240390   7.543   6.601   2.651 -1.2927 -0.0535 -0.5417
 5399TIP3   OH240391   0.850   2.003   2.222 -0.0440 -0.5268 -0.8100
 5399TIP3    H140392   0.843   1.910   2.242 -0.3535  0.2070  3.6218
 5399TIP3    H240393   0.759   2.033   2.216 -0.2155  0.1024  2.6401
 5400TIP3   OH240394   5.721   6.618   2.554 -0.3482  0.1398  0.2302
 5400TIP3    H140395   5.799   6.569   2.528  0.5982  1.0781  1.2148
 5400TIP3    H240396   5.656   6.551   2.574  0.1266 -0.6565 -0.8004
 5401TIP3   OH240397   7.138   1.975   9.460  0.2010  0.1130  0.0330
 5401TIP3    H140398   7.165   1.936   9.543 -1.6383 -1.2015  0.0663
 5401TIP3    H240399   7.215   2.023   9.430  1.9627 -1.9617  0.9684
 5402TIP3   OH240400   0.508   1.756   9.527 -0.1072 -0.0726  0.0019
 5402TIP3    H140401   0.499   1.848   9.554  0.7947  0.1311 -0.3474
 5402TIP3    H240402   0.438   1.711   9.573  1.8324  0.0707  3.4408
 5403TIP3   OH240403   2.920   2.756   2.740  0.2200 -0.1641 -0.7904
 5403TIP3    H140404   3.012   2.775   2.756  0.1303  0.7798 -1.2620
 5403TIP3    H240405   2.918   2.664   2.715  1.2079  0.0762 -1.8903
 5404TIP3   OH240406   2.956   4.786   8.734  0.4334 -0.0580  0.2772
 5404TIP3    H140407   2.991   4.828   8.813 -0.3500 -0.0901  0.6499
 5404TIP3    H240408   3.018   4.716   8.715  3.0954  2.5796 -1.6768
 5405TIP3   OH240409   4.899   7.130   9.794  0.2485 -0.1221  0.3396
 5405TIP3    H140410   4.912   7.211   9.843 -1.7273  0.3619  0.1473
 5405TIP3    H240411   4.808   7.134   9.764  0.5775 -1.6954 -1.0126
 5406TIP3   OH240412   3.961   4.665   7.913  0.5717 -0.2730 -0.2056
 5406TIP3    H140413   4.008   4.582   7.914 -1.5422 -1.5341  0.5545
 5406TIP3    H240414   3.919   4.667   7.826  1.1312  0.3235 -0.4682
 5407TIP3   OH240415   3.585   7.239   1.094 -0.1319  0.0282 -0.2283
 5407TIP3    H140416   3.547   7.327   1.084 -0.7439 -0.1079  0.7459
 5407TIP3    H240417   3.612   7.235   1.185 -0.8176 -1.0656 -0.0537
 5408TIP3   OH240418   2.019   6.050   2.255 -0.1646  0.3094 -0.5516
 5408TIP3    H140419   2.090   6.046   2.319 -0.6627 -0.7993 -0.0392
 5408TIP3    H240420   2.041   6.125   2.199  2.0486 -0.7373 -1.1776
 5409TIP3   OH240421   0.959   7.161   8.676  0.4509 -0.1212  0.1026
 5409TIP3    H140422   1.029   7.140   8.738  0.6942  1.1366  0.2804
 5409TIP3    H240423   0.893   7.093   8.691  0.8933 -0.3518  1.1175
 5410TIP3   OH240424   1.715   1.397   7.395 -0.2560  0.3408  0.5034
 5410TIP3    H140425   1.765   1.479   7.389  0.2657 -0.0124 -0.1411
 5410TIP3    H240426   1.776   1.334   7.432 -0.7111  0.2725  1.1623
 5411TIP3   OH240427   5.917   4.269   7.206 -0.0281 -0.5386  0.1084
 5411TIP3    H140428   5.961   4.291   7.288 -0.7630  1.9665 -0.0877
 5411TIP3    H240429   5.912   4.352   7.158  0.1692 -1.8772 -2.3900
 5412TIP3   OH240430   2.440   7.271   9.477 -0.7602  0.2481  0.5016
 5412TIP3    H140431   2.414   7.218   9.401  0.8395  0.0110  0.0677
 5412TIP3    H240432   2.396   7.355   9.464  0.6681  0.7644 -1.5669
 5413TIP3   OH240433   4.207   1.215   0.630 -0.0337 -0.0213  0.3860
 5413TIP3    H140434   4.295   1.242   0.603  0.5880 -1.7661  0.5284
 5413TIP3    H240435   4.159   1.297   0.640  1.7192  1.0159  0.7914
 5414TIP3   OH240436   4.652   0.251   8.440  0.1935 -0.2047  0.1163
 5414TIP3    H140437   4.620   0.256   8.530  0.7731 -0.3890  0.3357
 5414TIP3    H240438   4.652   0.157   8.420 -0.7553 -0.1056 -0.3775
 5415TIP3   OH240439   3.927   1.989   1.396 -0.5551  0.1858  0.0617
 5415TIP3    H140440   3.903   2.013   1.486  0.2001 -0.2540  0.3876
 5415TIP3    H240441   4.018   2.015   1.388 -0.8923  1.1165 -0.9121
 5416TIP3   OH240442   2.535   1.020   9.641 -0.3406  0.5413 -0.1105
 5416TIP3    H140443   2.461   0.966   9.667 -1.3806  0.7689 -2.4038
 5416TIP3    H240444   2.572   0.976   9.565  1.5793  0.7406  0.6424
 5417TIP3   OH240445   4.058   7.150   0.453 -0.6406 -0.1426 -0.1670
 5417TIP3    H140446   4.053   7.231   0.402 -0.2043 -1.0135 -1.6403
 5417TIP3    H240447   4.150   7.141   0.475 -0.8486  0.3147  0.9738
 5418TIP3   OH240448   2.218   5.630   8.783 -0.2435 -0.1810  0.1736
 5418TIP3    H140449   2.227   5.545   8.825 -0.4953  0.0375  0.6800
 5418TIP3    H240450   2.149   5.674   8.833  1.0873  1.0022  1.0705
 5419TIP3   OH240451   2.643   3.044   8.368 -0.3533 -0.0033  0.1133
 5419TIP3    H140452   2.607   2.967   8.411 -0.1834 -0.9529 -1.3657
 5419TIP3    H240453   2.569   3.085   8.324 -0.0148 -0.8880 -1.3523
 5420TIP3   OH240454   7.119   6.361   8.349 -0.4606  0.0278 -0.5125
 5420TIP3    H140455   7.136   6.394   8.262 -2.3180  1.1585 -0.5063
 5420TIP3    H240456   7.138   6.435   8.407 -0.1746 -0.4023 -0.0539
 5421TIP3   OH240457   7.482   3.615   8.617 -0.1137  0.5892 -0.3426
 5421TIP3    H140458   7.487   3.710   8.603 -0.6160  0.3543 -2.3259
 5421TIP3    H240459   7.394   3.591   8.589 -0.0024 -0.4782  0.1736
 5422TIP3   OH240460   6.358   5.087   0.789 -0.7474  0.7626 -0.1755
 5422TIP3    H140461   6.371   5.058   0.699  0.2090  1.8942 -0.4330
 5422TIP3    H240462   6.322   5.176   0.780 -0.1882  1.0717  0.5459
 5423TIP3   OH240463   7.364   6.382   1.978  0.3080 -0.5935 -0.4115
 5423TIP3    H140464   7.412   6.464   1.963  0.6239 -0.6806  0.0787
 5423TIP3    H240465   7.429   6.323   2.016  0.2881 -1.3410 -1.5107
 5424TIP3   OH240466   3.734   3.557   8.925  0.4018 -0.5757  0.2440
 5424TIP3    H140467   3.771   3.561   9.013  1.2382  0.9255 -0.1451
 5424TIP3    H240468   3.642   3.536   8.939  0.4234  0.0692  1.5238
 5425TIP3   OH240469   6.043  -0.030   7.559  0.3124 -0.6321 -0.0541
 5425TIP3    H140470   6.002  -0.111   7.589  0.6078 -1.2781 -1.3233
 5425TIP3    H240471   5.971   0.031   7.549 -0.0019 -0.9409  0.2502
 5426TIP3   OH240472   0.843   2.494   9.771 -0.2093 -0.5476  0.3289
 5426TIP3    H140473   0.856   2.580   9.811 -0.1182 -0.5010  0.2015
 5426TIP3    H240474   0.912   2.488   9.704  0.1420 -0.9519  0.7225
 5427TIP3   OH240475   4.623   5.865   8.574 -0.2024 -0.7212  0.0732
 5427TIP3    H140476   4.583   5.874   8.488 -1.1614 -0.6191  0.5199
 5427TIP3    H240477   4.554   5.889   8.636  0.5599 -0.4846  0.8656
 5428TIP3   OH240478   4.020   4.127   9.960  0.4865 -0.8673  0.3376
 5428TIP3    H140479   3.941   4.152   9.912 -0.0907 -0.5032  1.4294
 5428TIP3    H240480   4.091   4.170   9.913 -0.1506  0.1506  0.2686
 5429TIP3   OH240481   7.517   0.738   8.039  0.2281 -0.0102 -0.4810
 5429TIP3    H140482   7.533   0.810   8.101 -0.1391 -1.6291  1.6143
 5429TIP3    H240483   7.593   0.739   7.981  0.8807  1.2336  0.3406
 5430TIP3   OH240484   5.689   7.703   1.272  0.5769  0.3646 -0.0421
 5430TIP3    H140485   5.726   7.774   1.325  1.2611  0.7243 -0.9697
 5430TIP3    H240486   5.597   7.700   1.298  0.9077  0.4644  1.2222
 5431TIP3   OH240487   2.262   5.171   7.167  0.2140 -0.4756 -0.1201
 5431TIP3    H140488   2.261   5.206   7.256 -0.9879  3.8824 -1.5816
 5431TIP3    H240489   2.171   5.145   7.151 -0.0052  0.5727 -0.6393
 5432TIP3   OH240490   6.504   3.760   8.258  0.1230  0.5041  0.2314
 5432TIP3    H140491   6.411   3.782   8.248  0.0729  0.3156  0.2767
 5432TIP3    H240492   6.539   3.827   8.316 -0.2494 -0.0959  1.1657
 5433TIP3   OH240493   1.798   3.179   9.486 -0.6906  0.3067  0.3113
 5433TIP3    H140494   1.804   3.274   9.488 -0.0952  0.4951 -3.6810
 5433TIP3    H240495   1.711   3.160   9.450 -0.0403 -0.5312 -0.9036
 5434TIP3   OH240496   0.309   1.124   8.626  0.7067  0.2307 -0.5700
 5434TIP3    H140497   0.279   1.142   8.715 -0.8650  0.3884 -1.1005
 5434TIP3    H240498   0.301   1.208   8.580  0.3704 -0.1170 -1.1607
 5435TIP3   OH240499   2.066   4.229   1.473  0.8019  0.4203  0.6429
 5435TIP3    H140500   2.056   4.288   1.399  0.6678  0.0773  0.3834
 5435TIP3    H240501   2.007   4.263   1.540  1.7657  1.3899  1.0103
 5436TIP3   OH240502   0.558   5.783   3.100 -0.3929  0.6255 -0.2511
 5436TIP3    H140503   0.653   5.775   3.091 -0.3519 -0.5834  0.8479
 5436TIP3    H240504   0.542   5.774   3.194 -1.6216  0.3548 -0.4622
 5437TIP3   OH240505   2.725   5.844   9.809 -0.6576  0.0321  0.0910
 5437TIP3    H140506   2.784   5.837   9.734 -2.0219  0.1511 -1.0469
 5437TIP3    H240507   2.707   5.938   9.817  1.2600  0.3192  2.0784
 5438TIP3   OH240508   1.167   1.121   8.447  0.0193 -0.0349  0.3872
 5438TIP3    H140509   1.075   1.133   8.467 -0.4283 -0.8758 -0.9814
 5438TIP3    H240510   1.192   1.201   8.399  0.0536  0.2652  0.9025
 5439TIP3   OH240511   2.744   6.845   7.435  0.0191  0.0545  0.4799
 5439TIP3    H140512   2.840   6.854   7.430 -0.0552  1.1671  0.6955
 5439TIP3    H240513   2.715   6.850   7.344  0.1773 -0.5115  0.3951
 5440TIP3   OH240514   6.797   3.766   9.594 -0.1589 -0.2740 -0.2290
 5440TIP3    H140515   6.827   3.677   9.577  0.3059  0.2281 -2.2125
 5440TIP3    H240516   6.874   3.812   9.626 -0.3920 -0.5351  0.7665
 5441TIP3   OH240517   5.718   2.222   8.795 -0.1475 -0.1957 -0.3970
 5441TIP3    H140518   5.774   2.197   8.868  0.4504  0.9364 -0.4472
 5441TIP3    H240519   5.767   2.198   8.717 -0.1868 -0.1619 -0.4323
 5442TIP3   OH240520   5.473   4.358   7.533 -0.0925  0.0868  0.0493
 5442TIP3    H140521   5.544   4.310   7.491  0.3561  0.8992 -0.1399
 5442TIP3    H240522   5.427   4.292   7.585  1.6892 -0.1814  1.3735
 5443TIP3   OH240523   4.937   0.234   0.486 -0.0218  0.3585  0.1652
 5443TIP3    H140524   4.926   0.190   0.570  0.0231 -0.2036 -0.1151
 5443TIP3    H240525   4.998   0.178   0.437  0.4313  0.9944 -0.0190
 5444TIP3   OH240526   1.326   2.997   7.097 -0.3562 -0.2270 -0.3204
 5444TIP3    H140527   1.396   2.984   7.161 -1.3482 -2.8837  0.3528
 5444TIP3    H240528   1.367   2.977   7.013  0.6854  2.2979 -0.5235
 5445TIP3   OH240529   4.702   3.378   8.441 -0.6371  0.2530 -0.0976
 5445TIP3    H140530   4.726   3.444   8.506  0.0731  0.3066 -0.3973
 5445TIP3    H240531   4.752   3.300   8.465  0.1390  0.4659 -0.9233
 5446TIP3   OH240532   0.352   6.045   1.074  0.6954  0.4446  0.1719
 5446TIP3    H140533   0.364   5.953   1.095 -1.6445 -0.0493 -0.3585
 5446TIP3    H240534   0.383   6.092   1.152  0.3178 -0.8766  1.1482
 5447TIP3   OH240535   2.903   2.018   0.573 -0.4734 -0.0909 -0.0158
 5447TIP3    H140536   2.958   2.096   0.574 -1.2092  0.5286 -2.4480
 5447TIP3    H240537   2.945   1.959   0.637  0.8660  1.7339  0.8840
 5448TIP3   OH240538   0.123   7.265   1.894 -0.2864  0.0399  0.4047
 5448TIP3    H140539   0.197   7.303   1.941 -1.4721  1.9914  0.8272
 5448TIP3    H240540   0.156   7.249   1.806  0.6201  0.9486  0.5570
 5449TIP3   OH240541   6.893   1.061   9.043  0.0620 -0.0489  0.5678
 5449TIP3    H140542   6.973   1.055   9.096  0.3404  1.8486  0.4277
 5449TIP3    H240543   6.840   1.128   9.087 -0.3664  0.4813 -0.7154
 5450TIP3   OH240544   2.848   1.303   7.772 -0.2198  0.5721  0.4916
 5450TIP3    H140545   2.900   1.325   7.849 -0.0455 -0.5637  0.7048
 5450TIP3    H240546   2.820   1.213   7.786 -0.2126  0.3547 -0.7613
 5451TIP3   OH240547   6.186   3.755   7.328  0.1649  0.4494 -0.1938
 5451TIP3    H140548   6.132   3.680   7.354 -1.2606  1.6246  0.4403
 5451TIP3    H240549   6.191   3.750   7.233 -0.4160 -0.1379 -0.2008
 5452TIP3   OH240550   1.182   4.677   1.111 -0.1050  0.5415  0.3541
 5452TIP3    H140551   1.248   4.740   1.142  1.1959  0.0764 -1.3390
 5452TIP3    H240552   1.229   4.622   1.048 -2.0219 -0.0691 -0.6149
 5453TIP3   OH240553   6.302   2.367   8.834  0.3229 -0.6763 -0.5791
 5453TIP3    H140554   6.392   2.398   8.826 -0.2969  1.5078  0.2497
 5453TIP3    H240555   6.279   2.335   8.746  1.5199 -0.1670 -1.0916
 5454TIP3   OH240556   2.225   0.820   2.182 -0.0332 -0.4878  0.5268
 5454TIP3    H140557   2.298   0.858   2.231 -0.7965  1.7532  0.0626
 5454TIP3    H240558   2.221   0.729   2.212  1.0132  0.1480  2.8615
 5455TIP3   OH240559   3.109   2.070   1.700  0.1205 -0.2180  0.2746
 5455TIP3    H140560   3.192   2.111   1.677  0.4506 -0.9031  0.2114
 5455TIP3    H240561   3.107   1.989   1.649  0.3748 -1.2306  1.7991
 5456TIP3   OH240562   4.858   3.625   8.511  0.4871 -0.0069 -0.0321
 5456TIP3    H140563   4.859   3.648   8.418  2.0172  0.1650 -0.0036
 5456TIP3    H240564   4.944   3.586   8.527 -0.3068 -1.4122  0.9936
 5457TIP3   OH240565   7.587   1.979   1.949  0.2193  0.3662 -0.1760
 5457TIP3    H140566   7.529   2.055   1.951  0.5757  0.6544 -0.6433
 5457TIP3    H240567   7.531   1.907   1.920  0.4775  1.0261 -2.5868
 5458TIP3   OH240568   0.521   4.195   0.151  0.7054  0.0104 -0.0107
 5458TIP3    H140569   0.601   4.224   0.196 -0.3170 -2.1694  3.6909
 5458TIP3    H240570   0.505   4.107   0.187 -1.8281 -0.8419 -2.8353
 5459TIP3   OH240571   5.018   6.229   9.399  0.1666  0.4440  0.0862
 5459TIP3    H140572   5.094   6.248   9.455 -0.4944 -0.2810  1.2769
 5459TIP3    H240573   4.943   6.234   9.458 -0.5062 -0.8431 -0.6189
 5460TIP3   OH240574   1.809   3.505   0.338 -0.0030 -0.0003 -0.0139
 5460TIP3    H140575   1.822   3.413   0.360 -1.2037 -1.1826 -3.6225
 5460TIP3    H240576   1.761   3.541   0.413  0.8971 -2.1410  1.6973
 5461TIP3   OH240577   0.968   0.635   8.673  0.5647  0.1917 -0.1193
 5461TIP3    H140578   0.907   0.574   8.632  1.2205  0.3953 -1.4537
 5461TIP3    H240579   0.930   0.653   8.759 -0.4438 -0.8704 -0.3194
 5462TIP3   OH240580   1.135   3.302   0.711  0.8479 -0.8857  0.3858
 5462TIP3    H140581   1.170   3.214   0.695  2.2407 -0.1496 -0.8383
 5462TIP3    H240582   1.194   3.361   0.664  0.8876  0.8709  2.4542
 5463TIP3   OH240583   1.411   3.415   9.074  0.7879 -0.0575 -0.0207
 5463TIP3    H140584   1.442   3.326   9.057  2.1718  0.4975 -0.5683
 5463TIP3    H240585   1.412   3.423   9.169 -0.8706 -1.1099  0.1260
 5464TIP3   OH240586   1.763   0.483   7.020  0.0696 -0.0743  0.4132
 5464TIP3    H140587   1.849   0.502   7.059  1.3974 -0.1623 -2.2669
 5464TIP3    H240588   1.781   0.475   6.926 -3.0778  0.9339 -0.3626
 5465TIP3   OH240589   2.266   6.575   0.608 -0.0058  0.7506 -0.2736
 5465TIP3    H140590   2.200   6.644   0.609 -1.2702 -0.3601  1.9317
 5465TIP3    H240591   2.334   6.605   0.668 -1.1890 -0.3782  1.7386
 5466TIP3   OH240592   2.569   2.098   9.046 -0.0056  0.2015  0.1097
 5466TIP3    H140593   2.648   2.113   9.099 -0.1036 -0.4359  0.4506
 5466TIP3    H240594   2.601   2.052   8.968  0.3305  2.2867 -1.0527
 5467TIP3   OH240595   6.725   0.836   3.014 -0.0546  0.1944 -1.1408
 5467TIP3    H140596   6.701   0.920   3.054  1.8192  0.7982 -1.1878
 5467TIP3    H240597   6.671   0.771   3.060 -1.2900  1.3823 -0.8694
 5468TIP3   OH240598   1.236   4.366   8.641  0.6197  0.2664  0.2147
 5468TIP3    H140599   1.165   4.307   8.615  0.7037 -0.4253  1.4759
 5468TIP3    H240600   1.208   4.404   8.724  0.9659  1.3356 -0.1477
 5469TIP3   OH240601   6.644   7.005   7.414  0.0944  0.1682  1.1830
 5469TIP3    H140602   6.566   7.045   7.376  0.8888  1.8440  1.2196
 5469TIP3    H240603   6.672   6.941   7.348 -1.6025 -0.9022  1.4403
 5470TIP3   OH240604   6.460   1.152   0.029  0.0420 -0.3292 -0.0543
 5470TIP3    H140605   6.482   1.063   0.057 -0.1376 -0.4630 -0.3395
 5470TIP3    H240606   6.408   1.188   0.101 -0.3850 -0.6596 -0.1990
 5471TIP3   OH240607   4.137   6.023   9.276 -0.3690  0.2747 -0.1760
 5471TIP3    H140608   4.186   6.051   9.199 -1.1019  0.2040 -0.6826
 5471TIP3    H240609   4.100   5.938   9.250 -2.7150  1.3826 -0.7188
 5472TIP3   OH240610   6.253   3.114   1.890  0.0020 -0.0245 -0.0799
 5472TIP3    H140611   6.287   3.162   1.965 -0.7436  0.1794  0.1348
 5472TIP3    H240612   6.241   3.181   1.822  0.3837 -0.1600 -0.2896
 5473TIP3   OH240613   6.537   4.093   0.735  0.0138  0.8624  0.0931
 5473TIP3    H140614   6.626   4.097   0.771  0.2555 -1.3590 -0.0877
 5473TIP3    H240615   6.521   4.180   0.699  1.2723  1.9674  2.0358
 5474TIP3   OH240616   0.511   3.703   0.113  0.5656 -0.1649  0.5514
 5474TIP3    H140617   0.417   3.696   0.097  0.6476  1.0934 -0.7072
 5474TIP3    H240618   0.520   3.700   0.208 -0.6683 -1.1095  0.6526
 5475TIP3   OH240619   2.413   4.197   1.525  0.1143 -0.1204  0.5522
 5475TIP3    H140620   2.385   4.273   1.575 -2.5462 -0.9029  0.3725
 5475TIP3    H240621   2.333   4.149   1.507  1.3280 -1.3547 -2.0413
 5476TIP3   OH240622   6.628   3.506   0.295  0.1907 -0.0161  0.1095
 5476TIP3    H140623   6.554   3.565   0.314  0.7699  0.4577  0.9576
 5476TIP3    H240624   6.592   3.418   0.307 -0.6312  0.1482 -0.9634
 5477TIP3   OH240625   6.635   6.793   0.797  0.0724  0.4939 -0.2634
 5477TIP3    H140626   6.687   6.862   0.838 -0.2262  0.9959 -0.7156
 5477TIP3    H240627   6.666   6.789   0.706  0.4723 -0.3511 -0.1030
 5478TIP3   OH240628   7.376   1.100   1.727  0.3454  0.1407  0.2748
 5478TIP3    H140629   7.345   1.169   1.668  1.5628 -0.2050 -0.8076
 5478TIP3    H240630   7.469   1.119   1.739  0.8819 -1.7238 -0.6420
 5479TIP3   OH240631   4.770   7.519   0.578  0.1018  0.2212  0.3796
 5479TIP3    H140632   4.853   7.511   0.530  0.7785 -0.4551  1.6242
 5479TIP3    H240633   4.704   7.527   0.509  0.9248 -1.7350 -0.7176
 5480TIP3   OH240634   1.312   2.137   1.374 -0.6354 -0.4017 -0.5579
 5480TIP3    H140635   1.321   2.175   1.286  0.5171  0.7231  0.0134
 5480TIP3    H240636   1.218   2.122   1.384 -0.8574  0.0771 -1.7213
 5481TIP3   OH240637   4.043   5.213   8.155 -0.2790  0.3137  0.1049
 5481TIP3    H140638   4.079   5.297   8.127  1.1999 -0.2782  0.1790
 5481TIP3    H240639   4.108   5.177   8.215 -1.9177  0.1010  1.8590
 5482TIP3   OH240640   4.563   2.675   9.282 -0.4641  0.5033 -0.8961
 5482TIP3    H140641   4.509   2.616   9.336 -0.0187  1.8956  1.2126
 5482TIP3    H240642   4.507   2.752   9.267  0.3945  1.3605  0.1152
 5483TIP3   OH240643   4.385   0.248   7.967  0.1616 -0.8937 -0.1243
 5483TIP3    H140644   4.339   0.312   8.021 -0.3136 -0.5157 -0.9729
 5483TIP3    H240645   4.423   0.186   8.031  1.4486  0.7421  0.7734
 5484TIP3   OH240646   4.295   0.801   8.353 -0.1026  0.1296 -0.2124
 5484TIP3    H140647   4.382   0.811   8.313 -0.4733 -0.4272 -1.1916
 5484TIP3    H240648   4.271   0.710   8.336 -2.5106  1.1677 -3.4649
 5485TIP3   OH240649   6.797   1.746   7.144 -0.1079  0.2501 -0.0531
 5485TIP3    H140650   6.868   1.723   7.085 -1.2525 -0.0339 -1.3812
 5485TIP3    H240651   6.819   1.704   7.227  0.4385 -1.2622 -0.9330
 5486TIP3   OH240652   0.693   0.768   0.220 -0.4924  0.2258  0.3038
 5486TIP3    H140653   0.659   0.825   0.288  1.6087  0.4526  1.2447
 5486TIP3    H240654   0.673   0.679   0.251 -1.8638  0.3570 -0.1214
 5487TIP3   OH240655   1.180   2.691   1.704  0.0021  0.0539  0.6525
 5487TIP3    H140656   1.105   2.751   1.701  0.5668  0.7693 -2.1850
 5487TIP3    H240657   1.246   2.739   1.754 -0.4476  0.6636  0.6799
 5488TIP3   OH240658   6.675   2.026   8.084  0.5257 -0.0667 -0.0275
 5488TIP3    H140659   6.599   2.043   8.028 -0.4354  0.5342  1.3849
 5488TIP3    H240660   6.666   1.934   8.110  0.5542 -0.1368 -0.2694
 5489TIP3   OH240661   3.899   5.020   8.285  0.0290  0.0721 -0.4511
 5489TIP3    H140662   3.949   5.092   8.247  1.1761 -0.6980 -0.4588
 5489TIP3    H240663   3.965   4.958   8.315 -0.9189 -0.7008  0.1236
 5490TIP3   OH240664   0.955   6.623   9.480 -0.0387  0.4467  0.3834
 5490TIP3    H140665   1.023   6.559   9.498 -0.5550 -0.2013  0.0460
 5490TIP3    H240666   0.939   6.665   9.565  0.8814  0.7207  0.4327
 5491TIP3   OH240667   0.053   0.969   0.264 -0.0234  0.1379  0.0413
 5491TIP3    H140668  -0.038   0.947   0.244 -1.0672  0.8634  3.3210
 5491TIP3    H240669   0.088   0.889   0.302  0.8953 -0.2483 -1.5336
 5492TIP3   OH240670   4.027   4.532   8.248  0.4548  0.3443  0.2828
 5492TIP3    H140671   4.041   4.512   8.341 -0.3559  1.1983  0.6023
 5492TIP3    H240672   4.040   4.449   8.203  2.8488  0.2886  0.9197
 5493TIP3   OH240673   3.369   5.268   0.275  0.2753 -0.0140  0.0317
 5493TIP3    H140674   3.320   5.327   0.217 -2.5365 -1.1191  1.1569
 5493TIP3    H240675   3.444   5.240   0.222  0.6402  2.9524 -1.2286
 5494TIP3   OH240676   3.912   7.109   9.079 -0.3695 -0.2065  0.5543
 5494TIP3    H140677   3.858   7.082   9.153  1.0889 -0.1110  1.7088
 5494TIP3    H240678   3.972   7.174   9.116 -0.2272  0.5524 -0.9383
 5495TIP3   OH240679   1.204   5.175   7.130 -0.8030 -0.1651 -0.2731
 5495TIP3    H140680   1.289   5.159   7.088 -0.9504 -0.1150 -0.5934
 5495TIP3    H240681   1.144   5.113   7.089 -1.2353  0.7607 -1.0805
 5496TIP3   OH240682   2.177   6.666   9.737 -0.0256 -0.5201  0.7411
 5496TIP3    H140683   2.180   6.754   9.699  2.2384 -1.4571 -1.5783
 5496TIP3    H240684   2.231   6.671   9.816 -0.9877  0.4336  1.3541
 5497TIP3   OH240685   7.086   2.424   2.338 -0.0577  0.0235 -0.4832
 5497TIP3    H140686   7.020   2.372   2.291 -0.4494 -0.8235  0.9470
 5497TIP3    H240687   7.044   2.446   2.421  1.4374 -0.5381  0.4541
 5498TIP3   OH240688   2.869   4.641   8.009  0.1500  0.2424 -0.1166
 5498TIP3    H140689   2.832   4.623   7.922  1.0634 -0.1945 -0.4285
 5498TIP3    H240690   2.913   4.725   7.998  0.1782  0.2363 -0.0467
 5499TIP3   OH240691   5.764   6.447   8.046  0.7847 -0.3021  0.0813
 5499TIP3    H140692   5.713   6.509   8.099 -0.2731 -0.0831 -1.1481
 5499TIP3    H240693   5.853   6.483   8.049  0.6278  0.0664  1.1433
 5500TIP3   OH240694   6.405   5.214   9.886 -0.0625  0.4562 -0.3085
 5500TIP3    H140695   6.482   5.225   9.943  1.2007 -1.8801 -1.4079
 5500TIP3    H240696   6.331   5.216   9.946  0.9895  1.0592  1.0350
 5501TIP3   OH240697   5.687   4.688   8.141 -0.8114  0.1347 -0.4832
 5501TIP3    H140698   5.701   4.638   8.061 -0.2087  0.3758 -0.5356
 5501TIP3    H240699   5.763   4.745   8.147 -1.2488  0.6958 -0.1631
 5502TIP3   OH240700   3.489   0.673   9.669  0.4669  0.0133 -0.1859
 5502TIP3    H140701   3.400   0.645   9.649  0.7748 -0.5208 -0.8498
 5502TIP3    H240702   3.479   0.735   9.741 -0.6213  1.3235 -1.3795
 5503TIP3   OH240703   1.161   2.596   8.659 -0.0700  0.7288 -0.7794
 5503TIP3    H140704   1.254   2.574   8.663  0.0613  1.4368  0.8380
 5503TIP3    H240705   1.117   2.512   8.644  0.7291  0.1208  0.1641
 5504TIP3   OH240706   0.726   6.579   9.021 -0.2455 -0.0282  0.2559
 5504TIP3    H140707   0.751   6.536   9.102 -1.4911 -0.3332  0.5009
 5504TIP3    H240708   0.791   6.648   9.009  0.4313 -0.5070  1.0701
 5505TIP3   OH240709   1.523   0.825   0.032 -0.0713 -0.0184 -0.1611
 5505TIP3    H140710   1.611   0.788   0.037  0.3787  1.0563  0.2332
 5505TIP3    H240711   1.471   0.758  -0.012  1.0597 -0.4393 -0.8906
 5506TIP3   OH240712   4.547   2.082   2.308 -0.8053 -0.6799  0.3555
 5506TIP3    H140713   4.639   2.097   2.285 -1.1225  1.2467  0.1923
 5506TIP3    H240714   4.529   1.993   2.277  0.1449  0.0075 -2.4951
 5507TIP3   OH240715   5.051   2.891   9.991  0.3049 -0.3303  0.7023
 5507TIP3    H140716   5.038   2.817  10.051  0.2331 -0.4509  0.5392
 5507TIP3    H240717   5.059   2.850   9.905 -1.3022 -0.0556  0.4010
 5508TIP3   OH240718   3.346   2.967   8.252  0.0656  0.7938  0.7192
 5508TIP3    H140719   3.429   2.976   8.204  0.2353  1.0916  1.0621
 5508TIP3    H240720   3.345   3.042   8.311 -0.5714  0.9282  0.5374
 5509TIP3   OH240721   3.166   7.497   0.609 -0.1877  0.3445  0.0526
 5509TIP3    H140722   3.244   7.451   0.579  0.6357 -0.0446  2.5938
 5509TIP3    H240723   3.094   7.437   0.589  0.4656 -0.4780  0.0973
 5510TIP3   OH240724   0.562   0.932   2.076  0.3545 -0.0954  0.0218
 5510TIP3    H140725   0.572   1.013   2.126  1.0104  0.4712 -0.9983
 5510TIP3    H240726   0.616   0.868   2.123  0.0159  0.1037  0.6997
 5511TIP3   OH240727   5.738   0.373   2.369 -0.1787  0.1508 -0.5306
 5511TIP3    H140728   5.818   0.326   2.390  0.8529  1.9559 -0.1958
 5511TIP3    H240729   5.698   0.392   2.453 -1.0105 -0.8135 -0.7013
 5512TIP3   OH240730   6.097   1.828   0.387  0.0017 -0.0498 -0.0289
 5512TIP3    H140731   6.016   1.848   0.340  1.2029 -0.2222 -2.2987
 5512TIP3    H240732   6.072   1.758   0.448 -1.5191 -0.2275 -0.7908
 5513TIP3   OH240733   6.495   5.492   7.544 -0.0627 -0.9203  0.0784
 5513TIP3    H140734   6.489   5.398   7.562 -0.0199 -0.6976  1.2815
 5513TIP3    H240735   6.519   5.532   7.628  2.2149 -0.0690 -0.8773
 5514TIP3   OH240736   5.003   2.561   8.282 -0.3235 -0.0530 -0.1081
 5514TIP3    H140737   4.948   2.633   8.314 -1.2193 -0.3255 -0.9832
 5514TIP3    H240738   5.012   2.503   8.357 -1.5147 -0.1640 -0.0262
 5515TIP3   OH240739   1.836   3.824   8.148 -0.5614  0.0202 -0.4641
 5515TIP3    H140740   1.750   3.845   8.185 -0.7580 -1.0148 -0.3059
 5515TIP3    H240741   1.890   3.802   8.224 -0.3384  0.0278 -0.6180
 5516TIP3   OH240742   5.011   5.348   7.688 -0.3360 -0.1098 -0.2429
 5516TIP3    H140743   5.056   5.271   7.653  2.8621  1.6391 -0.3292
 5516TIP3    H240744   4.984   5.397   7.611 -1.1075 -0.4219 -0.1822
 5517TIP3   OH240745   3.970   0.098   0.885 -0.0754 -0.0816 -0.0998
 5517TIP3    H140746   4.031   0.032   0.853 -0.1966 -0.4028  0.3325
 5517TIP3    H240747   3.996   0.178   0.839  0.1443 -0.3999 -0.5376
 5518TIP3   OH240748   6.644   0.349   7.405 -0.1164  0.4788 -0.1001
 5518TIP3    H140749   6.563   0.300   7.394 -0.5456  0.4683  2.4270
 5518TIP3    H240750   6.703   0.314   7.339 -1.6217 -0.7357 -0.8532
 5519TIP3   OH240751   1.084   0.426   2.431  0.4804  0.8975  0.3049
 5519TIP3    H140752   1.027   0.378   2.371  1.9454  2.2676 -2.3507
 5519TIP3    H240753   1.024   0.467   2.493 -1.6343  2.8238 -2.7350
 5520TIP3   OH240754   1.127   5.455   2.624  0.3246 -0.5278  0.1243
 5520TIP3    H140755   1.144   5.398   2.548  0.0112 -1.6187  0.8500
 5520TIP3    H240756   1.137   5.544   2.590 -1.5317 -0.9169 -1.6579
 5521TIP3   OH240757   7.121   7.050   9.465 -0.3436  0.7124  0.1090
 5521TIP3    H140758   7.198   7.024   9.414  0.9248  0.8996  1.8493
 5521TIP3    H240759   7.088   7.128   9.420  0.0823  0.2529 -1.0368
 5522TIP3   OH240760   5.614   4.692   8.418  0.0214 -0.5731 -0.0900
 5522TIP3    H140761   5.633   4.679   8.325  1.8139  1.2747 -0.0791
 5522TIP3    H240762   5.633   4.608   8.459  3.2028 -0.3944 -0.9305
 5523TIP3   OH240763   1.556   3.848   8.896 -0.5133  0.3760 -0.3084
 5523TIP3    H140764   1.488   3.787   8.866 -2.1662  2.2733 -0.5831
 5523TIP3    H240765   1.545   3.852   8.991  1.1281 -1.4388  0.0236
 5524TIP3   OH240766   2.597   4.636   8.687 -0.7081 -0.3888  0.2566
 5524TIP3    H140767   2.605   4.627   8.781  0.5399  0.0507  0.2076
 5524TIP3    H240768   2.534   4.707   8.675 -0.6534 -0.2559  0.7532
 5525TIP3   OH240769   2.670   4.623   0.929  0.1020  0.1003 -0.3765
 5525TIP3    H140770   2.610   4.670   0.872 -1.4684 -1.4284 -0.0631
 5525TIP3    H240771   2.668   4.671   1.012 -2.1832 -0.9231  0.2420
 5526TIP3   OH240772   2.707   3.883   7.378  0.1576  0.0083 -0.1736
 5526TIP3    H140773   2.720   3.975   7.355  1.7170  0.7010  2.9847
 5526TIP3    H240774   2.615   3.876   7.401  0.2490  1.0550  0.5508
 5527TIP3   OH240775   3.785   6.509   7.777 -0.1461  0.1443 -0.4792
 5527TIP3    H140776   3.750   6.421   7.767 -0.0231 -0.2172  1.6705
 5527TIP3    H240777   3.865   6.497   7.828 -0.7571  1.5509  0.9163
 5528TIP3   OH240778   5.252   0.988   8.253  0.2425  0.2818  0.1846
 5528TIP3    H140779   5.333   0.939   8.269 -1.6383 -2.7443  1.2717
 5528TIP3    H240780   5.241   1.043   8.331 -0.4119 -1.9291  1.7461
 5529TIP3   OH240781   5.215   7.615   8.257  0.1427 -0.3227  0.0718
 5529TIP3    H140782   5.232   7.608   8.163  0.4877  0.9947  0.0265
 5529TIP3    H240783   5.248   7.701   8.282 -0.6394 -0.3369  1.2540
 5530TIP3   OH240784   7.000   1.872   7.939 -0.3700  0.0383 -0.2201
 5530TIP3    H140785   7.045   1.907   8.016 -0.8026 -1.6682  0.8497
 5530TIP3    H240786   7.069   1.832   7.887 -0.2085  0.3275 -0.2306
 5531TIP3   OH240787   7.612   2.355   1.161 -0.5380 -0.5493 -0.5051
 5531TIP3    H140788   7.522   2.338   1.190 -1.1421  2.7000 -0.1393
 5531TIP3    H240789   7.667   2.313   1.227 -1.8628  0.8709  1.6233
 5532TIP3   OH240790   2.811   0.158   1.651 -0.2544 -0.2772  0.1375
 5532TIP3    H140791   2.844   0.069   1.645 -1.4513 -0.6951 -0.6094
 5532TIP3    H240792   2.730   0.157   1.600  0.6299  1.6846 -1.4431
 5533TIP3   OH240793   3.257   4.178   9.250 -0.7584  0.2454 -0.4948
 5533TIP3    H140794   3.173   4.160   9.208 -0.2541 -0.4982 -1.1931
 5533TIP3    H240795   3.290   4.255   9.205 -0.9347  0.3741 -0.4065
 5534TIP3   OH240796   0.453   6.384   8.173 -0.4882 -0.0279  0.0467
 5534TIP3    H140797   0.475   6.430   8.253 -0.7793  1.7759 -0.8474
 5534TIP3    H240798   0.359   6.368   8.179 -0.3118 -0.9335  0.5496
 5535TIP3   OH240799   0.018   1.615   7.574  0.3740 -0.2055  0.1675
 5535TIP3    H140800  -0.005   1.523   7.586 -1.4898  0.1408 -0.5024
 5535TIP3    H240801   0.112   1.619   7.595  0.4438 -2.2026  0.4082
 5536TIP3   OH240802   5.715   4.150   9.813 -0.2130 -0.1174 -0.4661
 5536TIP3    H140803   5.693   4.210   9.884  0.0044  0.4154 -0.8424
 5536TIP3    H240804   5.780   4.197   9.761  1.0416 -1.2463  0.0269
 5537TIP3   OH240805   7.402   4.027   9.802 -0.1064 -0.4635 -0.3374
 5537TIP3    H140806   7.324   4.055   9.850 -0.7068  0.5818 -1.8373
 5537TIP3    H240807   7.418   4.097   9.739  1.1299 -1.3900 -1.1073
 5538TIP3   OH240808   1.566   6.806   1.416  0.4690  0.0750 -0.0342
 5538TIP3    H140809   1.522   6.843   1.492 -0.9556  0.6225 -1.0757
 5538TIP3    H240810   1.577   6.713   1.437  2.2082  0.6157  1.7492
 5539TIP3   OH240811   1.244   5.911   0.810 -0.0799 -0.2043  0.4028
 5539TIP3    H140812   1.241   5.863   0.892  2.3620  0.1848  0.7922
 5539TIP3    H240813   1.286   5.995   0.833 -0.4953  0.4220 -1.0165
 5540TIP3   OH240814   1.548   4.236   8.028  0.2010 -0.0984  0.1906
 5540TIP3    H140815   1.643   4.235   8.017 -0.0733 -1.2420 -3.7210
 5540TIP3    H240816   1.520   4.149   8.001 -1.9667  0.0908  1.6216
 5541TIP3   OH240817   6.075   6.937   6.929 -0.2683 -0.1356  0.4711
 5541TIP3    H140818   6.094   7.025   6.960 -0.1726 -0.4597  1.3600
 5541TIP3    H240819   5.982   6.925   6.944 -0.1187 -0.4900  1.1767
 5542TIP3   OH240820   4.954   4.664   9.120  0.4137 -0.0637 -0.0905
 5542TIP3    H140821   5.021   4.715   9.075 -0.3924  1.2850  0.1779
 5542TIP3    H240822   5.003   4.600   9.172  1.4617  0.4636 -0.3992
 5543TIP3   OH240823   1.747   6.926   0.608 -0.3674  0.1365 -0.3968
 5543TIP3    H140824   1.679   6.916   0.675 -0.1547  1.5182  0.0572
 5543TIP3    H240825   1.790   7.009   0.629 -0.2284  0.5717 -2.1773
 5544TIP3   OH240826   7.134   2.959   0.846  0.1348  0.1629 -0.3489
 5544TIP3    H140827   7.191   3.004   0.908  1.4991 -1.0502 -0.6719
 5544TIP3    H240828   7.064   2.922   0.900  0.1308  0.9069  0.1678
 5545TIP3   OH240829   5.785   3.849   0.492 -0.7935  0.2274 -0.5409
 5545TIP3    H140830   5.716   3.911   0.514 -0.2317  0.1477  1.6787
 5545TIP3    H240831   5.807   3.869   0.401 -2.0995  1.8314 -0.5488
 5546TIP3   OH240832   4.515   2.099   1.271 -0.1924  0.3029  0.4383
 5546TIP3    H140833   4.527   2.181   1.318  0.3178  1.4014 -1.5157
 5546TIP3    H240834   4.421   2.081   1.280 -0.2611  0.9192  1.1285
 5547TIP3   OH240835   0.979   4.432  10.005  0.3454 -0.0266  0.1093
 5547TIP3    H140836   0.954   4.375   9.932  0.6034 -1.9767  1.4772
 5547TIP3    H240837   1.070   4.457   9.986  0.2720 -0.1482 -0.4285
 5548TIP3   OH240838   4.091   0.675   0.604  0.2145  0.3596 -0.1543
 5548TIP3    H140839   4.018   0.662   0.665 -0.6747 -1.8912 -1.5861
 5548TIP3    H240840   4.105   0.770   0.605 -2.5455  0.8630  0.4189
 5549TIP3   OH240841   4.293   2.607   1.083 -0.2208  0.0279 -0.1481
 5549TIP3    H140842   4.342   2.672   1.133  0.4386 -0.7925  0.3064
 5549TIP3    H240843   4.360   2.555   1.039 -0.7744  0.2609 -1.2997
 5550TIP3   OH240844   3.805   3.943   9.233 -0.1142  0.6078  0.5089
 5550TIP3    H140845   3.793   3.855   9.199  0.3294  0.5860  0.3997
 5550TIP3    H240846   3.724   3.962   9.280  0.0472 -0.1166  1.0978
 5551TIP3   OH240847   1.439   0.172   1.565  0.4650 -0.2879 -0.3549
 5551TIP3    H140848   1.362   0.151   1.512 -0.3787 -1.4283  1.2326
 5551TIP3    H240849   1.417   0.255   1.607  0.0412 -0.6619  0.1737
 5552TIP3   OH240850   6.752   4.458   8.430  0.0222  0.1543 -0.3276
 5552TIP3    H140851   6.837   4.467   8.473 -0.6820  1.9981  0.8117
 5552TIP3    H240852   6.712   4.545   8.438 -1.9703 -0.6566 -0.8389
 5553TIP3   OH240853   6.305   6.737   8.300  0.1129  0.6224 -0.4620
 5553TIP3    H140854   6.307   6.721   8.205 -0.1234  0.1829 -0.3989
 5553TIP3    H240855   6.317   6.831   8.309 -0.2406  0.7197 -0.9529
 5554TIP3   OH240856   1.497   5.797   0.222 -0.1852 -0.1868  0.0746
 5554TIP3    H140857   1.448   5.866   0.178 -0.6553  0.0840  1.0139
 5554TIP3    H240858   1.455   5.716   0.195  0.0768 -0.0861 -0.6587
 5555TIP3   OH240859   1.453   0.949   9.608 -0.1430 -0.0679 -0.2194
 5555TIP3    H140860   1.487   0.859   9.616 -0.0577  0.1196  3.2500
 5555TIP3    H240861   1.515   1.002   9.659 -1.9829  1.3580  0.6675
 5556TIP3   OH240862   3.155   2.625   0.645 -0.2219 -0.0985 -0.2256
 5556TIP3    H140863   3.060   2.612   0.652 -0.2921  0.9021  1.1301
 5556TIP3    H240864   3.192   2.567   0.711 -0.0049  0.5527  0.2374
 5557TIP3   OH240865   5.385   2.219   1.451 -0.8271  0.1981 -0.4179
 5557TIP3    H140866   5.479   2.223   1.465 -0.9200 -1.8326  1.3688
 5557TIP3    H240867   5.374   2.150   1.384 -1.0834 -1.2042  1.0074
 5558TIP3   OH240868   1.072   4.460   7.374 -0.3652  0.1255  0.2526
 5558TIP3    H140869   1.129   4.420   7.308 -0.5689  1.6549 -0.9259
 5558TIP3    H240870   1.022   4.526   7.325 -1.8167  0.1046  1.6087
 5559TIP3   OH240871   2.161   5.019   0.192 -0.6694  0.1743  0.0448
 5559TIP3    H140872   2.144   4.967   0.113  0.7434 -1.6374  0.8492
 5559TIP3    H240873   2.253   5.003   0.212 -0.6717  1.5769  1.3939
 5560TIP3   OH240874   2.290   1.214   1.344 -0.3459  0.8489  0.3067
 5560TIP3    H140875   2.284   1.307   1.367  1.2268  0.7324  1.3460
 5560TIP3    H240876   2.378   1.205   1.306  0.3939 -0.5936  2.2178
 5561TIP3   OH240877   2.318   2.936   1.605  0.2453 -0.1449  0.0543
 5561TIP3    H140878   2.225   2.937   1.582  0.3222  0.5399 -0.2438
 5561TIP3    H240879   2.332   3.017   1.654  0.5458 -0.5709  0.6955
 5562TIP3   OH240880   1.034   3.024   1.515  0.3841 -0.6756  0.0688
 5562TIP3    H140881   1.008   3.116   1.526  1.2739 -0.4528  0.3893
 5562TIP3    H240882   1.114   3.028   1.462 -0.2927 -1.3570 -1.0687
 5563TIP3   OH240883   7.008   0.485   7.226 -0.0654 -0.1507 -0.5793
 5563TIP3    H140884   6.981   0.537   7.302  0.8961  1.0785 -1.0503
 5563TIP3    H240885   7.102   0.476   7.236 -0.2194 -1.9159 -0.4682
 5564TIP3   OH240886   1.234   0.185   2.348 -0.3004  0.3429 -0.3217
 5564TIP3    H140887   1.213   0.277   2.363 -0.5854 -0.0919  2.5526
 5564TIP3    H240888   1.308   0.167   2.406  0.5659 -0.9663 -1.7539
 5565TIP3   OH240889   0.552   5.527   7.238  0.3155 -0.3886 -0.0218
 5565TIP3    H140890   0.550   5.622   7.241 -0.0125 -0.4128  0.9533
 5565TIP3    H240891   0.521   5.504   7.150 -0.0418  0.3848 -0.1026
 5566TIP3   OH240892   6.790   4.440   7.134  0.3738  0.1559  0.4442
 5566TIP3    H140893   6.838   4.422   7.215  1.1566 -0.4297 -0.1387
 5566TIP3    H240894   6.844   4.402   7.065  0.6771  2.2644 -0.5704
 5567TIP3   OH240895   1.379   4.639   8.840  0.1820 -0.6247 -0.0768
 5567TIP3    H140896   1.424   4.555   8.853  0.8346 -0.1865  0.5645
 5567TIP3    H240897   1.377   4.651   8.745  1.4514 -0.6341 -0.1147
 5568TIP3   OH240898   0.809   0.043   0.117 -0.2861 -0.4444 -0.5150
 5568TIP3    H140899   0.899   0.067   0.095 -0.6928  0.0779 -1.6701
 5568TIP3    H240900   0.755   0.092   0.055 -1.3231 -1.4256 -0.4251
 5569TIP3   OH240901   2.531   7.552   8.535  0.2695  0.8987  0.0821
 5569TIP3    H140902   2.483   7.634   8.525 -2.6793 -0.6551  0.3845
 5569TIP3    H240903   2.496   7.496   8.466  0.9194 -0.6638  0.9784
 5570TIP3   OH240904   2.988   6.231   7.517 -0.5201 -0.3606  0.6049
 5570TIP3    H140905   3.056   6.298   7.528 -1.3346  0.3707  1.3900
 5570TIP3    H240906   2.906   6.278   7.531 -1.2304 -1.1482 -0.7135
 5571TIP3   OH240907   7.481   6.244   0.011  0.2486  0.2360  0.1122
 5571TIP3    H140908   7.390   6.217  -0.001  0.9558 -2.2052 -0.2947
 5571TIP3    H240909   7.525   6.219  -0.070  1.3740  0.9891  0.4596
 5572TIP3   OH240910   6.506   7.038   7.153 -0.2548  0.3811 -0.1926
 5572TIP3    H140911   6.569   7.057   7.083  0.6598  0.2290  0.5569
 5572TIP3    H240912   6.450   6.969   7.118 -0.0542  0.5822 -0.9161
 5573TIP3   OH240913   1.768   3.727   0.201  0.8605  0.5305 -0.3020
 5573TIP3    H140914   1.817   3.745   0.281  0.7752 -2.6619  0.6050
 5573TIP3    H240915   1.751   3.633   0.204 -1.3095  0.7240 -2.8815
 5574TIP3   OH240916   3.584   0.867   2.014 -0.6488 -0.2870  0.4368
 5574TIP3    H140917   3.638   0.929   2.062 -0.2552  1.2840 -1.8809
 5574TIP3    H240918   3.495   0.883   2.046 -0.3007  0.0753  1.2549
 5575TIP3   OH240919   4.386   0.557   1.104 -0.3545 -0.5380 -0.1239
 5575TIP3    H140920   4.382   0.581   1.012 -1.2145  1.8388  0.4697
 5575TIP3    H240921   4.340   0.473   1.109  0.0858 -0.9057 -1.9019
 5576TIP3   OH240922   0.525   1.430   2.455  0.0677  0.1061  0.5954
 5576TIP3    H140923   0.469   1.487   2.403 -0.3788 -1.0461 -0.2082
 5576TIP3    H240924   0.597   1.406   2.397  1.4337  1.5543  1.6067
 5577TIP3   OH240925   1.148   5.126   8.893 -0.2716  0.4111 -0.2333
 5577TIP3    H140926   1.221   5.102   8.950 -0.9067  1.3830  1.0015
 5577TIP3    H240927   1.129   5.045   8.845  1.8448  0.2261 -0.8800
 5578TIP3   OH240928   7.286   2.756   7.163  0.2438  0.0635 -0.0577
 5578TIP3    H140929   7.316   2.846   7.150  1.5256 -0.4674 -1.0120
 5578TIP3    H240930   7.265   2.725   7.075  0.6315 -0.8305  0.1521
 5579TIP3   OH240931   1.766   1.416   8.677  0.3040 -0.3225  0.3079
 5579TIP3    H140932   1.694   1.440   8.735 -1.2691  0.5101 -1.8468
 5579TIP3    H240933   1.766   1.484   8.609  1.0528 -1.9960 -1.4790
 5580TIP3   OH240934   1.613   4.607   8.497  0.5831 -0.8553  0.0856
 5580TIP3    H140935   1.703   4.624   8.524  0.7416 -0.2950 -0.7763
 5580TIP3    H240936   1.595   4.673   8.430  0.4572 -2.6165 -1.7258
 5581TIP3   OH240937   3.834   2.449   1.167  0.0261 -0.7965 -0.4064
 5581TIP3    H140938   3.853   2.495   1.249 -2.2448  1.1058 -0.8186
 5581TIP3    H240939   3.853   2.357   1.186  1.1481 -0.1985  1.6985
 5582TIP3   OH240940   3.213   6.293   1.054 -0.3267 -0.2226  0.3237
 5582TIP3    H140941   3.197   6.199   1.040 -0.9777 -0.0832  0.0755
 5582TIP3    H240942   3.235   6.327   0.968 -1.7030  0.1422  0.0804
 5583TIP3   OH240943   1.058   0.416   9.723 -0.0346  0.1126  0.1523
 5583TIP3    H140944   0.985   0.402   9.663  0.6649 -1.2962 -0.4147
 5583TIP3    H240945   1.135   0.418   9.666  0.4553  0.7661  0.8228
 5584TIP3   OH240946   7.575   1.205   1.846  0.1557  0.1517 -0.9074
 5584TIP3    H140947   7.498   1.262   1.854 -0.4051 -0.4059 -2.0002
 5584TIP3    H240948   7.648   1.265   1.833 -0.4258  0.6573 -2.0248
 5585TIP3   OH240949   5.851   4.054   6.592 -1.2388  0.0379 -0.1718
 5585TIP3    H140950   5.929   4.038   6.645 -0.6491 -1.7776 -1.5094
 5585TIP3    H240951   5.828   4.145   6.611  2.3440  1.3227 -1.2134
 5586TIP3   OH240952   4.213   6.913   1.394 -0.2313  0.1772  0.2313
 5586TIP3    H140953   4.250   6.900   1.306 -1.0020 -0.9492  0.0595
 5586TIP3    H240954   4.119   6.897   1.383 -0.2541 -0.5694  1.3722
 5587TIP3   OH240955   3.674   6.403   9.511  0.2892 -0.3495 -0.2998
 5587TIP3    H140956   3.663   6.353   9.592  0.9083 -0.3660 -0.2197
 5587TIP3    H240957   3.768   6.401   9.495  0.2986  0.6384 -0.3978
 5588TIP3   OH240958   4.604   1.613   8.179 -0.1695  0.0545  0.4186
 5588TIP3    H140959   4.588   1.610   8.273 -2.2201  0.3909  0.1505
 5588TIP3    H240960   4.593   1.706   8.156  1.2010  0.1192 -0.0387
 5589TIP3   OH240961   1.608   0.326   9.474  0.9533 -0.1375  0.9443
 5589TIP3    H140962   1.530   0.279   9.504  0.1216 -0.3162 -1.2756
 5589TIP3    H240963   1.666   0.257   9.441  1.0684  0.1369  0.5582
 5590TIP3   OH240964   5.003   0.197   9.488 -0.4169  0.0939  0.6271
 5590TIP3    H140965   4.934   0.150   9.534  0.6540 -1.0274  1.1328
 5590TIP3    H240966   4.961   0.230   9.409 -1.5278 -0.5560  0.9265
 5591TIP3   OH240967   1.442   2.943   0.694 -0.4205  0.4417 -0.0613
 5591TIP3    H140968   1.506   2.995   0.743 -0.1895  0.4843 -0.4017
 5591TIP3    H240969   1.367   3.002   0.683 -1.4616 -0.3460  2.2924
 5592TIP3   OH240970   4.914   7.424   0.332  0.1022 -0.2664 -0.0650
 5592TIP3    H140971   4.990   7.372   0.306 -0.1948 -0.5155 -0.4422
 5592TIP3    H240972   4.854   7.418   0.257 -0.2882 -0.0715  0.2294
 5593TIP3   OH240973   2.837   4.895   9.199  0.3042  0.5974 -0.4322
 5593TIP3    H140974   2.916   4.950   9.206 -0.1216  1.5912 -2.4647
 5593TIP3    H240975   2.803   4.890   9.288  0.0709  4.1934 -0.1681
 5594TIP3   OH240976   2.537   3.167   7.202  0.0865 -0.3073  0.0473
 5594TIP3    H140977   2.515   3.173   7.295  0.1197  1.2548 -0.0212
 5594TIP3    H240978   2.626   3.200   7.196  0.6792 -1.8784 -0.3625
 5595TIP3   OH240979   4.351   7.130   8.014  0.0576 -0.0366 -0.0634
 5595TIP3    H140980   4.308   7.195   8.069 -0.6156 -0.9700  0.5383
 5595TIP3    H240981   4.439   7.121   8.050 -0.5039 -0.9274  1.1167
 5596TIP3   OH240982   1.439   1.705   0.411  0.2405  0.2036 -0.1496
 5596TIP3    H140983   1.396   1.739   0.489 -0.6553 -0.6954 -0.2424
 5596TIP3    H240984   1.522   1.753   0.408 -0.7478  2.0114 -0.0117
 5597TIP3   OH240985   1.309   0.849   1.168  0.4264 -0.4589 -0.2805
 5597TIP3    H140986   1.235   0.895   1.128  1.0474  0.5739 -0.2736
 5597TIP3    H240987   1.308   0.762   1.127 -1.1993 -0.7038  0.2386
 5598TIP3   OH240988   3.598   1.749   7.824 -0.7754  0.1386 -0.1732
 5598TIP3    H140989   3.578   1.710   7.738  0.1529  1.5482 -1.0615
 5598TIP3    H240990   3.545   1.829   7.827 -1.0461 -0.0614  0.7316
 5599TIP3   OH240991   4.831   3.467   8.759 -0.3856 -0.4978  0.0135
 5599TIP3    H140992   4.854   3.538   8.699  1.0531  0.0194  1.1453
 5599TIP3    H240993   4.830   3.508   8.846  1.2120 -1.9928  0.7776
 5600TIP3   OH240994   7.352   1.581   9.426  0.3995  1.1075 -0.2074
 5600TIP3    H140995   7.290   1.646   9.392 -1.5193 -0.1789  0.6862
 5600TIP3    H240996   7.351   1.595   9.521 -0.7353 -0.7550  0.0991
 5601TIP3   OH240997   1.933   6.992   9.699 -0.4487  0.6125 -0.4981
 5601TIP3    H140998   2.008   7.045   9.672 -0.1923  0.2415 -0.5194
 5601TIP3    H240999   1.879   6.986   9.620  0.0764 -0.0909 -0.8198
 5602TIP3   OH241000   1.601   4.639   2.576  0.1624 -0.2780  0.2700
 5602TIP3    H141001   1.579   4.576   2.645 -0.7491 -2.0215 -1.5088
 5602TIP3    H241002   1.522   4.691   2.565  0.0888 -0.4243  0.1068
 5603TIP3   OH241003   0.231   3.477   0.777 -0.2129  0.2691  0.1088
 5603TIP3    H141004   0.318   3.447   0.750 -0.2900  0.9528 -0.9871
 5603TIP3    H241005   0.237   3.487   0.872  1.0255  0.6692  0.0094
 5604TIP3   OH241006   6.094   2.226   1.092  0.0193  0.0958 -0.0016
 5604TIP3    H141007   6.038   2.154   1.121 -1.3410  0.2398 -2.0569
 5604TIP3    H241008   6.041   2.273   1.027  1.9771  1.1714 -0.9113
 5605TIP3   OH241009   7.653   1.248   0.958  0.1137 -0.0611 -0.2541
 5605TIP3    H141010   7.577   1.218   0.908  0.4639 -0.7976 -0.3595
 5605TIP3    H241011   7.721   1.259   0.892  0.1072  0.5636 -0.1554
 5606TIP3   OH241012   6.965   1.127   2.230  0.0427 -0.7848  0.8431
 5606TIP3    H141013   6.876   1.098   2.252  0.1497 -0.4823  1.6901
 5606TIP3    H241014   6.961   1.147   2.136 -1.2276  0.7849  1.1855
 5607TIP3   OH241015   5.539   5.688   9.032 -0.1280  0.2013  0.3425
 5607TIP3    H141016   5.633   5.671   9.025  0.1341  1.4436  0.6550
 5607TIP3    H241017   5.497   5.608   9.000  1.0200  0.4923 -2.0574
 5608TIP3   OH241018   0.239   1.144   2.198 -1.0961  0.2836  0.6065
 5608TIP3    H141019   0.229   1.240   2.198  0.3055  0.5179 -2.1839
 5608TIP3    H241020   0.178   1.114   2.131 -1.1259 -0.7493  1.0882
 5609TIP3   OH241021   5.696   5.707   9.714  0.5566 -1.0012 -0.0276
 5609TIP3    H141022   5.633   5.771   9.681  0.8381 -0.9050 -0.3985
 5609TIP3    H241023   5.646   5.626   9.723  0.5076 -1.0746 -0.8781
 5610TIP3   OH241024   3.883   6.627   8.678  0.4632  0.0052 -0.8305
 5610TIP3    H141025   3.848   6.562   8.617 -1.3327 -0.5738  0.7218
 5610TIP3    H241026   3.805   6.670   8.714  1.5397  1.3433 -0.0197
 5611TIP3   OH241027   0.977   3.184   7.416 -0.0460  0.6984  0.0442
 5611TIP3    H141028   1.032   3.259   7.391 -0.9754  1.3207 -0.1865
 5611TIP3    H241029   0.978   3.184   7.512  0.8322  0.3426  0.0378
 5612TIP3   OH241030   1.747   0.202   0.578  0.7796  0.0571  0.1962
 5612TIP3    H141031   1.824   0.165   0.534  0.8360  0.7210 -0.2833
 5612TIP3    H241032   1.687   0.224   0.507 -0.4624 -1.7125  0.6258
 5613TIP3   OH241033   4.433   0.244   8.658 -0.0315 -0.0092  0.1944
 5613TIP3    H141034   4.436   0.149   8.660  2.5332 -0.0660 -1.5003
 5613TIP3    H241035   4.354   0.265   8.608 -0.4608 -1.2327  0.3313
 5614TIP3   OH241036   4.087   5.149   7.867  0.2945  0.1730 -0.1892
 5614TIP3    H141037   4.045   5.097   7.935 -1.2109  1.1720 -0.3002
 5614TIP3    H241038   4.098   5.235   7.907 -1.3032  0.9963 -1.3971
 5615TIP3   OH241039   7.484   4.036   0.871  0.7972 -0.0716 -0.0644
 5615TIP3    H141040   7.511   4.124   0.894  1.6998 -0.5253  0.6606
 5615TIP3    H241041   7.565   3.985   0.871  0.4720 -0.6522 -1.6990
 5616TIP3   OH241042   0.527   0.721   2.576  0.0378  0.0325 -0.4280
 5616TIP3    H141043   0.445   0.675   2.559 -0.0695 -0.8089  2.0671
 5616TIP3    H241044   0.590   0.652   2.598  1.0215  0.7888 -0.7729
 5617TIP3   OH241045   1.409   6.525   7.754  0.0039  0.2907  0.3398
 5617TIP3    H141046   1.469   6.584   7.801  1.3609 -0.7694  0.0020
 5617TIP3    H241047   1.432   6.536   7.662 -1.3054  0.8997  0.0636
 5618TIP3   OH241048   6.209   0.476   8.142 -0.5430 -0.2063  0.1104
 5618TIP3    H141049   6.172   0.551   8.095 -0.9365  0.5534  1.5599
 5618TIP3    H241050   6.303   0.479   8.121 -0.6523  0.3383 -0.3267
 5619TIP3   OH241051   0.123   0.727   7.397  0.1369 -0.0375  0.0931
 5619TIP3    H141052   0.181   0.714   7.322  0.0558 -0.4847  0.1021
 5619TIP3    H241053   0.071   0.805   7.374  0.1215 -0.1625 -0.3112
 5620TIP3   OH241054   7.189   5.886   0.115  0.3780 -0.3268  0.4718
 5620TIP3    H141055   7.181   5.795   0.142  2.0843 -0.1536  1.7350
 5620TIP3    H241056   7.100   5.920   0.118 -0.1996 -1.7815  0.5463
 5621TIP3   OH241057   0.824   3.486   7.865 -0.6918 -0.2855 -0.4814
 5621TIP3    H141058   0.867   3.408   7.900  0.4259 -0.3564 -1.9289
 5621TIP3    H241059   0.893   3.551   7.861 -1.2185  0.2526 -0.9114
 5622TIP3   OH241060   2.863   4.349   0.313 -0.3468 -0.6319  0.4670
 5622TIP3    H141061   2.794   4.294   0.277  1.1505 -2.5229  0.3339
 5622TIP3    H241062   2.857   4.336   0.408  1.5266 -3.1407  0.3583
 5623TIP3   OH241063   6.474   7.263   9.195 -0.3350  0.4844  0.2340
 5623TIP3    H141064   6.426   7.190   9.156 -0.0359 -0.5624  1.7200
 5623TIP3    H241065   6.493   7.234   9.284  5.2706 -0.2943 -0.8438
 5624TIP3   OH241066   6.325   0.261   7.908  0.0338  1.0176  0.2702
 5624TIP3    H141067   6.292   0.348   7.889 -0.0822  0.8765 -0.1860
 5624TIP3    H241068   6.251   0.215   7.947  0.6652  1.7511  2.5339
 5625TIP3   OH241069   2.845   0.672   2.376 -0.3959 -0.9766 -0.0969
 5625TIP3    H141070   2.893   0.732   2.433 -0.6647 -0.5977 -0.2635
 5625TIP3    H241071   2.768   0.647   2.427 -0.5335 -0.7955 -0.2144
 5626TIP3   OH241072   4.768   1.864   1.760  0.2905  0.0958  0.2595
 5626TIP3    H141073   4.831   1.931   1.789 -0.9929  1.7783 -0.6822
 5626TIP3    H241074   4.818   1.809   1.701  0.8844  1.5141 -0.6248
 5627TIP3   OH241075   1.766   2.552   1.050 -0.7377 -0.7862  0.1566
 5627TIP3    H141076   1.673   2.542   1.066 -0.4361 -1.6503  1.5168
 5627TIP3    H241077   1.806   2.475   1.090  0.5163 -0.7028 -0.8842
 5628TIP3   OH241078   2.206   2.162   9.029  0.2589 -0.9942 -0.1406
 5628TIP3    H141079   2.231   2.166   8.936  0.2559  0.9138 -0.1001
 5628TIP3    H241080   2.245   2.240   9.067  0.8717 -2.1244  1.6509
 5629TIP3   OH241081   3.120   4.844   7.541  0.1404  0.2743 -0.5341
 5629TIP3    H141082   3.164   4.915   7.494 -0.4096  1.8271  1.1731
 5629TIP3    H241083   3.036   4.833   7.495 -0.7375  2.3250  0.4335
 5630TIP3   OH241084   0.701   3.563   2.177 -0.2016  0.3289 -0.4109
 5630TIP3    H141085   0.740   3.483   2.143 -2.0597 -0.5131 -0.6956
 5630TIP3    H241086   0.660   3.605   2.101 -1.4821  0.1784  0.1698
 5631TIP3   OH241087   6.564   6.985   0.419  0.3932 -0.3555  0.1758
 5631TIP3    H141088   6.495   7.051   0.407  0.5667 -0.3473 -0.9272
 5631TIP3    H241089   6.637   7.033   0.458  0.1063 -0.1538  0.4646
 5632TIP3   OH241090   4.890   7.103   8.446 -0.0851  0.2843  0.4563
 5632TIP3    H141091   4.840   7.093   8.527  0.4412  1.4362  0.9575
 5632TIP3    H241092   4.835   7.065   8.378 -1.6044  1.3742  1.0121
 5633TIP3   OH241093   2.426   7.048   8.807 -0.5048 -0.0126 -0.1590
 5633TIP3    H141094   2.389   6.977   8.755 -0.8959  1.4747 -2.0053
 5633TIP3    H241095   2.474   7.102   8.744 -0.0475  1.2558  1.2221
 5634TIP3   OH241096   0.611   4.628   0.546 -0.2302 -0.8118  0.1763
 5634TIP3    H141097   0.684   4.604   0.604 -1.2644 -2.5125  0.8478
 5634TIP3    H241098   0.601   4.723   0.558 -0.4525 -1.1008  2.8850
 5635TIP3   OH241099   6.674   2.502   2.605 -0.4584  0.2187  0.0611
 5635TIP3    H141100   6.602   2.440   2.608 -0.2563 -0.0298 -0.2207
 5635TIP3    H241101   6.632   2.588   2.604 -0.7702  0.0583 -0.9835
 5636TIP3   OH241102   2.151   7.019   1.449  0.3696  0.0220  0.2793
 5636TIP3    H141103   2.075   7.056   1.493  0.7958  1.0497  0.1740
 5636TIP3    H241104   2.139   7.040   1.357  0.1336 -0.9798  0.0661
 5637TIP3   OH241105   4.860   7.604   6.976  0.3611 -0.0714 -0.0760
 5637TIP3    H141106   4.838   7.669   6.909 -0.0713 -1.1339 -1.0053
 5637TIP3    H241107   4.808   7.527   6.951 -0.1949 -0.3400  1.7690
 5638TIP3   OH241108   2.599   0.253   7.579  0.7363 -0.5654  0.0474
 5638TIP3    H141109   2.525   0.239   7.520 -0.3183  1.8405  0.6880
 5638TIP3    H241110   2.673   0.209   7.536 -0.4463 -0.6967 -1.9751
 5639TIP3   OH241111   7.618   2.325   8.036  0.3959  0.0276 -0.1025
 5639TIP3    H141112   7.576   2.410   8.051  2.3714  1.3280 -1.4090
 5639TIP3    H241113   7.706   2.335   8.072  0.8287 -1.2862 -0.7370
 5640TIP3   OH241114   0.638   5.624   1.520  0.1910 -0.0305  0.3273
 5640TIP3    H141115   0.719   5.655   1.479  0.5533 -0.4248  0.7342
 5640TIP3    H241116   0.630   5.678   1.599 -1.1796  1.6262 -0.8596
 5641TIP3   OH241117   3.186   3.078   0.518 -0.2198  0.0095  0.3658
 5641TIP3    H141118   3.162   3.109   0.431 -0.2437  1.8340  0.9756
 5641TIP3    H241119   3.280   3.093   0.524 -0.0223 -1.1002  0.3001
 5642TIP3   OH241120   3.678   0.335   8.352  0.0498 -0.0420  0.2460
 5642TIP3    H141121   3.637   0.366   8.272  0.4320 -0.1134  0.0191
 5642TIP3    H241122   3.615   0.274   8.390 -0.5842  0.7807  0.5487
 5643TIP3   OH241123   7.674   0.355   8.059 -0.2314 -0.0322 -0.2462
 5643TIP3    H141124   7.749   0.374   8.116 -0.8070  2.4878 -0.1894
 5643TIP3    H241125   7.610   0.315   8.117 -0.1414  0.8701  0.5078
 5644TIP3   OH241126   6.091   3.775   7.910  0.2675 -0.1100  0.2082
 5644TIP3    H141127   6.062   3.837   7.978 -1.3932 -0.7769  0.1597
 5644TIP3    H241128   6.036   3.698   7.924  0.6887 -0.6894 -1.1934
 5645TIP3   OH241129   6.461   5.943   0.264  0.0934 -0.5755 -0.2823
 5645TIP3    H141130   6.415   6.022   0.294 -0.7779 -1.6869  1.4861
 5645TIP3    H241131   6.461   5.951   0.168  0.2667  1.6718 -0.1628
 5646TIP3   OH241132   0.652   0.429   0.193  0.4250  0.1622  0.0199
 5646TIP3    H141133   0.568   0.445   0.149  0.4365  1.7221  0.5065
 5646TIP3    H241134   0.649   0.337   0.217 -1.4812  0.3334  0.6571
 5647TIP3   OH241135   4.490   1.294   1.915  0.1318 -0.7612 -0.0045
 5647TIP3    H141136   4.424   1.297   1.847  0.8095  0.0668 -0.6435
 5647TIP3    H241137   4.569   1.263   1.871  0.1981 -1.7002  0.7366
 5648TIP3   OH241138   5.156   5.632   9.411 -0.6912 -0.7390  0.2136
 5648TIP3    H141139   5.241   5.616   9.369 -0.1581 -1.2611  1.4384
 5648TIP3    H241140   5.096   5.570   9.370 -0.8848  0.6654 -1.7634
 5649TIP3   OH241141   2.633   3.280   8.564  0.9710 -0.3618  0.0505
 5649TIP3    H141142   2.635   3.210   8.499  0.3943  0.0988 -0.4724
 5649TIP3    H241143   2.544   3.279   8.598  0.7144  0.6132 -0.5347
 5650TIP3   OH241144   0.999   4.203   1.721  0.3503  0.1937 -0.8075
 5650TIP3    H141145   1.014   4.108   1.718  0.1052  0.0962  0.5649
 5650TIP3    H241146   1.082   4.239   1.753  0.0504  0.3360 -0.1949
 5651TIP3   OH241147   3.687   6.794   0.485  0.2451 -0.6618  0.0227
 5651TIP3    H141148   3.634   6.846   0.545 -0.0304 -1.7192  0.7234
 5651TIP3    H241149   3.775   6.833   0.490  0.0240 -0.2074  0.4505
 5652TIP3   OH241150   2.377   2.672   1.536 -0.2711 -0.4912  0.5066
 5652TIP3    H141151   2.337   2.758   1.547 -0.9355 -0.7029 -0.1353
 5652TIP3    H241152   2.470   2.686   1.554 -0.4770  0.2120  1.0872
 5653TIP3   OH241153   4.957   5.269   9.432  0.0330 -0.1492 -0.2043
 5653TIP3    H141154   4.934   5.356   9.464 -0.2171 -0.4629  0.4748
 5653TIP3    H241155   4.916   5.264   9.345 -1.2694 -0.1589  0.3866
 5654TIP3   OH241156   3.196   2.791   7.626 -0.6618 -0.6259 -0.3117
 5654TIP3    H141157   3.213   2.837   7.544  2.1896 -0.7222  0.1047
 5654TIP3    H241158   3.164   2.859   7.685  2.3739  0.7820 -0.0533
 5655TIP3   OH241159   0.044   2.738   1.775 -0.3412  0.5564  0.9535
 5655TIP3    H141160   0.011   2.680   1.707 -0.4999  1.6410  0.0760
 5655TIP3    H241161   0.050   2.683   1.853  1.9658 -1.3463 -0.4164
 5656TIP3   OH241162   2.158   0.211   1.920 -0.5374  0.2415 -0.0339
 5656TIP3    H141163   2.222   0.181   1.855  0.8501  0.4272  1.1711
 5656TIP3    H241164   2.142   0.303   1.898 -0.3900  0.1906 -0.3549
 5657TIP3   OH241165   2.961   2.344   9.619  0.5442  0.0797  0.2325
 5657TIP3    H141166   2.871   2.312   9.632  0.7249 -0.3179  0.5314
 5657TIP3    H241167   3.007   2.320   9.700 -0.1891  4.3032  2.2067
 5658TIP3   OH241168   1.136   6.435   0.009  0.0126 -0.2858 -0.0122
 5658TIP3    H141169   1.130   6.491  -0.068 -0.9182  0.0246  0.2701
 5658TIP3    H241170   1.052   6.445   0.053  0.9004  0.3705  1.6167
 5659TIP3   OH241171   6.262   1.168   6.920 -0.8130 -0.0759 -0.2294
 5659TIP3    H141172   6.249   1.263   6.924 -2.6098 -0.3156  1.7486
 5659TIP3    H241173   6.341   1.156   6.867 -0.4762  2.5162 -0.4222
 5660TIP3   OH241174   6.042   7.252   1.054 -0.1856  0.1993  0.5074
 5660TIP3    H141175   6.000   7.306   1.121 -3.1788 -2.3418  0.9304
 5660TIP3    H241176   6.008   7.284   0.971 -0.0465  0.4785  0.5585
 5661TIP3   OH241177   2.872   3.603   0.221 -0.1965  0.2599 -0.2037
 5661TIP3    H141178   2.906   3.530   0.170  0.7482  1.3199 -1.1626
 5661TIP3    H241179   2.828   3.659   0.156  1.1663  1.7179  0.0642
 5662TIP3   OH241180   1.831   0.604   9.088 -0.2888  0.3212  0.3165
 5662TIP3    H141181   1.836   0.567   9.176 -1.0965 -1.5357 -0.3561
 5662TIP3    H241182   1.804   0.695   9.102 -1.4405 -0.2161  1.9605
 5663TIP3   OH241183   7.582   3.287   0.257 -0.9106  0.1399 -0.0989
 5663TIP3    H141184   7.650   3.257   0.196 -1.0728  1.4153 -0.9323
 5663TIP3    H241185   7.558   3.208   0.305 -0.6041 -0.8661 -1.5170
 5664TIP3   OH241186   1.003   5.488   9.037 -0.3252  0.1258  0.0119
 5664TIP3    H141187   1.088   5.530   9.049  1.0417 -2.1009 -1.0865
 5664TIP3    H241188   0.941   5.560   9.024  1.0059  1.9014  2.6522
 5665TIP3   OH241189   1.895   3.878   7.012 -0.1320  0.1847 -0.1857
 5665TIP3    H141190   1.914   3.928   6.932  0.7919  0.8800  0.4497
 5665TIP3    H241191   1.904   3.941   7.083 -1.1138 -0.3869  0.4696
 5666TIP3   OH241192   7.311   2.998   1.977  0.0619 -0.3621  0.4194
 5666TIP3    H141193   7.342   2.965   1.892 -2.9036 -1.6848 -0.2922
 5666TIP3    H241194   7.304   3.093   1.964  2.7890 -0.0868  0.3870
 5667TIP3   OH241195   6.992   6.602   2.142  0.2156  0.1503  0.3472
 5667TIP3    H141196   7.031   6.516   2.154 -2.0096 -1.0952 -0.6993
 5667TIP3    H241197   6.925   6.608   2.211  1.2067  1.6455  1.2478
 5668TIP3   OH241198   4.322   5.125   9.696 -0.4395 -0.0635 -0.0638
 5668TIP3    H141199   4.411   5.091   9.686 -0.3718  0.1251 -0.0935
 5668TIP3    H241200   4.269   5.047   9.717 -0.6567 -0.5869 -2.2901
 5669TIP3   OH241201   5.961   7.368   7.101  0.1540 -0.4408 -0.9756
 5669TIP3    H141202   5.901   7.441   7.086 -1.0857 -1.2203  0.0142
 5669TIP3    H241203   5.954   7.350   7.195  4.0882  1.2441 -0.1506
 5670TIP3   OH241204   3.665   0.448   1.161 -0.0390  0.3178 -0.1347
 5670TIP3    H141205   3.650   0.501   1.239  1.6503  1.1845 -0.3536
 5670TIP3    H241206   3.674   0.358   1.194  0.9712  0.7177  0.7333
 5671TIP3   OH241207   6.271   4.666   8.671  0.5639 -0.0586 -0.6363
 5671TIP3    H141208   6.304   4.658   8.760 -1.0559  1.4046  0.1564
 5671TIP3    H241209   6.346   4.700   8.621  1.3438 -0.4271  0.2391
 5672TIP3   OH241210   7.554   2.945   0.992 -0.1048 -0.8420  0.7152
 5672TIP3    H141211   7.502   3.026   0.986  1.5655  0.2347  0.1195
 5672TIP3    H241212   7.645   2.975   0.989  0.5648 -2.7094  1.2335
 5673TIP3   OH241213   7.404   2.448   3.323  0.0050  0.0473 -0.2263
 5673TIP3    H141214   7.450   2.529   3.299  1.2062 -0.5239  0.0619
 5673TIP3    H241215   7.385   2.459   3.416 -2.4495  1.2014 -0.7614
 5674TIP3   OH241216   1.560   6.888   9.661 -0.3257 -0.6678  0.1281
 5674TIP3    H141217   1.593   6.819   9.720 -1.7330 -0.2786  1.4214
 5674TIP3    H241218   1.482   6.922   9.705 -0.1435  1.1931 -0.8848
 5675TIP3   OH241219   1.459   7.524   0.439 -0.2451  0.1285 -0.1174
 5675TIP3    H141220   1.373   7.564   0.445 -0.3730  0.2167 -2.0317
 5675TIP3    H241221   1.448   7.452   0.378  1.1739  0.5466 -0.9138
 5676TIP3   OH241222   6.230   3.820   8.241 -0.6330  0.0812 -0.7847
 5676TIP3    H141223   6.157   3.878   8.260 -0.6762 -0.6021  1.3350
 5676TIP3    H241224   6.202   3.769   8.165 -2.3330 -0.1148 -0.0588
 5677TIP3   OH241225   7.122   3.104   1.201  0.0173 -0.4851  0.2542
 5677TIP3    H141226   7.217   3.110   1.199  0.0814 -1.4097 -1.1229
 5677TIP3    H241227   7.092   3.185   1.161  0.2079 -0.0648  0.9517
 5678TIP3   OH241228   2.211   0.279   2.361  0.1648  0.0369 -0.6556
 5678TIP3    H141229   2.240   0.231   2.439 -0.7632 -2.7131 -1.8892
 5678TIP3    H241230   2.291   0.323   2.330  0.7466  0.4605  1.2970
 5679TIP3   OH241231   3.997   5.362   7.376 -0.6283  0.9420 -0.1269
 5679TIP3    H141232   3.914   5.403   7.353 -1.1678 -0.4453 -0.7852
 5679TIP3    H241233   3.973   5.290   7.435  0.3579  1.9684  1.5876
 5680TIP3   OH241234   7.016   2.444   8.825 -0.1416 -0.3199 -0.0562
 5680TIP3    H141235   7.069   2.364   8.831 -2.5498 -1.9445  1.1083
 5680TIP3    H241236   7.017   2.481   8.913 -0.7253 -0.2148 -0.0917
 5681TIP3   OH241237   6.687   6.304   1.304  0.9229  0.2782 -0.4052
 5681TIP3    H141238   6.677   6.261   1.389 -1.1205 -0.7422 -1.1051
 5681TIP3    H241239   6.643   6.247   1.242 -0.5395  2.5890 -1.6410
 5682TIP3   OH241240   0.952   3.955   1.950  0.3458 -0.2962  0.1933
 5682TIP3    H141241   1.023   3.892   1.966  1.4680  0.7313 -0.6103
 5682TIP3    H241242   0.947   3.960   1.855  0.4856  1.0563  0.2468
 5683TIP3   OH241243   6.230   0.165   9.687 -0.0621  0.4423 -0.8153
 5683TIP3    H141244   6.287   0.122   9.624 -1.6664 -0.5927 -1.6247
 5683TIP3    H241245   6.226   0.105   9.762  0.8712  1.1058 -0.2044
 5684TIP3   OH241246   2.116   1.018   9.170 -0.0489 -0.2034 -0.8796
 5684TIP3    H141247   2.100   0.949   9.106 -0.1279 -0.2193 -0.8434
 5684TIP3    H241248   2.088   1.098   9.126 -2.3071 -0.4729 -0.0556
 5685TIP3   OH241249   5.275   5.986   9.677 -0.2354  0.7188 -1.0629
 5685TIP3    H141250   5.224   5.931   9.737  0.7872  1.7132  0.7964
 5685TIP3    H241251   5.339   5.926   9.639  1.2634  0.6120  1.3962
 5686TIP3   OH241252   2.900   2.940   9.746 -0.1627 -0.4707 -0.0119
 5686TIP3    H141253   2.862   3.000   9.681 -0.3206 -0.4818  0.0674
 5686TIP3    H241254   2.828   2.880   9.766 -0.3161 -0.0765  0.6411
 5687TIP3   OH241255   6.079   0.878   0.303 -0.1269  0.1109 -0.2675
 5687TIP3    H141256   5.984   0.868   0.304 -0.2813  1.3975 -0.4195
 5687TIP3    H241257   6.095   0.962   0.347  0.7649  1.0030 -2.1809
 5688TIP3   OH241258   0.728   1.746   2.934  0.1842 -0.1934  0.9440
 5688TIP3    H141259   0.796   1.786   2.880 -0.0198  0.4111  1.1290
 5688TIP3    H241260   0.748   1.652   2.932 -0.4110 -0.3254 -1.0148
 5689TIP3   OH241261   7.026   2.275   9.500 -0.4548 -0.1282  0.1368
 5689TIP3    H141262   7.104   2.329   9.509 -1.4202  1.5701 -1.1313
 5689TIP3    H241263   7.058   2.191   9.468  0.8418  0.6696 -0.7425
 5690TIP3   OH241264   1.302   7.016   8.395 -0.5632  0.3155 -0.1411
 5690TIP3    H141265   1.318   7.070   8.472  1.3440  1.1086 -1.0514
 5690TIP3    H241266   1.207   7.021   8.382 -0.5281  2.9705  0.1602
 5691TIP3   OH241267   2.060   1.515   0.514 -0.7789  0.1767  0.7587
 5691TIP3    H141268   2.128   1.579   0.492 -0.6727  0.1116  0.8961
 5691TIP3    H241269   2.108   1.440   0.548 -0.8177 -0.4223 -0.4519
 5692TIP3   OH241270   2.278   6.043   9.864  0.1697 -0.3520  0.0119
 5692TIP3    H141271   2.334   6.078   9.933  0.8054  0.8938 -1.0852
 5692TIP3    H241272   2.270   6.115   9.801 -1.2640 -1.0942 -0.6930
 5693TIP3   OH241273   4.264   2.682   9.046 -0.0323  0.1424  0.3533
 5693TIP3    H141274   4.243   2.602   9.095  0.6741 -0.4790 -0.3271
 5693TIP3    H241275   4.360   2.679   9.036 -0.1516  0.2101 -1.0886
 5694TIP3   OH241276   4.360   3.759   9.014  0.2454  0.1750 -0.2628
 5694TIP3    H141277   4.312   3.734   8.935 -0.6261 -2.2537  0.9346
 5694TIP3    H241278   4.451   3.734   8.996  0.2060  0.4051 -0.8029
 5695TIP3   OH241279   3.155   3.583   1.045  0.6581 -0.1647 -0.5822
 5695TIP3    H141280   3.111   3.660   1.009  2.9920  0.4830 -2.2254
 5695TIP3    H241281   3.237   3.617   1.081  0.8125 -1.6218  0.5364
 5696TIP3   OH241282   3.289   1.547   0.784 -0.5039 -0.1653 -0.4355
 5696TIP3    H141283   3.369   1.542   0.835 -1.0217  1.6199  0.6355
 5696TIP3    H241284   3.256   1.457   0.782  1.6042 -0.9810 -1.1070
 5697TIP3   OH241285   3.766   0.070   2.750 -0.1766 -0.6691  0.0305
 5697TIP3    H141286   3.797   0.050   2.839  0.0776 -0.6703 -0.0591
 5697TIP3    H241287   3.808   0.004   2.695  0.4768 -0.0318 -0.2381
 5698TIP3   OH241288   7.264   5.983   9.750 -0.2646 -0.5781 -0.3898
 5698TIP3    H141289   7.204   5.908   9.754 -0.0050 -0.7854 -0.2713
 5698TIP3    H241290   7.256   6.016   9.661 -0.1714 -0.9285 -0.5318
 5699TIP3   OH241291   1.323   2.350   9.220 -0.3413 -0.0856 -0.0114
 5699TIP3    H141292   1.417   2.368   9.216  0.2351 -2.8040 -1.0759
 5699TIP3    H241293   1.301   2.358   9.313  1.1128 -0.0732  0.3582
 5700TIP3   OH241294   0.596   3.334   6.713  0.6308  0.2346 -0.1539
 5700TIP3    H141295   0.604   3.245   6.749  0.3407 -0.3979 -1.5852
 5700TIP3    H241296   0.640   3.389   6.778  3.3829 -1.3008 -0.5580
 5701TIP3   OH241297   3.393   6.089   9.019 -0.7772  0.5353 -0.3598
 5701TIP3    H141298   3.325   6.146   8.984 -0.6798  0.0011 -1.4710
 5701TIP3    H241299   3.377   6.004   8.977 -1.0310 -0.3213  1.3883
 5702TIP3   OH241300   3.223   0.858   1.204  0.0313 -0.7303  0.2075
 5702TIP3    H141301   3.201   0.770   1.174  0.7390 -1.3324  1.3543
 5702TIP3    H241302   3.225   0.911   1.125 -1.7801 -1.4279 -0.3544
 5703TIP3   OH241303   1.198   3.769   7.147  0.7748  0.3432  0.4299
 5703TIP3    H141304   1.103   3.776   7.144  0.8093  0.6422 -1.6590
 5703TIP3    H241305   1.219   3.699   7.085  2.0474  2.8013 -2.1195
 5704TIP3   OH241306   0.842   5.379   7.586 -0.3471  0.7033  0.3895
 5704TIP3    H141307   0.829   5.286   7.566  0.3816  0.5724  0.5054
 5704TIP3    H241308   0.801   5.424   7.512  1.4172  0.2383 -0.9606
 5705TIP3   OH241309   6.814   5.643   7.521  0.1007 -0.0165  0.2479
 5705TIP3    H141310   6.801   5.738   7.525  0.3593 -0.0116  1.0242
 5705TIP3    H241311   6.727   5.608   7.498  0.4177  0.5218 -1.9717
 5706TIP3   OH241312   6.770   4.122   2.382  0.6120  0.0426 -0.3813
 5706TIP3    H141313   6.699   4.070   2.344 -0.9817  0.2826  2.0260
 5706TIP3    H241314   6.749   4.126   2.475  2.3951  2.3781  0.0106
 5707TIP3   OH241315   2.734   7.386   1.503 -0.0350  0.0883 -0.1685
 5707TIP3    H141316   2.736   7.293   1.524 -1.5826 -0.2299 -1.2397
 5707TIP3    H241317   2.679   7.425   1.572 -0.4119 -0.0094 -0.4096
 5708TIP3   OH241318   1.554   3.728   1.372 -0.5749  0.4885 -0.8203
 5708TIP3    H141319   1.474   3.678   1.387 -1.2546  1.1792 -1.9758
 5708TIP3    H241320   1.620   3.663   1.349 -0.3050 -0.2758  1.8322
 5709TIP3   OH241321   6.384   7.473   8.880 -0.1412 -0.2833 -0.2373
 5709TIP3    H141322   6.413   7.540   8.942 -0.0723 -1.2261  0.7881
 5709TIP3    H241323   6.325   7.519   8.820  0.5267  0.8519 -0.0498
 5710TIP3   OH241324   7.296   3.412   0.093  0.1434 -0.4504 -0.1599
 5710TIP3    H141325   7.309   3.397   0.186  0.5152  0.9215  0.0412
 5710TIP3    H241326   7.208   3.450   0.086 -0.1388 -1.1406 -0.4494
 5711TIP3   OH241327   6.545   0.053   9.907 -0.2744 -0.7681 -0.0546
 5711TIP3    H141328   6.495   0.125   9.869 -1.8568 -1.5171  0.5094
 5711TIP3    H241329   6.622   0.095   9.946 -0.2950  0.3887 -1.1916
 5712TIP3   OH241330   6.696   1.101   1.283 -0.1665  0.2929  0.2073
 5712TIP3    H141331   6.633   1.169   1.306 -1.7878 -1.2737  0.5884
 5712TIP3    H241332   6.708   1.051   1.363  1.0299  0.1198 -0.0560
 5713TIP3   OH241333   0.101   3.436   8.224 -0.2598 -0.2812  0.5700
 5713TIP3    H141334   0.178   3.471   8.180 -1.2718  0.8585 -0.3553
 5713TIP3    H241335   0.110   3.341   8.215  0.3289 -0.1240 -0.7610
 5714TIP3   OH241336   7.491   2.682   0.921  1.0651 -0.3225 -0.0881
 5714TIP3    H141337   7.502   2.777   0.922 -0.0712 -0.0288 -3.1585
 5714TIP3    H241338   7.572   2.649   0.881  1.1366 -0.5707  0.2601
 5715TIP3   OH241339   2.729   6.308   8.686 -0.8013  0.0596  0.0586
 5715TIP3    H141340   2.641   6.323   8.719 -0.7970  0.7633 -0.2375
 5715TIP3    H241341   2.781   6.286   8.763 -1.1501  0.0213  0.2826
 5716TIP3   OH241342   2.035   2.155   0.766 -0.1847 -0.9241 -0.7699
 5716TIP3    H141343   1.971   2.170   0.696 -1.3481  0.9396  0.5811
 5716TIP3    H241344   1.984   2.121   0.839  0.0099  1.6475  0.7181
 5717TIP3   OH241345   7.613   6.632   7.183  0.1620 -0.0371 -0.6765
 5717TIP3    H141346   7.574   6.547   7.206  1.9824 -0.9964 -0.9028
 5717TIP3    H241347   7.702   6.610   7.155  0.1702  1.8008 -2.2656
 5718TIP3   OH241348   1.085   4.169   8.967  0.3026 -0.0950 -0.1380
 5718TIP3    H141349   1.081   4.257   8.930  0.9920 -0.1929 -0.4592
 5718TIP3    H241350   1.179   4.150   8.976  0.1599 -0.5788  0.4561
 5719TIP3   OH241351   0.576   4.126   7.571 -0.3046  0.3077  0.5017
 5719TIP3    H141352   0.621   4.155   7.651  0.0133  0.5152  0.2482
 5719TIP3    H241353   0.617   4.176   7.501  0.4113 -0.9104  0.0203
 5720TIP3   OH241354   1.148   6.903   7.738  0.6362 -0.5002 -0.2887
 5720TIP3    H141355   1.075   6.842   7.754  0.1803  0.7295  3.1515
 5720TIP3    H241356   1.108   6.976   7.691  0.4298 -1.2969 -1.3833
 5721TIP3   OH241357   5.390   6.570   2.672 -0.3865  0.5798 -0.3756
 5721TIP3    H141358   5.383   6.643   2.733 -0.7381  0.4807 -0.2900
 5721TIP3    H241359   5.307   6.571   2.624 -0.4232  0.1969 -0.3241
 5722TIP3   OH241360   7.077   3.725   8.601 -0.3430  0.6218  0.0053
 5722TIP3    H141361   7.018   3.651   8.586  0.9543 -0.4169 -0.1750
 5722TIP3    H241362   7.074   3.776   8.520 -1.2409  0.7741  0.1280
 5723TIP3   OH241363   3.719   0.641   2.713 -0.4488 -0.7366  0.3527
 5723TIP3    H141364   3.633   0.658   2.753  0.0265  1.3796  0.5961
 5723TIP3    H241365   3.782   0.667   2.780  0.3529  1.3348 -1.1047
 5724TIP3   OH241366   2.086   1.477   9.223 -0.1780 -0.7133 -0.3798
 5724TIP3    H141367   2.141   1.525   9.285  1.2708 -3.7378  0.9024
 5724TIP3    H241368   2.135   1.479   9.141 -0.0931 -0.0742 -0.3147
 5725TIP3   OH241369   2.201   5.192   1.133  0.0216 -0.1677  0.3839
 5725TIP3    H141370   2.126   5.249   1.148  0.9743  1.5531 -1.0985
 5725TIP3    H241371   2.162   5.107   1.109 -1.4526  0.6676 -0.3209
 5726TIP3   OH241372   2.247   6.539   2.566 -0.2773 -0.1252 -0.3548
 5726TIP3    H141373   2.302   6.591   2.507 -1.3022  2.0216  0.5012
 5726TIP3    H241374   2.284   6.553   2.653 -0.2715 -1.2904 -0.1442
 5727TIP3   OH241375   1.445   4.611   1.342  0.5857  0.9023  0.5694
 5727TIP3    H141376   1.403   4.671   1.404 -1.2526  2.2531 -1.8138
 5727TIP3    H241377   1.501   4.668   1.289 -0.3568  0.3800 -1.0428
 5728TIP3   OH241378   2.145   0.592   1.904  0.2543  0.0301  0.0418
 5728TIP3    H141379   2.049   0.592   1.904  0.2276 -0.4501  1.3340
 5728TIP3    H241380   2.169   0.623   1.817 -1.0850  1.3710  0.1021
 5729TIP3   OH241381   2.252   2.091   0.604  0.0038  0.4512  0.0983
 5729TIP3    H141382   2.192   2.052   0.540  0.8037  0.5485 -0.7317
 5729TIP3    H241383   2.195   2.124   0.674 -0.8200 -0.5188 -0.0923
 5730TIP3   OH241384   0.816   1.207   2.749 -0.0472  0.0731  0.2642
 5730TIP3    H141385   0.722   1.203   2.731  0.0511  0.4072 -0.3514
 5730TIP3    H241386   0.825   1.274   2.817 -0.1609  0.7210 -0.3548
 5731TIP3   OH241387   0.150   2.208   2.277 -0.1668  0.1132  0.1816
 5731TIP3    H141388   0.178   2.267   2.347  2.2620  0.6232 -1.0932
 5731TIP3    H241389   0.077   2.253   2.235  0.7930  1.6226  0.0617
 5732TIP3   OH241390   6.071   7.299   3.113  0.0666 -0.6464 -0.2708
 5732TIP3    H141391   5.991   7.324   3.158 -0.1580 -0.6065 -0.6886
 5732TIP3    H241392   6.140   7.351   3.155 -0.4481  1.0407 -1.4200
 5733TIP3   OH241393   6.364   1.020   8.963 -0.2127 -0.0129  0.5122
 5733TIP3    H141394   6.371   0.947   9.025 -1.6057 -0.2037  0.4611
 5733TIP3    H241395   6.274   1.018   8.933 -0.5199  2.1926  1.0863
 5734TIP3   OH241396   6.918   4.443   8.201  0.3584  0.0797  0.1622
 5734TIP3    H141397   6.976   4.509   8.238 -0.2979  0.1732  1.0479
 5734TIP3    H241398   6.860   4.419   8.273  0.9349 -1.8713  0.0371
 5735TIP3   OH241399   2.387   3.456   8.423 -0.3547  0.0589  0.0460
 5735TIP3    H141400   2.396   3.551   8.409  0.3711  0.4718  2.5906
 5735TIP3    H241401   2.296   3.444   8.449 -0.6541 -0.0770 -1.0520
 5736TIP3   OH241402   1.232   4.619   9.085 -0.0636 -0.3928  0.3931
 5736TIP3    H141403   1.318   4.608   9.044 -0.2672 -1.2218  0.1640
 5736TIP3    H241404   1.251   4.633   9.177  0.3906  1.2160  0.0875
 5737TIP3   OH241405   4.440   1.952   9.447  0.0383 -0.1123  0.0118
 5737TIP3    H141406   4.514   1.993   9.492 -0.4645  0.8756 -0.0278
 5737TIP3    H241407   4.373   1.943   9.515  0.0778 -0.6883 -0.0279
 5738TIP3   OH241408   5.033   2.810   0.392 -0.0984 -0.2780  0.3789
 5738TIP3    H141409   5.118   2.795   0.350 -0.1150 -0.3580  0.3742
 5738TIP3    H241410   4.998   2.887   0.348 -0.5769 -0.9612 -0.4611
 5739TIP3   OH241411   6.055   0.395   6.956 -0.3402 -0.1412  0.3621
 5739TIP3    H141412   6.123   0.353   7.009 -0.4242  1.3481  1.7329
 5739TIP3    H241413   6.091   0.397   6.868  0.9147 -0.3923  0.8531
 5740TIP3   OH241414   5.985   1.097   1.263  0.0603 -0.0285 -0.4296
 5740TIP3    H141415   5.943   1.013   1.282 -1.8605  0.9942  0.0735
 5740TIP3    H241416   5.985   1.143   1.347 -3.2375  2.2704 -1.5007
 5741TIP3   OH241417   3.408   2.573   1.022 -0.2499  0.2716  0.2168
 5741TIP3    H141418   3.345   2.509   1.056 -0.9453  0.5112 -0.6018
 5741TIP3    H241419   3.490   2.551   1.067 -0.6293 -0.7817  0.4305
 5742TIP3   OH241420   0.734   0.991   9.343  0.1498  0.1397  0.7845
 5742TIP3    H141421   0.664   0.979   9.279  1.0252 -2.4087  0.2051
 5742TIP3    H241422   0.696   0.963   9.426  0.2657 -0.5780  0.5984
 5743TIP3   OH241423   1.735   6.766   8.918  0.0937 -0.0593  0.4926
 5743TIP3    H141424   1.726   6.835   8.852 -2.8580 -2.4991 -2.0199
 5743TIP3    H241425   1.667   6.786   8.983 -0.6998 -0.4861 -0.1865
 5744TIP3   OH241426   7.228   7.063   0.677 -0.5438 -0.0280 -0.5038
 5744TIP3    H141427   7.145   7.034   0.639 -1.5426  0.1524  1.3953
 5744TIP3    H241428   7.202   7.128   0.742  1.0567 -0.2524  0.3943
 5745TIP3   OH241429   3.739   2.579   8.693 -0.0699  0.3201 -0.4422
 5745TIP3    H141430   3.761   2.656   8.640  1.9429 -0.0779 -0.2731
 5745TIP3    H241431   3.823   2.553   8.733 -1.1204 -0.6489  1.2557
 5746TIP3   OH241432   2.403   5.084   9.348 -0.0623 -0.0472 -0.1474
 5746TIP3    H141433   2.384   5.163   9.398 -2.3604 -1.5405  1.5689
 5746TIP3    H241434   2.487   5.102   9.305 -0.9568  3.6831 -0.7152
 5747TIP3   OH241435   1.307   4.953   0.276  0.1041 -0.0440  0.3022
 5747TIP3    H141436   1.279   4.862   0.277  1.6215 -0.7265 -3.4937
 5747TIP3    H241437   1.399   4.950   0.303 -0.0248  0.4990  0.8351
 5748TIP3   OH241438   3.009   5.426   9.988  0.1597 -0.8010 -0.3139
 5748TIP3    H141439   3.024   5.427   9.894 -0.7572  1.7460 -0.5311
 5748TIP3    H241440   3.094   5.447  10.026  0.0736  0.4544 -0.7544
 5749TIP3   OH241441   2.344   2.648   0.480  0.1733  0.1017  0.7676
 5749TIP3    H141442   2.415   2.587   0.499  0.2022  0.1081  0.6800
 5749TIP3    H241443   2.283   2.598   0.426  0.1841  0.1421  0.7179
 5750TIP3   OH241444   2.850   5.802   6.936  0.0943  0.1416  0.3091
 5750TIP3    H141445   2.790   5.838   6.870  0.5421 -1.3766 -1.0049
 5750TIP3    H241446   2.888   5.879   6.979 -0.3803  1.1845 -1.0618
 5751TIP3   OH241447   0.352   2.813   7.387 -0.2183 -0.1176  0.3286
 5751TIP3    H141448   0.312   2.836   7.471 -0.2511 -0.5125  0.4223
 5751TIP3    H241449   0.352   2.717   7.386  1.4977 -0.1469  0.7014
 5752TIP3   OH241450   0.939   2.864   8.476  0.5121 -0.1158  0.2888
 5752TIP3    H141451   0.919   2.773   8.453  0.9113 -0.0804 -0.1946
 5752TIP3    H241452   1.014   2.857   8.535  1.4088 -0.0227 -0.8208
 5753TIP3   OH241453   3.328   3.910   9.293  0.1215  0.0800 -0.1056
 5753TIP3    H141454   3.298   4.001   9.295  1.5531  0.5591  0.5592
 5753TIP3    H241455   3.249   3.859   9.309 -0.5063  1.2569  0.7241
 5754TIP3   OH241456   5.965   4.296   0.716 -0.2962  0.2016 -0.0162
 5754TIP3    H141457   6.053   4.313   0.748 -0.6847  1.9280  0.2626
 5754TIP3    H241458   5.933   4.224   0.770  1.3690 -1.3286 -0.9869
 5755TIP3   OH241459   2.532   1.118   9.199  0.6317  0.2339  0.1496
 5755TIP3    H141460   2.539   1.058   9.273 -0.4295  0.7982  0.7137
 5755TIP3    H241461   2.600   1.183   9.214  0.9901 -0.1371  0.1610
 5756TIP3   OH241462   2.040   3.460   0.906 -0.1169 -0.0994  0.4065
 5756TIP3    H141463   2.053   3.420   0.820  1.0418 -1.8012  1.3040
 5756TIP3    H241464   1.953   3.500   0.901  0.2741  0.5778 -1.7975
 5757TIP3   OH241465   3.322   1.435   1.782  0.1282 -0.4241  0.0341
 5757TIP3    H141466   3.381   1.385   1.725  0.0603 -1.1280  0.5731
 5757TIP3    H241467   3.381   1.489   1.835  0.1299  1.9843 -2.2320
 5758TIP3   OH241468   0.294   5.966   7.668 -0.0242  0.1572 -0.4711
 5758TIP3    H141469   0.250   6.031   7.613  1.2553  1.2046 -0.3122
 5758TIP3    H241470   0.224   5.927   7.720 -0.8910  1.0727 -0.9164
 5759TIP3   OH241471   4.439   0.760   9.715  0.0040 -0.0384  0.2265
 5759TIP3    H141472   4.486   0.736   9.635  1.9911 -1.9835  1.8368
 5759TIP3    H241473   4.490   0.833   9.751 -1.2580  1.2684 -0.5236
 5760TIP3   OH241474   0.759   2.057   8.337  0.1129  0.1483 -0.2440
 5760TIP3    H141475   0.834   1.999   8.344 -0.1510 -0.0046  2.3121
 5760TIP3    H241476   0.685   1.999   8.322  0.2682  0.1609 -1.1231
 5761TIP3   OH241477   3.285   1.815   9.682 -0.1219 -0.2507  0.8033
 5761TIP3    H141478   3.274   1.870   9.760  0.6217  0.3985  0.4552
 5761TIP3    H241479   3.229   1.855   9.616 -0.0500 -0.2712  0.7294
 5762TIP3   OH241480   3.077   4.672   0.145 -0.1517  0.1877  0.3508
 5762TIP3    H141481   3.037   4.758   0.127  1.4379  0.9157  0.1535
 5762TIP3    H241482   3.132   4.688   0.222  2.0630 -0.0134 -1.1269
 5763TIP3   OH241483   3.395   0.557   2.165  0.8316  0.3487 -0.5354
 5763TIP3    H141484   3.453   0.611   2.219  0.5373  0.6148 -0.4773
 5763TIP3    H241485   3.407   0.591   2.076  3.2283 -1.7490 -1.0980
 5764TIP3   OH241486   1.645   4.936   0.663  0.3964  0.1292  0.4805
 5764TIP3    H141487   1.650   5.027   0.692  0.6005 -0.0036  0.8734
 5764TIP3    H241488   1.580   4.896   0.721  0.6566 -0.0879  0.6290
 5765TIP3   OH241489   0.322   1.061   1.111  0.5219 -0.6201 -0.1299
 5765TIP3    H141490   0.391   0.998   1.090 -0.7489 -1.8262 -0.8918
 5765TIP3    H241491   0.313   1.057   1.206  1.1318 -0.8453 -0.0794
 5766TIP3   OH241492   0.594   1.660   1.050 -0.2446 -0.0577 -0.8940
 5766TIP3    H141493   0.522   1.649   1.112  0.0511  1.7973 -0.1499
 5766TIP3    H241494   0.665   1.608   1.086 -0.6702 -0.5062 -0.6997
 5767TIP3   OH241495   2.001   6.116   1.401 -0.0626  0.1069  0.3467
 5767TIP3    H141496   2.005   6.022   1.385 -0.1607  0.3777 -1.4652
 5767TIP3    H241497   1.925   6.146   1.351  0.1773  1.2055  0.6089
 5768TIP3   OH241498   5.952   3.775   9.372  0.2154  0.7351  1.1862
 5768TIP3    H141499   5.925   3.769   9.463 -0.0244 -0.2034  1.0723
 5768TIP3    H241500   5.905   3.703   9.329  1.7622 -0.0296  0.6990
 5769TIP3   OH241501   6.197   4.968   7.313 -0.0472  0.4957  0.1271
 5769TIP3    H141502   6.223   4.994   7.225 -1.0990 -2.2023 -1.1060
 5769TIP3    H241503   6.102   4.964   7.310 -0.0238 -1.8836  0.5866
 5770TIP3   OH241504   0.914   5.708   0.030 -0.1489  0.0219  0.1914
 5770TIP3    H141505   0.853   5.781   0.024 -0.0436  0.2430  1.5546
 5770TIP3    H241506   0.861   5.633   0.056 -0.1289 -0.2252 -0.4499
 5771TIP3   OH241507   7.154   6.274   7.853  0.2997 -0.2406  0.0607
 5771TIP3    H141508   7.130   6.239   7.767 -3.6860  1.4038  0.2516
 5771TIP3    H241509   7.208   6.351   7.834 -0.3384 -0.0361 -1.0142
 5772TIP3   OH241510   5.225   1.849   1.431  0.1135  0.1509 -0.0688
 5772TIP3    H141511   5.143   1.886   1.398 -0.5437  1.2659  2.5290
 5772TIP3    H241512   5.243   1.898   1.511  3.0511 -0.4636 -0.2314
 5773TIP3   OH241513   3.286   0.215   7.784  0.3776  0.1995 -0.0997
 5773TIP3    H141514   3.353   0.243   7.846  1.4034 -1.5701 -0.3540
 5773TIP3    H241515   3.330   0.151   7.728 -1.4354 -0.7942 -0.4691
 5774TIP3   OH241516   4.746   7.066   2.711 -0.0764 -0.4332 -0.3743
 5774TIP3    H141517   4.661   7.023   2.710 -0.1647 -0.3203  0.6765
 5774TIP3    H241518   4.751   7.107   2.797  0.1748  1.3169 -1.1702
 5775TIP3   OH241519   4.564   2.178   7.553  0.6465 -0.3558  0.5189
 5775TIP3    H141520   4.582   2.084   7.554  1.0285 -0.2796  1.4582
 5775TIP3    H241521   4.620   2.215   7.622 -0.1671  0.4292  0.7844
 5776TIP3   OH241522   4.369   6.120   7.775 -0.1131 -0.1163  0.1769
 5776TIP3    H141523   4.379   6.124   7.680 -0.3507 -2.9778 -0.0684
 5776TIP3    H241524   4.277   6.099   7.788  0.4913 -2.9399  0.7492
 5777TIP3   OH241525   3.014   3.348   9.186  0.0112  0.0346 -0.6118
 5777TIP3    H141526   2.978   3.349   9.274 -0.9653  2.6377 -0.9512
 5777TIP3    H241527   2.944   3.311   9.132 -0.6506  1.3193 -0.6833
 5778TIP3   OH241528   5.559   4.641   9.698  0.0678 -0.1229 -0.3746
 5778TIP3    H141529   5.624   4.711   9.700 -1.1833  1.0986  1.7292
 5778TIP3    H241530   5.605   4.566   9.661  2.4914  0.8495  0.4476
 5779TIP3   OH241531   4.479   2.363   1.944 -0.9068 -0.3904  0.0357
 5779TIP3    H141532   4.469   2.413   2.025 -0.3241  0.5070 -0.4336
 5779TIP3    H241533   4.488   2.272   1.973 -0.7368 -0.0831  0.9702
 5780TIP3   OH241534   1.218   5.451   9.491  0.4907  0.6672 -0.3641
 5780TIP3    H141535   1.292   5.405   9.531  1.1368  0.6721 -1.5031
 5780TIP3    H241536   1.160   5.382   9.461 -1.0982  0.6518  2.4269
 5781TIP3   OH241537   6.568   6.142   9.731 -0.0661 -0.5001 -0.6383
 5781TIP3    H141538   6.525   6.088   9.797  0.5975  1.0484  1.1558
 5781TIP3    H241539   6.516   6.222   9.727  0.1112 -0.4234 -1.7406
 5782TIP3   OH241540   3.607   1.734   0.583  0.0559  0.2077 -0.0778
 5782TIP3    H141541   3.575   1.794   0.649  0.6289  1.3888 -0.8445
 5782TIP3    H241542   3.677   1.781   0.538  0.0790 -0.7732 -1.1413
 5783TIP3   OH241543   6.333   4.719   9.880 -0.2261  0.6114 -0.2095
 5783TIP3    H141544   6.265   4.666   9.838 -0.3648 -0.3144  1.1202
 5783TIP3    H241545   6.410   4.706   9.825 -0.7164  0.4282 -0.8692
 5784TIP3   OH241546   2.614   0.204  10.024 -0.0846 -0.1310  0.3338
 5784TIP3    H141547   2.685   0.191   9.962  0.6790  1.8359  0.7386
 5784TIP3    H241548   2.580   0.116  10.040  0.2412 -0.7998 -2.1889
 5785TIP3   OH241549   2.667   7.142   7.742  0.0812 -0.2148 -0.5676
 5785TIP3    H141550   2.606   7.140   7.815  1.8820 -0.9932  1.0068
 5785TIP3    H241551   2.622   7.097   7.671 -0.6887 -1.9011  0.9396
 5786TIP3   OH241552   1.897   7.315   9.926 -0.4577  0.1778 -0.2740
 5786TIP3    H141553   1.842   7.239   9.909 -2.0360  1.2969 -0.4102
 5786TIP3    H241554   1.980   7.294   9.884 -0.6103 -1.7494  0.3083
 5787TIP3   OH241555   1.598   5.560   8.083 -0.0943  1.0754  0.0418
 5787TIP3    H141556   1.573   5.472   8.056  0.4762  1.0501 -0.4331
 5787TIP3    H241557   1.636   5.549   8.170  0.9804  0.6780 -0.4553
 5788TIP3   OH241558   6.279   0.490   1.511  0.2299 -0.5613  0.3042
 5788TIP3    H141559   6.313   0.503   1.423 -0.9967  1.4171  0.0621
 5788TIP3    H241560   6.356   0.486   1.567  0.9837  2.2463 -0.3914
 5789TIP3   OH241561   1.767   2.646   9.706  0.0904  0.0290 -0.0229
 5789TIP3    H141562   1.806   2.699   9.637 -0.9628  0.7755 -0.0603
 5789TIP3    H241563   1.691   2.605   9.665 -0.9961  1.0849  0.8593
 5790TIP3   OH241564   4.525   3.522   7.133  0.3553 -0.5886  0.4440
 5790TIP3    H141565   4.510   3.536   7.227  0.8626  1.6558  0.2562
 5790TIP3    H241566   4.439   3.533   7.093  0.5152  0.8429  0.4493
 5791TIP3   OH241567   5.281   2.488   1.425  0.1092  0.0448 -0.3253
 5791TIP3    H141568   5.355   2.427   1.417  0.7180  0.6750  0.3369
 5791TIP3    H241569   5.220   2.460   1.357  1.9339  0.8676 -2.4367
 5792TIP3   OH241570   0.167   4.983   9.394  0.2207 -0.9646  0.7691
 5792TIP3    H141571   0.198   4.919   9.330  0.8958  1.2131 -1.2114
 5792TIP3    H241572   0.092   5.026   9.352  2.2372  2.3148  0.1123
 5793TIP3   OH241573   3.431   4.452   8.218  0.5925  0.0349 -0.0397
 5793TIP3    H141574   3.354   4.409   8.255  1.1369 -0.5048  0.4777
 5793TIP3    H241575   3.472   4.497   8.293  0.5563  0.6709 -0.3893
 5794TIP3   OH241576   7.212   1.728   9.159 -0.5223 -0.4566  0.2592
 5794TIP3    H141577   7.145   1.786   9.123  0.9500  1.0424 -0.2230
 5794TIP3    H241578   7.293   1.780   9.154  0.5809 -2.0038  1.2828
 5795TIP3   OH241579   3.117   6.301   1.573 -0.0126 -0.2908  0.1203
 5795TIP3    H141580   3.166   6.235   1.623 -1.3584 -1.6052 -0.2253
 5795TIP3    H241581   3.026   6.285   1.596 -0.4660  0.6397 -0.9559
 5796TIP3   OH241582   6.397   2.836   9.092  0.2000 -0.4633 -0.7541
 5796TIP3    H141583   6.382   2.748   9.056 -0.1984 -0.7471  0.0729
 5796TIP3    H241584   6.378   2.827   9.186  0.9287  0.3189 -0.5163
 5797TIP3   OH241585   5.325   2.011   2.381 -0.0272  0.8685 -0.5734
 5797TIP3    H141586   5.277   1.968   2.452 -1.3762  0.5753 -1.6461
 5797TIP3    H241587   5.401   2.050   2.425 -1.2639  1.4398  1.1846
 5798TIP3   OH241588   5.068   5.852   8.873 -0.0738  0.0617 -0.3366
 5798TIP3    H141589   5.141   5.898   8.915 -1.0573  0.0222  1.4798
 5798TIP3    H241590   5.063   5.891   8.786  1.7747  0.4311 -0.3268
 5799TIP3   OH241591   6.811   3.298   7.518 -0.5730 -0.0899 -0.1843
 5799TIP3    H141592   6.881   3.234   7.529  0.1072  0.7448  0.4615
 5799TIP3    H241593   6.844   3.360   7.454 -0.1931  0.9854  1.0087
 5800TIP3   OH241594   0.854   6.331   3.220 -0.5300  0.5786 -0.5444
 5800TIP3    H141595   0.798   6.254   3.212 -0.1389  0.3254 -0.8728
 5800TIP3    H241596   0.934   6.307   3.174 -0.0305  0.8208  0.1865
 5801TIP3   OH241597   1.372   4.404   8.986  0.1248  0.3842 -0.1152
 5801TIP3    H141598   1.333   4.400   9.074 -1.4732 -0.9091 -0.8377
 5801TIP3    H241599   1.360   4.316   8.950  1.4739  0.6728 -1.3502
 5802TIP3   OH241600   2.550   5.273   7.458 -0.2748 -0.1330  0.1447
 5802TIP3    H141601   2.608   5.271   7.382  0.7060  1.8645  0.7780
 5802TIP3    H241602   2.565   5.359   7.498 -3.1459  0.1793  0.7561
 5803TIP3   OH241603   1.102   1.316   1.705  0.2999 -0.2393  0.1141
 5803TIP3    H141604   1.106   1.365   1.787 -1.2831 -0.9081  0.6328
 5803TIP3    H241605   1.188   1.328   1.665  0.4296  1.7855  0.8888
 5804TIP3   OH241606   3.537   4.646   0.203  0.4644 -0.3489 -0.1312
 5804TIP3    H141607   3.498   4.662   0.289  0.0559 -0.6905 -0.2491
 5804TIP3    H241608   3.610   4.707   0.198 -1.4217  1.9991 -0.8487
 5805TIP3   OH241609   5.135   1.542   1.855 -0.6191  0.3400  0.3107
 5805TIP3    H141610   5.085   1.467   1.825 -1.4215  0.8537  0.3381
 5805TIP3    H241611   5.107   1.614   1.798 -0.9823  0.9591  1.2415
 5806TIP3   OH241612   1.064   0.450   3.109 -0.0372  0.5565 -0.4291
 5806TIP3    H141613   1.082   0.357   3.104  0.2596  0.6158 -0.4680
 5806TIP3    H241614   0.973   0.456   3.138  0.0643  0.2602 -0.0479
 5807TIP3   OH241615   6.681   3.870   1.751 -0.3117  0.0296  0.3716
 5807TIP3    H141616   6.738   3.945   1.770 -0.2132  0.5365 -1.6807
 5807TIP3    H241617   6.637   3.894   1.670 -1.6652 -1.3858  0.6544
 5808TIP3   OH241618   2.510   7.087   2.600  0.3823 -0.0723  0.2879
 5808TIP3    H141619   2.464   7.132   2.530  2.5200  1.8713  0.0116
 5808TIP3    H241620   2.442   7.039   2.647 -1.6206  1.3042 -1.0631
 5809TIP3   OH241621   2.284   3.515   9.252 -0.2151  0.8349  0.2548
 5809TIP3    H141622   2.317   3.534   9.340 -0.4733  0.9057  0.3372
 5809TIP3    H241623   2.200   3.472   9.267 -0.5254  1.3531  0.0346
 5810TIP3   OH241624   0.225   0.657   9.282  0.3294  0.4631 -0.5668
 5810TIP3    H141625   0.149   0.603   9.304  1.3424  0.0106  2.2838
 5810TIP3    H241626   0.225   0.660   9.187 -1.3934 -2.2632 -0.7833
 5811TIP3   OH241627   4.791   0.069   6.705 -0.1424  0.4754  0.1260
 5811TIP3    H141628   4.799   0.162   6.728 -0.3077  1.3008 -2.7051
 5811TIP3    H241629   4.878   0.044   6.676 -0.5265  0.3636 -0.9892
 5812TIP3   OH241630   3.153   0.566   1.131 -0.6303 -0.3546  0.7243
 5812TIP3    H141631   3.163   0.480   1.174  1.4638 -0.7738 -0.4699
 5812TIP3    H241632   3.112   0.546   1.047  3.7899 -0.9808 -1.5591
 5813TIP3   OH241633   6.141   6.246   2.939  0.2310 -0.2387 -0.3273
 5813TIP3    H141634   6.187   6.168   2.971  0.5112  0.2083  0.3996
 5813TIP3    H241635   6.190   6.320   2.977 -1.0627  0.2534  0.4804
 5814TIP3   OH241636   7.096   7.227   7.376  0.6038 -0.2565  0.0982
 5814TIP3    H141637   7.018   7.260   7.420 -0.2629 -0.2793 -1.3575
 5814TIP3    H241638   7.081   7.133   7.366  0.0444 -0.0264 -1.5999
 5815TIP3   OH241639   0.219   5.402   7.819  0.0008 -0.4603 -0.0578
 5815TIP3    H141640   0.157   5.415   7.748 -1.0661 -1.3307  0.6888
 5815TIP3    H241641   0.267   5.322   7.796 -0.0073 -0.4738 -0.0280
 5816TIP3   OH241642   2.955   4.046   0.438  0.2688 -0.4119 -0.4273
 5816TIP3    H141643   2.975   4.018   0.349  1.3977 -1.5358  0.1482
 5816TIP3    H241644   2.931   3.966   0.484 -2.0674  0.3836 -0.1220
 5817TIP3   OH241645   5.628   3.872   9.952  0.0328  0.0663  0.4196
 5817TIP3    H141646   5.697   3.929   9.987  0.3868 -1.4231  2.2862
 5817TIP3    H241647   5.550   3.927   9.951  0.6225  0.9452  1.0084
 5818TIP3   OH241648   4.002   1.882   9.225 -0.2609  0.1545  0.0767
 5818TIP3    H141649   4.048   1.797   9.225  2.1344  1.3584 -0.6322
 5818TIP3    H241650   3.941   1.875   9.151 -1.4496 -1.5575  1.1372
 5819TIP3   OH241651   6.528   0.328   1.037 -0.0091 -0.7370 -0.7679
 5819TIP3    H141652   6.497   0.416   1.015 -1.2221 -1.2272 -1.0938
 5819TIP3    H241653   6.619   0.327   1.008 -0.1430  0.2357 -1.2582
 5820TIP3   OH241654   5.400   2.444   1.103 -0.2523 -0.0631 -0.0606
 5820TIP3    H141655   5.449   2.526   1.108  0.0466 -0.3215  1.7102
 5820TIP3    H241656   5.467   2.378   1.084  0.1441 -0.3983  2.2377
 5821TIP3   OH241657   5.508   1.390   0.273  0.8635 -0.4929  0.8878
 5821TIP3    H141658   5.425   1.343   0.265  1.8338 -2.1445 -0.1715
 5821TIP3    H241659   5.564   1.330   0.322  1.4361  0.6273  1.6314
 5822TIP3   OH241660   5.404   7.063   7.031  0.0477  0.2140 -0.5867
 5822TIP3    H141661   5.379   7.148   7.066  2.5077  0.3671  1.0136
 5822TIP3    H241662   5.489   7.078   6.990  0.7009 -1.5075  0.0576
 5823TIP3   OH241663   7.167   1.473   9.885  0.1488  0.2490 -0.0620
 5823TIP3    H141664   7.156   1.416   9.809  0.2571  1.5325 -1.0739
 5823TIP3    H241665   7.077   1.487   9.916  0.1926 -1.3211  0.8823
 5824TIP3   OH241666   4.383   4.379   8.600 -0.0955  0.0896  0.0982
 5824TIP3    H141667   4.452   4.421   8.652 -0.6231 -0.0637  0.9477
 5824TIP3    H241668   4.353   4.307   8.655  0.3335 -1.0122 -1.0512
 5825TIP3   OH241669   7.061   6.863   2.738  0.2889  0.2317 -0.8352
 5825TIP3    H141670   7.041   6.931   2.802 -1.4793 -0.4665 -0.5885
 5825TIP3    H241671   7.129   6.810   2.780  1.3640  1.5421 -0.8482
 5826TIP3   OH241672   1.894   1.907   7.463  0.7815 -0.1109  0.4063
 5826TIP3    H141673   1.853   1.987   7.429 -1.3699 -0.7380  1.4155
 5826TIP3    H241674   1.892   1.918   7.558  0.3847 -1.4071  0.5549
 5827TIP3   OH241675   6.791   5.645   8.965  0.4065 -0.2193 -0.3316
 5827TIP3    H141676   6.738   5.645   9.045  1.0666  1.2392  0.1347
 5827TIP3    H241677   6.796   5.552   8.940  0.4882 -0.7542  1.5173
 5828TIP3   OH241678   3.155   2.564   1.573 -0.5156  0.5789 -0.6115
 5828TIP3    H141679   3.162   2.659   1.577  0.6694  0.4744  0.2966
 5828TIP3    H241680   3.153   2.544   1.479  2.5973  1.3269 -0.9450
 5829TIP3   OH241681   0.683   2.629   8.230  0.6016 -0.4271 -0.1110
 5829TIP3    H141682   0.690   2.696   8.163 -1.8115  3.1501  2.8035
 5829TIP3    H241683   0.773   2.616   8.260  1.1816  1.5310 -0.8262
 5830TIP3   OH241684   5.927   6.858   7.622  0.2247 -0.1297 -0.8425
 5830TIP3    H141685   5.868   6.821   7.687 -1.1575 -1.1568 -2.5926
 5830TIP3    H241686   6.015   6.831   7.650 -0.2580  0.0241  0.9140
 5831TIP3   OH241687   5.052   6.197   8.834 -0.1728  0.3003 -0.3352
 5831TIP3    H141688   5.081   6.262   8.771  3.9718 -0.1816  0.7899
 5831TIP3    H241689   5.023   6.123   8.781  0.1390  1.1026 -1.6548
 5832TIP3   OH241690   0.983   3.956   8.710 -0.6492  0.0137 -0.3751
 5832TIP3    H141691   0.905   3.933   8.760 -0.9220  2.4501  0.4836
 5832TIP3    H241692   1.052   3.900   8.745 -1.7893 -1.4877 -0.4657
 5833TIP3   OH241693   0.999   2.159   9.506 -0.4562 -0.2885  0.0914
 5833TIP3    H141694   0.988   2.146   9.412 -1.3205 -0.7684  0.2495
 5833TIP3    H241695   1.000   2.071   9.543  1.3681 -0.1812  0.3985
 5834TIP3   OH241696   2.698   1.465   8.930  0.3814  0.3386 -0.0359
 5834TIP3    H141697   2.637   1.436   8.998  0.0647 -0.5528 -0.6887
 5834TIP3    H241698   2.714   1.557   8.951  0.7013 -0.0512  1.5420
 5835TIP3   OH241699   2.969   5.841   9.666  0.5894  0.1073 -0.4012
 5835TIP3    H141700   2.985   5.892   9.745  0.5606  1.1021 -1.0289
 5835TIP3    H241701   3.045   5.783   9.659  1.4773  1.2750 -0.6233
 5836TIP3   OH241702   0.719   7.621   7.656 -0.4420  0.4157 -0.1080
 5836TIP3    H141703   0.762   7.688   7.603  0.2470  0.5620  0.6304
 5836TIP3    H241704   0.672   7.670   7.723  1.4622  0.1544  1.5097
 5837TIP3   OH241705   6.973   2.599   9.718  0.1443  0.1882  0.0260
 5837TIP3    H141706   6.954   2.674   9.662  0.1852  1.1460  1.2389
 5837TIP3    H241707   6.900   2.539   9.704  0.2150  0.3577 -1.1114
 5838TIP3   OH241708   3.396   6.605   1.824 -0.1750  0.3851  0.2060
 5838TIP3    H141709   3.474   6.620   1.770 -0.7720  0.9849 -0.5050
 5838TIP3    H241710   3.378   6.690   1.864 -3.3905  1.7429 -3.5811
 5839TIP3   OH241711   2.585   3.085   9.879 -0.2801  0.6544  0.0853
 5839TIP3    H141712   2.596   3.105   9.786 -0.7535 -0.0152 -0.1238
 5839TIP3    H241713   2.513   3.023   9.882  0.2856  0.0092  0.8271
 5840TIP3   OH241714   5.498   5.853   7.862  0.0876 -0.2091 -0.1804
 5840TIP3    H141715   5.484   5.760   7.847  0.0482 -0.1593 -0.4577
 5840TIP3    H241716   5.588   5.869   7.835  0.2910 -0.2876  0.4464
 5841TIP3   OH241717   7.642   4.434   7.952  0.1773 -0.0128  0.8109
 5841TIP3    H141718   7.672   4.469   7.868 -1.1159  0.9429  0.7191
 5841TIP3    H241719   7.722   4.408   7.997  1.0021  0.8176 -0.1214
 5842TIP3   OH241720   6.820   1.675   1.885  0.0432  0.5964  0.4593
 5842TIP3    H141721   6.884   1.638   1.824 -0.5892  0.4215 -0.1155
 5842TIP3    H241722   6.766   1.733   1.830 -1.6109 -0.8452  0.4494
 5843TIP3   OH241723   6.445   3.502   8.890 -0.1997 -0.0351 -0.1547
 5843TIP3    H141724   6.430   3.459   8.805 -2.6827  0.6557 -0.1521
 5843TIP3    H241725   6.500   3.577   8.869  0.2857 -0.5889 -0.9322
 5844TIP3   OH241726   6.120   6.059   0.195  0.0700  0.0232 -0.1687
 5844TIP3    H141727   6.051   6.040   0.259  0.0559 -1.6928 -0.6354
 5844TIP3    H241728   6.201   6.033   0.238  0.1247 -0.5236 -0.5833
 5845TIP3   OH241729   3.166   3.792   7.484  0.2620  0.1505  0.2000
 5845TIP3    H141730   3.088   3.801   7.429  0.2226  0.3148  0.2810
 5845TIP3    H241731   3.180   3.880   7.520  0.9047  0.2964 -0.3848
 5846TIP3   OH241732   5.535   0.313   9.237  0.1036  0.0168  0.2659
 5846TIP3    H141733   5.565   0.222   9.240  1.2498  0.4024  2.2320
 5846TIP3    H241734   5.611   0.362   9.207 -0.4578  0.3762 -0.6178
 5847TIP3   OH241735   1.838   2.033   0.217  0.1023  0.2246 -0.3284
 5847TIP3    H141736   1.771   2.094   0.249 -0.1071 -0.3350  0.3448
 5847TIP3    H241737   1.827   2.034   0.122 -2.7239 -1.8267 -0.1726
 5848TIP3   OH241738   1.191   4.648   7.590  0.3043 -0.5555 -0.5248
 5848TIP3    H141739   1.169   4.596   7.513 -1.3564  1.4629 -1.5149
 5848TIP3    H241740   1.182   4.588   7.664  1.2847 -2.3663 -1.8074
 5849TIP3   OH241741   6.147   7.062   7.890  0.3281  0.4018 -0.1303
 5849TIP3    H141742   6.101   6.992   7.936 -0.1158  0.3167 -0.7060
 5849TIP3    H241743   6.214   7.017   7.838 -0.0984  0.3882 -0.6681
 5850TIP3   OH241744   2.479   0.362   2.264  0.4094 -0.3777  0.0463
 5850TIP3    H141745   2.562   0.331   2.229  1.1021 -0.6080  1.7869
 5850TIP3    H241746   2.503   0.422   2.335 -0.9138  2.4470 -1.7150
 5851TIP3   OH241747   0.820   6.141   9.819  0.5497  0.5410  0.0232
 5851TIP3    H141748   0.772   6.058   9.813  1.8705 -0.2174 -0.4463
 5851TIP3    H241749   0.793   6.190   9.741 -1.3847  1.2326  1.0586
 5852TIP3   OH241750   0.678   4.156   0.599  0.0494 -0.0035  0.0688
 5852TIP3    H141751   0.761   4.197   0.623  0.1434 -0.1805  0.0488
 5852TIP3    H241752   0.699   4.101   0.524 -0.3084  0.7928 -0.6326
 5853TIP3   OH241753   5.690   5.844   0.170  0.1230 -0.4949  0.6416
 5853TIP3    H141754   5.761   5.787   0.142  1.2453  0.8252  0.6751
 5853TIP3    H241755   5.683   5.910   0.101 -1.3595 -0.8082  0.4428
 5854TIP3   OH241756   3.340   6.270   1.916  0.5772 -0.5990 -0.4327
 5854TIP3    H141757   3.384   6.342   1.872  2.2792 -2.1533 -1.4173
 5854TIP3    H241758   3.298   6.310   1.992 -1.2046  1.9310 -2.5852
 5855TIP3   OH241759   4.923   3.562   0.152  0.2790 -0.2984 -0.5783
 5855TIP3    H141760   4.967   3.530   0.231 -0.6193 -0.6461 -0.2007
 5855TIP3    H241761   4.919   3.656   0.163 -1.1984 -0.4666  0.5432
 5856TIP3   OH241762   1.314   6.007   9.015  0.1483  0.4452 -0.1142
 5856TIP3    H141763   1.291   5.994   9.107 -1.0871  0.0454 -0.4664
 5856TIP3    H241764   1.291   6.098   8.997 -0.3573  0.2992 -0.2280
 5857TIP3   OH241765   7.127   3.781   0.770  0.0236  0.2161  0.2565
 5857TIP3    H141766   7.169   3.799   0.854  0.5340  0.0498  0.0366
 5857TIP3    H241767   7.193   3.804   0.705 -0.6448  1.1070 -0.1312
 5858TIP3   OH241768   3.507   4.861   9.606 -0.1045  0.0918  0.0866
 5858TIP3    H141769   3.502   4.954   9.584  1.2263  0.0897 -0.3005
 5858TIP3    H241770   3.505   4.815   9.522  0.1461 -0.1811  0.2255
 5859TIP3   OH241771   0.836   1.908   0.585 -0.0227  0.9696  0.3333
 5859TIP3    H141772   0.808   1.855   0.660 -2.1352  1.2296 -0.1902
 5859TIP3    H241773   0.906   1.858   0.544 -0.4528 -0.3343  1.1498
 5860TIP3   OH241774   3.370   2.010   9.032  0.4133 -0.3528  0.2391
 5860TIP3    H141775   3.399   1.951   8.962 -1.7220 -3.8089  1.9603
 5860TIP3    H241776   3.421   1.983   9.108 -0.8428 -0.1971  1.1549
 5861TIP3   OH241777   1.929   1.255   9.333 -0.1378 -0.1183 -0.0706
 5861TIP3    H141778   2.017   1.264   9.371  0.1060 -2.6868  0.1138
 5861TIP3    H241779   1.871   1.292   9.399  0.6749  0.3092  0.4273
 5862TIP3   OH241780   3.943   2.880   9.823 -0.1346  0.1086  0.5841
 5862TIP3    H141781   3.908   2.832   9.898  1.6001 -3.1764 -0.5390
 5862TIP3    H241782   3.931   2.821   9.748  0.9020  2.0137 -1.2041
 5863TIP3   OH241783   0.044   1.286   8.480 -0.3294  0.4541  0.2523
 5863TIP3    H141784   0.029   1.323   8.393 -0.6793 -1.5110 -0.5904
 5863TIP3    H241785  -0.028   1.319   8.534  0.3856  2.4087  0.0738
 5864TIP3   OH241786   6.191   1.118   9.532 -0.4370 -0.1023  0.5142
 5864TIP3    H141787   6.234   1.080   9.455 -1.5173 -0.4605  0.0676
 5864TIP3    H241788   6.238   1.199   9.548 -0.6985  0.3897 -1.0246
 5865TIP3   OH241789   0.497   2.242   9.422 -0.3812  0.3706 -0.3846
 5865TIP3    H141790   0.530   2.282   9.503  0.9641 -1.8603  0.2488
 5865TIP3    H241791   0.572   2.195   9.386 -2.0508 -2.4094 -0.5231
 5866TIP3   OH241792   0.160   6.692   8.388 -0.0232 -0.1096  0.0103
 5866TIP3    H141793   0.168   6.785   8.367  2.7065 -0.3594 -0.3789
 5866TIP3    H241794   0.190   6.685   8.479 -1.8497 -0.4411  0.6374
 5867TIP3   OH241795   2.302   6.409   9.050 -1.0382  0.0827 -0.1675
 5867TIP3    H141796   2.330   6.426   8.960  0.0467 -0.1799  0.1143
 5867TIP3    H241797   2.367   6.453   9.104 -0.1040 -2.0383  0.5340
 5868TIP3   OH241798   7.059   2.750   2.481  0.3068  0.1174 -0.2968
 5868TIP3    H141799   7.044   2.667   2.525 -0.5921 -0.2651 -1.3006
 5868TIP3    H241800   6.985   2.760   2.422  0.1952  1.8193  0.0755
 5869TIP3   OH241801   2.972   3.241   0.289  0.0682  0.0906 -0.4027
 5869TIP3    H141802   2.938   3.294   0.217 -1.1216 -1.1263 -0.7775
 5869TIP3    H241803   3.058   3.211   0.259  0.4844  1.2620 -0.4338
 5870TIP3   OH241804   2.259   1.268   0.343  0.3737  0.4761 -0.0453
 5870TIP3    H141805   2.323   1.285   0.274 -0.5640 -1.5946 -1.5123
 5870TIP3    H241806   2.174   1.282   0.301 -0.3091 -2.9607 -0.1193
 5871TIP3   OH241807   3.288   1.034   2.254 -0.5748 -0.1173  0.0479
 5871TIP3    H141808   3.354   1.044   2.323 -0.4414 -1.9967  0.2413
 5871TIP3    H241809   3.205   1.024   2.301 -0.6935  0.0546 -0.1216
 5872TIP3   OH241810   0.895   5.608   1.799  0.3489  0.2017  0.0193
 5872TIP3    H141811   0.923   5.694   1.830 -0.8338  1.5538 -2.3694
 5872TIP3    H241812   0.972   5.552   1.809  2.0020  2.2268 -0.7728
 5873TIP3   OH241813   7.514   5.161   2.556  0.3272  0.4628 -0.9387
 5873TIP3    H141814   7.601   5.127   2.578  0.4464  1.6908  0.6374
 5873TIP3    H241815   7.475   5.185   2.640 -0.1013  3.2967 -1.8636
 5874TIP3   OH241816   2.852   0.592   2.794 -0.0875  0.7513 -0.1507
 5874TIP3    H141817   2.783   0.619   2.854 -0.4343 -2.7917  1.2778
 5874TIP3    H241818   2.914   0.543   2.849  1.1839 -0.0458 -2.1872
 5875TIP3   OH241819   0.639   7.296   8.018 -0.0743  0.3058 -0.0452
 5875TIP3    H141820   0.720   7.304   8.068  0.2499  1.9974 -0.8070
 5875TIP3    H241821   0.570   7.293   8.085  0.5940 -1.8164  0.6404
 5876TIP3   OH241822   2.996   2.193   9.847  0.4934 -0.8461  0.4999
 5876TIP3    H141823   3.015   2.253   9.920  0.7950 -1.5929  1.0482
 5876TIP3    H241824   2.918   2.145   9.876 -0.7063  0.3321 -0.6019
 5877TIP3   OH241825   5.283   6.733   0.492  0.3664  0.1960  0.0917
 5877TIP3    H141826   5.219   6.768   0.431  1.6813 -0.2812 -1.6456
 5877TIP3    H241827   5.253   6.644   0.511 -0.8776  0.8675  1.4136
 5878TIP3   OH241828   0.553   1.630   7.430  0.4919  0.4968  0.3030
 5878TIP3    H141829   0.573   1.537   7.420  0.0170  0.5308 -1.2217
 5878TIP3    H241830   0.639   1.672   7.439  0.8497  0.1199 -1.1391
 5879TIP3   OH241831   7.046   1.903   8.986  0.0901 -0.0454 -0.7477
 5879TIP3    H141832   7.001   1.825   8.953 -1.8929  0.7213 -0.0478
 5879TIP3    H241833   6.982   1.973   8.976  0.7257  0.9174  1.3184
 5880TIP3   OH241834   6.238   6.644   6.718 -1.3049 -0.0519  0.0278
 5880TIP3    H141835   6.155   6.674   6.680 -0.6299  0.9803 -0.6508
 5880TIP3    H241836   6.305   6.693   6.672 -0.3547 -0.1126  1.2997
 5881TIP3   OH241837   1.546   7.241   0.723  0.3500 -0.0411  0.5125
 5881TIP3    H141838   1.570   7.150   0.741 -0.6383 -0.0264  2.1434
 5881TIP3    H241839   1.535   7.245   0.628 -1.1491 -2.0648  0.5316
 5882TIP3   OH241840   0.412   2.342   0.681  0.1126  0.0397  0.3281
 5882TIP3    H141841   0.332   2.354   0.631  0.3551  0.2025 -0.0214
 5882TIP3    H241842   0.483   2.360   0.619  0.4320 -0.7092  0.4733
 5883TIP3   OH241843   5.841   1.041   8.611 -0.2895 -0.5226 -0.1774
 5883TIP3    H141844   5.840   1.109   8.679 -1.8025 -0.4394 -0.2499
 5883TIP3    H241845   5.925   0.996   8.622  0.3532  0.7867  0.4403
 5884TIP3   OH241846   6.716   5.979   0.434 -0.2084 -0.0059  0.2820
 5884TIP3    H141847   6.742   5.982   0.342 -1.2310 -2.2925 -0.1501
 5884TIP3    H241848   6.712   6.070   0.461  1.2538  0.6734 -1.6005
 5885TIP3   OH241849   7.162   7.406   2.075  0.0400  0.3707  0.4412
 5885TIP3    H141850   7.188   7.498   2.086 -0.3570  0.2876  2.6643
 5885TIP3    H241851   7.215   7.359   2.140 -0.7559 -0.7604  0.2935
 5886TIP3   OH241852   2.032   5.176   1.445 -1.0381  0.0501 -0.0520
 5886TIP3    H141853   2.031   5.250   1.384  0.1769  1.3959  1.4674
 5886TIP3    H241854   2.017   5.215   1.531  0.0495 -1.3934  0.8507
 5887TIP3   OH241855   1.666   0.784   0.501  0.3125 -0.6538 -0.2873
 5887TIP3    H141856   1.748   0.800   0.547  0.0606 -1.1942  0.3596
 5887TIP3    H241857   1.674   0.834   0.419  1.6368 -1.4141 -0.6421
 5888TIP3   OH241858   1.872   6.025   0.470  0.2853 -0.0786  0.0872
 5888TIP3    H141859   1.938   6.087   0.440  0.7534 -0.8090 -0.4382
 5888TIP3    H241860   1.800   6.035   0.407  0.2104  0.1687  0.2091
 5889TIP3   OH241861   0.544   1.627   2.170 -0.0015  0.4535  0.2371
 5889TIP3    H141862   0.463   1.631   2.222 -0.4227  0.1235 -0.3822
 5889TIP3    H241863   0.514   1.607   2.081  0.9092 -1.8486  0.3882
 5890TIP3   OH241864   1.155   1.709   7.458  0.0229 -0.1364  0.1750
 5890TIP3    H141865   1.100   1.781   7.488  1.8888  0.8487  1.3701
 5890TIP3    H241866   1.119   1.686   7.372 -1.8210  0.8717  0.6197
 5891TIP3   OH241867   5.543   7.191   8.546  0.3498  0.3615  0.2722
 5891TIP3    H141868   5.485   7.127   8.504  1.7926 -0.7834 -0.0752
 5891TIP3    H241869   5.555   7.259   8.480 -0.0652  0.2788  0.1068
 5892TIP3   OH241870   6.781   6.219   9.233 -0.2539  0.4515  0.3066
 5892TIP3    H141871   6.792   6.312   9.211  0.2050  1.0000  2.6240
 5892TIP3    H241872   6.689   6.202   9.215 -0.4430  1.4717  0.2138
 5893TIP3   OH241873   7.268   0.098   2.340  0.0382  0.0006  0.0836
 5893TIP3    H141874   7.197   0.162   2.341 -0.0371 -0.0934  0.8020
 5893TIP3    H241875   7.343   0.146   2.375 -0.2966 -0.6214  1.7128
 5894TIP3   OH241876   5.007   4.145   8.349 -0.8405  0.4254 -0.6437
 5894TIP3    H141877   4.934   4.206   8.343 -0.9726  0.5046  1.1741
 5894TIP3    H241878   4.966   4.059   8.348 -0.7111  0.3519 -2.4375
 5895TIP3   OH241879   6.919   7.361   8.760 -0.2315 -0.3710 -0.3278
 5895TIP3    H141880   6.904   7.290   8.698  0.3549 -0.5251 -0.3012
 5895TIP3    H241881   6.918   7.319   8.846 -2.9671  0.1223 -0.0367
 5896TIP3   OH241882   6.839   0.508   1.488 -0.4322 -0.1062 -0.0722
 5896TIP3    H141883   6.903   0.515   1.558 -1.7016  0.6524  1.0566
 5896TIP3    H241884   6.812   0.598   1.469 -0.2485 -0.3067 -1.4239
 5897TIP3   OH241885   3.471   2.417  -0.005 -0.3177  0.4865  0.1181
 5897TIP3    H141886   3.440   2.367   0.070  1.3610 -1.1421 -0.2160
 5897TIP3    H241887   3.554   2.456   0.024  0.4158 -0.2664 -0.8798
 5898TIP3   OH241888   6.607   1.496   2.534 -0.1356  0.4725  0.7764
 5898TIP3    H141889   6.515   1.470   2.535  0.0605 -0.5130 -1.1458
 5898TIP3    H241890   6.651   1.430   2.586 -0.4161  0.4701  1.0133
 5899TIP3   OH241891   2.525   4.671   9.296 -0.4764  0.0269 -0.2800
 5899TIP3    H141892   2.577   4.677   9.376  0.7459 -0.0480 -1.0437
 5899TIP3    H241893   2.505   4.577   9.287 -0.9730  0.0866  0.1430
 5900TIP3   OH241894   6.528   6.450   9.090 -0.2995 -0.0737 -0.2449
 5900TIP3    H141895   6.501   6.369   9.133  0.2968  0.6530  1.5931
 5900TIP3    H241896   6.608   6.476   9.135 -1.7190  2.7675  0.8901
 5901TIP3   OH241897   1.083   4.088   7.207  0.2289  0.7207 -0.0033
 5901TIP3    H141898   1.008   4.077   7.265 -1.0619 -0.0853 -1.7223
 5901TIP3    H241899   1.124   4.002   7.203 -0.2496  0.5278 -0.9856
 5902TIP3   OH241900   1.205   6.814  -0.052  0.1755  0.1445  0.2008
 5902TIP3    H141901   1.234   6.784  -0.138 -1.1606  0.0877 -0.2572
 5902TIP3    H241902   1.113   6.789  -0.048 -0.0932  1.2073  1.1630
 5903TIP3   OH241903   1.530   3.457   2.622  0.3764  0.2787 -0.8431
 5903TIP3    H141904   1.464   3.456   2.691  0.8935  2.6695 -0.1916
 5903TIP3    H241905   1.571   3.371   2.627 -0.5490 -0.1171  0.9015
 5904TIP3   OH241906   1.585   4.442   1.178 -0.0291  0.5660  0.1220
 5904TIP3    H141907   1.621   4.369   1.229 -0.6510 -0.3102 -0.6469
 5904TIP3    H241908   1.541   4.497   1.242  2.9963  1.9320  1.1722
 5905TIP3   OH241909   2.704   1.012   1.081  0.2914  0.3626 -0.6059
 5905TIP3    H141910   2.768   0.942   1.096  1.0061  1.0554 -0.3832
 5905TIP3    H241911   2.619   0.967   1.081  0.6144 -0.3142  0.9323
 5906TIP3   OH241912   2.269   7.555   6.619 -0.2640  0.9288  0.5654
 5906TIP3    H141913   2.334   7.532   6.552 -0.5800  0.2979  0.4665
 5906TIP3    H241914   2.225   7.472   6.639 -0.7848  1.2810  0.9015
 5907TIP3   OH241915   5.881   3.467   1.008 -0.0814  0.0604 -0.1622
 5907TIP3    H141916   5.792   3.431   1.006  0.2857 -0.8904  0.1411
 5907TIP3    H241917   5.938   3.390   1.016  0.8098  0.6087 -1.0210
 5908TIP3   OH241918   6.335   2.347   0.427 -0.1985  0.0002 -0.1931
 5908TIP3    H141919   6.352   2.256   0.403  5.0831  0.4994  0.5503
 5908TIP3    H241920   6.310   2.389   0.344  1.6535 -1.3619 -1.5253
 5909TIP3   OH241921   3.384   1.393   9.305  0.3417 -0.0397  0.1536
 5909TIP3    H141922   3.429   1.458   9.359 -0.3425 -0.0599  0.7576
 5909TIP3    H241923   3.428   1.310   9.326 -0.3630 -0.1612  1.2066
 5910TIP3   OH241924   1.275   3.147   7.696 -0.1328  0.0085  0.2483
 5910TIP3    H141925   1.212   3.211   7.729  0.4265  1.2485 -0.9847
 5910TIP3    H241926   1.225   3.093   7.636 -0.1104  0.8539 -0.5630
 5911TIP3   OH241927   4.248   2.040   7.271 -0.0340  0.0803 -0.3256
 5911TIP3    H141928   4.338   2.035   7.239 -0.4398  2.8259 -2.2487
 5911TIP3    H241929   4.202   1.968   7.228  1.0734 -1.0179  0.2677
 5912TIP3   OH241930   1.692   1.075   7.719 -0.0190  0.2584 -0.7690
 5912TIP3    H141931   1.694   0.987   7.682  1.4675 -0.0401 -0.0625
 5912TIP3    H241932   1.616   1.116   7.679 -1.1799 -1.5774 -0.5804
 5913TIP3   OH241933   2.260   4.531   7.822 -0.3251 -0.2399 -0.2518
 5913TIP3    H141934   2.331   4.546   7.885 -0.3023  0.3326 -0.4082
 5913TIP3    H241935   2.299   4.475   7.756 -0.3411 -0.8262  0.2283
 5914TIP3   OH241936   2.647   6.367   2.368 -0.0988 -0.6621 -0.1534
 5914TIP3    H141937   2.594   6.318   2.306 -0.1458  0.8893 -1.4022
 5914TIP3    H241938   2.604   6.452   2.375  0.4570 -0.4789  1.2666
 5915TIP3   OH241939   7.427   7.035   1.341 -0.4369 -0.5885 -0.5892
 5915TIP3    H141940   7.395   7.124   1.357 -0.2704 -0.5185 -0.6439
 5915TIP3    H241941   7.353   6.990   1.302 -0.4013 -0.3606 -0.9273
 5916TIP3   OH241942   2.617   6.275   0.545  0.4253 -0.1614  0.1642
 5916TIP3    H141943   2.541   6.328   0.520  0.1932 -0.6931 -0.2528
 5916TIP3    H241944   2.692   6.333   0.528  0.0849  0.6605  1.3367
 5917TIP3   OH241945   5.225   2.321   2.571  0.2656  0.0367  0.8058
 5917TIP3    H141946   5.228   2.257   2.642 -0.9088  0.7479  1.5136
 5917TIP3    H241947   5.311   2.364   2.575  0.6517 -0.7192  1.0173
 5918TIP3   OH241948   0.526   4.448   1.622 -0.3729  0.6059 -0.2660
 5918TIP3    H141949   0.588   4.390   1.665 -0.6321  0.7911  0.3718
 5918TIP3    H241950   0.513   4.520   1.684 -1.3526  0.4858 -0.3130
 5919TIP3   OH241951   0.026   2.521   2.638  0.3007  0.8311 -0.7486
 5919TIP3    H141952   0.070   2.494   2.719  2.9121 -0.5918 -2.5045
 5919TIP3    H241953   0.074   2.599   2.609 -1.3827  2.0668 -0.4219
 5920TIP3   OH241954   7.624   0.311   0.767  0.2133  0.2376  0.0233
 5920TIP3    H141955   7.539   0.352   0.746 -1.2801 -1.6601  1.9515
 5920TIP3    H241956   7.688   0.379   0.747 -1.9268  2.7018  0.8712
 5921TIP3   OH241957   2.141   5.139   0.782  0.1049 -0.1452 -0.0945
 5921TIP3    H141958   2.178   5.077   0.720 -1.1932 -1.9070  0.8186
 5921TIP3    H241959   2.177   5.224   0.755  1.7495 -1.2262 -1.5139
 5922TIP3   OH241960   2.665   3.637   0.415  0.7625 -0.7643 -0.3463
 5922TIP3    H141961   2.710   3.659   0.497  1.6214  1.9002 -1.4155
 5922TIP3    H241962   2.733   3.640   0.348 -0.4330  0.3249 -1.5848
 5923TIP3   OH241963   0.627   4.141   2.242 -0.2671  0.3188  0.0624
 5923TIP3    H141964   0.715   4.138   2.205  0.6091  1.2242  1.9346
 5923TIP3    H241965   0.579   4.072   2.196  2.0137 -1.6299  0.4455
 5924TIP3   OH241966   6.380   0.576   8.866 -0.0419  0.0205 -0.3205
 5924TIP3    H141967   6.424   0.516   8.927 -1.3433  0.2285  0.8640
 5924TIP3    H241968   6.311   0.523   8.826 -1.2648  0.7124  0.8050
 5925TIP3   OH241969   7.185   2.441   8.467  0.0902  0.1406  0.6084
 5925TIP3    H141970   7.182   2.373   8.534  1.1426 -0.2767  0.2476
 5925TIP3    H241971   7.215   2.396   8.388 -0.6267  0.7305 -0.0170
 5926TIP3   OH241972   5.625   1.493   2.582  0.0087 -0.2185 -0.5405
 5926TIP3    H141973   5.677   1.572   2.601  0.4580 -0.4970 -0.5941
 5926TIP3    H241974   5.598   1.461   2.668  1.1366 -0.8733 -0.4023
 5927TIP3   OH241975   0.787   2.540   0.054  0.7783  0.4057 -0.3524
 5927TIP3    H141976   0.859   2.601   0.037  0.6662  0.4783 -0.5739
 5927TIP3    H241977   0.760   2.510  -0.033 -0.3921  1.4640 -0.3975
 5928TIP3   OH241978   6.667   2.199   0.700 -0.6260 -0.1020  0.5821
 5928TIP3    H141979   6.574   2.177   0.687 -0.7543 -1.0901  2.6423
 5928TIP3    H241980   6.701   2.212   0.612 -2.6348 -0.0920 -0.2628
 5929TIP3   OH241981   4.575   1.891   8.151  0.6905 -0.0902 -0.0944
 5929TIP3    H141982   4.643   1.923   8.092  1.2995  0.3117  0.7842
 5929TIP3    H241983   4.575   1.955   8.223 -1.1207  0.3217 -0.4127
 5930TIP3   OH241984   5.453   3.780   0.351 -0.1451  0.2041  0.2626
 5930TIP3    H141985   5.534   3.758   0.395 -1.8282 -1.5629  2.7523
 5930TIP3    H241986   5.454   3.876   0.346  3.1267  0.2070 -2.1846
 5931TIP3   OH241987   4.612   7.358   1.979  0.1647 -0.0971 -0.1244
 5931TIP3    H141988   4.689   7.384   1.928 -1.4363  2.0245 -1.6407
 5931TIP3    H241989   4.638   7.276   2.021  3.3688  0.7076 -0.2358
 5932TIP3   OH241990   4.831   7.252   1.550 -0.0751 -0.2137  1.2877
 5932TIP3    H141991   4.790   7.175   1.589 -0.1813 -0.3822  0.8500
 5932TIP3    H241992   4.838   7.231   1.457  0.1766  0.1822  1.2145
 5933TIP3   OH241993   6.219   6.341   6.776 -0.2971  0.5696  0.2626
 5933TIP3    H141994   6.221   6.430   6.742 -2.7811  1.4000  1.9716
 5933TIP3    H241995   6.127   6.315   6.769  0.4667 -2.1816 -0.8439
 5934TIP3   OH241996   5.914   2.670   1.268  0.4248  0.1444  0.1587
 5934TIP3    H141997   5.977   2.742   1.267 -0.4452  0.9485 -1.1044
 5934TIP3    H241998   5.870   2.678   1.353 -0.3536  1.7864 -0.3478
 5935TIP3   OH241999   3.845   3.164   0.192 -0.1417  0.2529  0.0086
 5935TIP3    H142000   3.792   3.226   0.243 -1.4061 -1.3136  0.6734
 5935TIP3    H242001   3.882   3.105   0.257  3.1634  1.7288 -0.3565
 5936TIP3   OH242002   3.874   7.275   8.180  0.2343  0.0614 -0.0879
 5936TIP3    H142003   3.912   7.351   8.223 -1.3396  1.4723 -1.0452
 5936TIP3    H242004   3.944   7.239   8.126  1.5571 -0.3709  1.8171
 5937TIP3   OH242005   4.872   2.340   0.936 -0.5258 -0.1020 -0.0532
 5937TIP3    H142006   4.870   2.247   0.958  0.1727  0.0353  0.6390
 5937TIP3    H242007   4.848   2.385   1.017 -1.3157  0.3183 -0.5065
 5938TIP3   OH242008   5.846   1.404   2.847  0.4093 -0.6015  0.1161
 5938TIP3    H142009   5.886   1.446   2.923  0.9326 -2.2677  0.8074
 5938TIP3    H242010   5.752   1.406   2.864  0.1676  2.1876 -0.9171
 5939TIP3   OH242011   7.579   4.788   2.023  0.2254  0.1181  0.2119
 5939TIP3    H142012   7.536   4.745   1.949 -0.2022  0.6135  0.1648
 5939TIP3    H242013   7.601   4.717   2.083  1.1416 -0.3677 -0.6620
 5940TIP3   OH242014   5.069   3.035   1.139  0.1296  0.2875 -0.0258
 5940TIP3    H142015   4.997   3.055   1.200 -0.0212  1.3668 -0.5471
 5940TIP3    H242016   5.032   3.051   1.052  0.1540 -1.8257 -0.4796
 5941TIP3   OH242017   7.628   6.368   7.632  0.7232 -0.1773  0.6855
 5941TIP3    H142018   7.547   6.403   7.594  0.8901 -0.0051  0.4866
 5941TIP3    H242019   7.644   6.422   7.709  1.2204  0.4815  0.1327
 5942TIP3   OH242020   2.023   0.449   9.723 -0.4208  0.2130  0.8700
 5942TIP3    H142021   1.980   0.394   9.657  0.8233 -0.7826  0.8616
 5942TIP3    H242022   2.040   0.532   9.678 -0.3102 -0.1727  0.1916
 5943TIP3   OH242023   7.528   3.454   9.961 -0.4584  0.0748 -0.4974
 5943TIP3    H142024   7.477   3.504   9.897 -1.9281  1.1677  1.4045
 5943TIP3    H242025   7.462   3.411  10.015  0.6128  0.7668  1.4745
 5944TIP3   OH242026   2.649   3.937   8.794  0.1048  0.1047  0.3846
 5944TIP3    H142027   2.727   3.921   8.740  1.4080  0.5149  2.0707
 5944TIP3    H242028   2.599   3.856   8.788  1.4763 -0.7842  0.5652
 5945TIP3   OH242029   0.760   4.060   0.940 -0.2825  0.6968 -0.6927
 5945TIP3    H142030   0.792   3.995   1.003 -1.1226  2.3913  1.6165
 5945TIP3    H242031   0.790   4.028   0.855 -0.1065 -2.3339  0.4015
 5946TIP3   OH242032   2.230   1.073   9.983  0.3066  0.5025  0.5157
 5946TIP3    H142033   2.243   1.055  10.076 -0.4695  1.2106  0.7693
 5946TIP3    H242034   2.318   1.066   9.945  0.3295 -1.9586  0.8900
 5947TIP3   OH242035   6.988   2.948   0.204  0.0156 -0.3904  0.4733
 5947TIP3    H142036   7.023   2.860   0.214  0.1256 -0.7659 -2.4052
 5947TIP3    H242037   6.897   2.942   0.233  1.0254 -0.3559  4.1876
 5948TIP3   OH242038   1.292   7.031   2.019  0.7228 -0.1968 -0.2286
 5948TIP3    H142039   1.219   7.085   2.050 -0.0033  0.1833 -2.4473
 5948TIP3    H242040   1.256   6.980   1.947  1.7608 -2.7059  0.9073
 5949TIP3   OH242041   6.378   7.044   7.738 -0.0996 -0.2996 -0.6272
 5949TIP3    H142042   6.440   6.979   7.705 -0.1870 -0.9387  0.4441
 5949TIP3    H242043   6.431   7.123   7.750  0.7749 -1.0948  1.1890
 5950TIP3   OH242044   5.483   1.799   0.468 -0.3027 -0.2510  0.2157
 5950TIP3    H142045   5.487   1.856   0.545 -1.6777 -0.7134  0.6808
 5950TIP3    H242046   5.415   1.838   0.413  0.2254 -0.2837 -0.4663
 5951TIP3   OH242047   6.228   2.952   0.886 -0.1891 -0.7871 -0.2733
 5951TIP3    H142048   6.181   2.881   0.929 -1.2396  0.0934  0.0925
 5951TIP3    H242049   6.317   2.920   0.877 -0.4514 -1.8298  0.6222
 5952TIP3   OH242050   3.186   4.969   6.915  0.2850  0.2264  0.0120
 5952TIP3    H142051   3.104   4.921   6.898  1.0246 -1.7078  1.4939
 5952TIP3    H242052   3.247   4.937   6.849  0.3864  0.1648  0.1341
 5953TIP3   OH242053   1.606   4.209   8.799  0.0282  0.0750  0.1557
 5953TIP3    H142054   1.572   4.292   8.763 -0.4290 -0.5013 -0.7853
 5953TIP3    H242055   1.693   4.231   8.831 -0.2480  1.0207  0.3060
 5954TIP3   OH242056   2.622   5.244   9.730  0.1237  0.2155  0.3401
 5954TIP3    H142057   2.617   5.333   9.695 -0.2396  0.3168  0.6426
 5954TIP3    H242058   2.590   5.251   9.820 -0.9781 -0.4007  0.0278
 5955TIP3   OH242059   0.446   4.361   0.495 -0.2848  0.6689 -0.6128
 5955TIP3    H142060   0.407   4.409   0.567  0.6460  0.1984  0.2327
 5955TIP3    H242061   0.513   4.306   0.536 -0.4372 -0.3833 -1.7042
 5956TIP3   OH242062   6.534   6.773   1.185  0.2580  0.1907  0.0117
 5956TIP3    H142063   6.569   6.767   1.274  0.8783  1.2635 -0.1383
 5956TIP3    H242064   6.456   6.828   1.194  0.4679  0.5175 -0.1360
 5957TIP3   OH242065   5.921   5.853   7.186  0.7595  0.1956  0.4410
 5957TIP3    H142066   5.882   5.923   7.132  2.1140 -0.3799 -1.3480
 5957TIP3    H242067   5.886   5.772   7.149 -1.3844 -0.1945  2.9577
 5958TIP3   OH242068   7.496   5.577   0.763 -0.5255  0.2178 -0.1102
 5958TIP3    H142069   7.526   5.627   0.839 -1.1097  0.7874 -0.2490
 5958TIP3    H242070   7.572   5.524   0.738 -0.0245  0.7297  0.2882
 5959TIP3   OH242071   3.606   2.949   0.220 -0.0606  0.2771 -0.1755
 5959TIP3    H142072   3.568   2.869   0.257  1.1754  0.6261  2.0594
 5959TIP3    H242073   3.696   2.950   0.254  0.2813  2.0615 -1.0511
 5960TIP3   OH242074   1.086   2.973   9.807  0.1253 -0.7496  0.1024
 5960TIP3    H142075   1.182   2.972   9.813  0.2536 -0.4071 -1.4557
 5960TIP3    H242076   1.059   2.891   9.847  0.9938 -0.4599  1.3679
 5961TIP3   OH242077   3.613   5.804   9.698  0.0168 -0.4200  0.9080
 5961TIP3    H142078   3.582   5.862   9.629 -0.0862 -1.2632  0.2278
 5961TIP3    H242079   3.547   5.812   9.767 -0.6578 -0.6622  0.3039
 5962TIP3   OH242080   4.481   5.583   8.030 -0.3691 -0.1975 -0.0449
 5962TIP3    H142081   4.524   5.603   7.947 -0.6155  1.4524  0.2005
 5962TIP3    H242082   4.543   5.525   8.075  0.8366  0.7568 -0.4123
 5963TIP3   OH242083   6.728   1.504   8.421 -0.2349  0.0648 -0.2206
 5963TIP3    H142084   6.793   1.482   8.355 -1.4261 -0.3401 -1.3181
 5963TIP3    H242085   6.778   1.537   8.496  1.2554 -1.0836 -0.6805
 5964TIP3   OH242086   0.450   6.078   8.795  0.3382 -0.7826  0.2915
 5964TIP3    H142087   0.399   6.054   8.717 -0.7329  0.9884  0.3989
 5964TIP3    H242088   0.537   6.098   8.761 -0.1094 -0.0443 -0.4607
 5965TIP3   OH242089   4.960   5.511   8.216 -0.4889 -0.1654  0.4418
 5965TIP3    H142090   4.968   5.418   8.239 -0.4018 -0.2357  0.1318
 5965TIP3    H242091   4.910   5.511   8.135 -0.8874  0.0900  0.6883
 5966TIP3   OH242092   0.915   2.291   7.113 -0.6125  0.2398 -0.0658
 5966TIP3    H142093   0.973   2.331   7.047 -1.1315  0.9427 -0.1052
 5966TIP3    H242094   0.831   2.283   7.069 -1.0526  1.0343  0.6242
 5967TIP3   OH242095   1.763   1.026   2.603 -0.3636 -0.3496  0.0358
 5967TIP3    H142096   1.723   0.999   2.686 -2.3751  0.2111 -0.7023
 5967TIP3    H242097   1.714   0.978   2.536 -0.8278  1.4737 -0.9945
 5968TIP3   OH242098   1.511   4.818   2.804  0.2653 -0.0166 -0.5434
 5968TIP3    H142099   1.459   4.741   2.830 -0.1574  0.4085 -0.1225
 5968TIP3    H242100   1.578   4.782   2.745  0.6649 -0.8500  0.3863
 5969TIP3   OH242101   5.139   0.562   9.038  0.0508 -0.0723 -0.0874
 5969TIP3    H142102   5.167   0.632   9.097  0.7350 -0.6172  0.2484
 5969TIP3    H242103   5.143   0.483   9.091 -0.7722 -0.3688 -0.4499
 5970TIP3   OH242104   6.892   5.085   9.985  0.0429 -0.6955 -0.6135
 5970TIP3    H142105   6.813   5.112  10.032 -0.5116  0.3220 -2.0399
 5970TIP3    H242106   6.938   5.167   9.967  0.7354 -1.1508 -0.9546
 5971TIP3   OH242107   3.474   6.517   2.102 -0.1963 -0.0934  0.5567
 5971TIP3    H142108   3.561   6.559   2.099  0.3709 -1.3123 -1.9105
 5971TIP3    H242109   3.436   6.535   2.017 -1.1512 -2.0749  0.5269
 5972TIP3   OH242110   1.293   0.195   0.461  0.0421 -0.2582 -0.0310
 5972TIP3    H142111   1.384   0.226   0.464  0.3158 -0.9318 -0.9368
 5972TIP3    H242112   1.253   0.249   0.392 -0.4703  0.5815  0.9034
 5973TIP3   OH242113   3.144   6.558   9.423 -0.6239 -0.4304 -0.3930
 5973TIP3    H142114   3.096   6.476   9.435  2.1303 -2.2778 -0.9454
 5973TIP3    H242115   3.215   6.536   9.363  0.0574  2.4875 -0.8349
 5974TIP3   OH242116   1.735   5.229   9.923  0.2512  0.9011 -0.1781
 5974TIP3    H142117   1.644   5.204   9.938 -0.1344  2.2272 -0.1986
 5974TIP3    H242118   1.781   5.197  10.001  0.2625 -1.9496 -1.2433
 5975TIP3   OH242119   5.032   0.369   9.732  0.1150  0.8074  0.2604
 5975TIP3    H142120   5.039   0.295   9.671  1.6847 -2.2144  3.6989
 5975TIP3    H242121   4.942   0.364   9.765  0.1426  0.5361  0.3013
 5976TIP3   OH242122   6.937   0.013   2.303  0.3426  0.1988 -0.2118
 5976TIP3    H142123   6.982   0.097   2.296 -2.0113  1.4442 -2.0428
 5976TIP3    H242124   6.951  -0.029   2.218 -0.3769 -0.2273 -0.1286
 5977TIP3   OH242125   3.390   1.740   9.209 -0.4784  0.2699  0.3039
 5977TIP3    H142126   3.422   1.682   9.140 -2.5300  0.7212 -1.1252
 5977TIP3    H242127   3.295   1.725   9.211 -0.7167  1.6751  1.7141
 5978TIP3   OH242128   1.243   4.361   2.454 -0.0069 -0.1460  0.0926
 5978TIP3    H142129   1.151   4.336   2.451 -0.4701  1.4924 -0.0537
 5978TIP3    H242130   1.267   4.376   2.362 -0.1416  1.2399  0.2601
 5979TIP3   OH242131   3.587   3.270   8.421 -0.2260  0.4944 -0.3111
 5979TIP3    H142132   3.609   3.238   8.334  0.8742  0.6956 -0.1325
 5979TIP3    H242133   3.507   3.223   8.445 -0.7659  0.7345 -1.5721
 5980TIP3   OH242134   3.025   1.135   8.099 -0.2556 -0.6595  0.1511
 5980TIP3    H142135   3.087   1.177   8.039 -0.4542 -0.1249  0.3149
 5980TIP3    H242136   2.981   1.069   8.046 -0.4678 -0.1514 -0.3004
 5981TIP3   OH242137   2.599   1.079   1.504 -0.1663 -0.0188 -0.1117
 5981TIP3    H142138   2.689   1.057   1.481 -0.1810 -0.2757  0.0691
 5981TIP3    H242139   2.555   1.093   1.420  0.1723  0.6358 -0.1835
 5982TIP3   OH242140   4.191   2.751   9.410  0.0765  0.0667 -0.5314
 5982TIP3    H142141   4.206   2.663   9.376 -0.7004 -0.8988  1.4619
 5982TIP3    H242142   4.263   2.803   9.374  1.4005 -1.7080 -0.6008
 5983TIP3   OH242143   0.319   6.703   2.245 -0.0600 -0.4402  0.2987
 5983TIP3    H142144   0.268   6.687   2.166 -2.1050  0.6129  1.3130
 5983TIP3    H242145   0.318   6.620   2.292  1.4189 -1.1572 -0.8611
 5984TIP3   OH242146   6.065   4.933   8.679  0.1451 -0.1174  0.1984
 5984TIP3    H142147   6.137   4.949   8.739 -0.7056  1.3840  0.8680
 5984TIP3    H242148   5.987   4.962   8.725 -0.8022 -0.8495 -0.8589
 5985TIP3   OH242149   3.753   1.131   9.028  0.3421  0.0912  0.5623
 5985TIP3    H142150   3.722   1.048   9.065  0.6649  0.2427  1.1942
 5985TIP3    H242151   3.807   1.169   9.097  0.3641  0.7339  0.2003
 5986TIP3   OH242152   2.877   1.779   1.746  0.7291  0.0680 -0.1883
 5986TIP3    H142153   2.951   1.734   1.786  1.9660  1.0544 -1.2528
 5986TIP3    H242154   2.823   1.807   1.819 -0.7777 -4.0792  0.5277
 5987TIP3   OH242155   0.294   0.378   0.193  0.3391 -0.3610  0.1082
 5987TIP3    H142156   0.331   0.440   0.131  1.4818  0.5106  1.6021
 5987TIP3    H242157   0.201   0.376   0.172  0.4976  0.8533 -0.8268
 5988TIP3   OH242158   3.066   2.807   9.230  0.5112 -0.1770  0.0862
 5988TIP3    H142159   3.075   2.868   9.302 -0.0397 -0.9175  0.8069
 5988TIP3    H242160   2.973   2.783   9.230  0.5089 -0.2258 -0.8440
 5989TIP3   OH242161   5.180   5.809   9.176 -0.1794 -0.0551 -0.3522
 5989TIP3    H142162   5.181   5.885   9.235 -0.4885  0.7516 -1.3636
 5989TIP3    H242163   5.148   5.737   9.231 -0.3811  0.6576  0.4890
 5990TIP3   OH242164   7.254   0.919   1.271 -0.3338  0.0961  0.0901
 5990TIP3    H142165   7.271   0.925   1.365  1.9834 -0.4520 -0.2285
 5990TIP3    H242166   7.191   0.989   1.254 -1.2370 -0.1477  2.1180
 5991TIP3   OH242167   4.887   0.811   7.230  0.5842  0.5902 -0.0223
 5991TIP3    H142168   4.940   0.742   7.191  1.4422  0.5548  1.1527
 5991TIP3    H242169   4.845   0.854   7.156  0.7157 -0.6284 -0.8345
 5992TIP3   OH242170   6.063   6.657   8.377  0.1594  0.3754 -0.7664
 5992TIP3    H142171   6.055   6.666   8.472 -1.0898 -0.0010 -0.8204
 5992TIP3    H242172   6.151   6.689   8.358  1.0842 -1.0549  0.7195
 5993TIP3   OH242173   1.768   3.170   9.980  0.0073  0.3361 -0.0682
 5993TIP3    H142174   1.732   3.099   9.926  1.6322 -0.7134  0.1623
 5993TIP3    H242175   1.835   3.128  10.033  1.1811  2.0906 -0.0803
 5994TIP3   OH242176   3.515   0.012   8.823  0.4142  0.4909  0.1288
 5994TIP3    H142177   3.475  -0.073   8.804 -1.3155  1.4414 -0.7317
 5994TIP3    H242178   3.557   0.001   8.909 -1.0780 -0.8088  0.7263
 5995TIP3   OH242179   3.686   6.484   1.435 -0.6740 -0.3402  0.0802
 5995TIP3    H142180   3.694   6.498   1.341  1.0878  0.4885  0.3114
 5995TIP3    H242181   3.654   6.394   1.443 -1.0300 -0.3650 -1.2912
 5996TIP3   OH242182   0.459   3.994   1.178  0.5176  0.0054  0.0185
 5996TIP3    H142183   0.432   4.032   1.261  1.6404 -1.3750  1.0658
 5996TIP3    H242184   0.555   3.997   1.180  0.5670  0.2076 -1.3647
 5997TIP3   OH242185   2.667   6.825   0.955  0.2461  0.0200  0.3840
 5997TIP3    H142186   2.643   6.752   1.011 -1.4361 -0.1199 -0.4761
 5997TIP3    H242187   2.683   6.786   0.869  0.8998  0.4763  0.2889
 5998TIP3   OH242188   2.360   7.082   6.735 -0.1480  0.8608 -0.2337
 5998TIP3    H142189   2.313   7.162   6.710  0.4312  1.1869 -0.3174
 5998TIP3    H242190   2.438   7.114   6.779  0.0756  0.3350 -0.2408
 5999TIP3   OH242191   4.995   5.209   8.127  0.6372 -0.0737 -0.5819
 5999TIP3    H142192   4.908   5.191   8.092 -0.0632  1.8219  0.0943
 5999TIP3    H242193   5.049   5.228   8.050 -0.4095  2.1248 -0.8457
 6000TIP3   OH242194   3.188   2.789   8.407 -0.1310 -0.2499  0.4735
 6000TIP3    H142195   3.229   2.850   8.345 -1.2817 -0.5807 -0.6615
 6000TIP3    H242196   3.252   2.718   8.415 -0.5842 -0.9573 -1.5929
 6001TIP3   OH242197   4.444   6.865   9.491 -0.7560 -0.3520  0.4985
 6001TIP3    H142198   4.455   6.777   9.453 -1.3059 -0.3983  0.4310
 6001TIP3    H242199   4.424   6.849   9.583  1.7108 -0.2058  1.1311
 6002TIP3   OH242200   1.098   4.256   2.990 -0.3937 -0.1888  0.5793
 6002TIP3    H142201   1.146   4.174   3.002  0.1031  0.2369  1.5629
 6002TIP3    H242202   1.089   4.292   3.078 -0.5476  0.8533  0.1521
 6003TIP3   OH242203   1.348   7.476   0.170 -0.6964 -0.1781 -0.0174
 6003TIP3    H142204   1.429   7.505   0.129  0.7012 -0.6119  2.2648
 6003TIP3    H242205   1.279   7.526   0.126  0.6937 -0.2584 -2.4455
 6004TIP3   OH242206   1.321   6.001   1.463 -0.5945 -0.4381  0.0304
 6004TIP3    H142207   1.343   6.094   1.450  3.4613 -1.1782  0.0801
 6004TIP3    H242208   1.289   5.971   1.379 -1.0594  0.7814 -0.2488
 6005TIP3   OH242209   7.170   1.571   7.347 -0.7452  0.2399 -0.4247
 6005TIP3    H142210   7.131   1.505   7.404  0.2720 -1.2021 -1.3091
 6005TIP3    H242211   7.245   1.526   7.307  0.7594  2.3281 -0.1198
 6006TIP3   OH242212   0.137   3.810   9.212  0.4548 -0.4843 -0.2093
 6006TIP3    H142213   0.216   3.815   9.267  0.0477 -0.2023  0.3606
 6006TIP3    H242214   0.135   3.893   9.165  0.5877 -0.5620 -0.3542
 6007TIP3   OH242215   6.497   1.893   8.870 -0.1906 -0.1116  0.2879
 6007TIP3    H142216   6.503   1.976   8.919  1.8492 -0.2764  0.4351
 6007TIP3    H242217   6.438   1.839   8.922 -1.7024  1.2811  0.0982
 6008TIP3   OH242218   5.364   6.974   8.752 -0.6247  0.3339 -0.4189
 6008TIP3    H142219   5.316   7.029   8.690  0.1213  0.7514 -0.6295
 6008TIP3    H242220   5.303   6.902   8.772 -1.1523  0.5967 -1.0553
 6009TIP3   OH242221   6.587   2.417   9.465 -0.0604  0.1395  0.7242
 6009TIP3    H142222   6.649   2.344   9.456  0.6203  0.6832  0.9706
 6009TIP3    H242223   6.595   2.465   9.383 -0.5247 -0.0644  0.5547
 6010TIP3   OH242224   0.467   0.397   9.751  0.1924 -0.1366  0.0047
 6010TIP3    H142225   0.523   0.448   9.692 -0.0534 -1.1765 -1.1861
 6010TIP3    H242226   0.491   0.306   9.733 -0.1151 -0.4967  1.3102
 6011TIP3   OH242227   3.990   6.943   0.822 -0.7228 -0.2047  0.4674
 6011TIP3    H142228   3.950   6.866   0.862 -0.5926 -0.3366  0.3422
 6011TIP3    H242229   4.084   6.926   0.825 -0.6270  0.4459  1.4583
 6012TIP3   OH242230   1.481   5.713   9.584 -0.7373  0.0619  0.1522
 6012TIP3    H142231   1.500   5.680   9.497 -0.5900 -1.0388  0.5869
 6012TIP3    H242232   1.545   5.782   9.598  2.7007 -3.0223  1.2970
 6013TIP3   OH242233   2.310   4.433   1.639 -0.2578 -0.2327 -0.1307
 6013TIP3    H142234   2.352   4.469   1.716  0.1009 -1.3003  0.1854
 6013TIP3    H242235   2.221   4.469   1.640  0.0002  0.3899  0.3310
 6014TIP3   OH242236   6.967   7.632   0.897 -0.9495  0.6964 -0.5725
 6014TIP3    H142237   7.001   7.694   0.832 -0.4944  0.5054 -0.5169
 6014TIP3    H242238   6.876   7.618   0.870 -0.5184 -0.0804 -1.7109
 6015TIP3   OH242239   3.779   1.541   0.543 -0.5357  0.4714  0.0438
 6015TIP3    H142240   3.741   1.467   0.496 -1.0142  2.1661 -2.4496
 6015TIP3    H242241   3.703   1.591   0.574 -0.2363  0.6114  0.5599
 6016TIP3   OH242242   0.507   3.512   0.711  0.5074  0.1396 -0.1490
 6016TIP3    H142243   0.540   3.601   0.721  1.5769 -0.1428 -0.9537
 6016TIP3    H242244   0.545   3.481   0.629 -0.1517 -0.9256 -0.0728
 6017TIP3   OH242245   1.357   5.232   0.772  0.1507 -0.1847  0.0555
 6017TIP3    H142246   1.394   5.319   0.755  1.4489 -0.4692  1.1921
 6017TIP3    H242247   1.364   5.187   0.688 -0.0272  0.6275 -0.4079
 6018TIP3   OH242248   1.289   4.680   9.353 -0.7388 -0.4270  0.6802
 6018TIP3    H142249   1.265   4.607   9.410 -1.1562 -0.1904  0.8147
 6018TIP3    H242250   1.350   4.732   9.406  0.7337 -1.4500  0.0540
 6019TIP3   OH242251   3.445   4.619   9.057  0.3143 -0.0249  0.0002
 6019TIP3    H142252   3.480   4.630   8.969  0.2643  0.3731  0.0299
 6019TIP3    H242253   3.396   4.699   9.074  1.1747  0.3566  0.7799
 6020TIP3   OH242254   0.836   5.168   8.275  0.0991  0.0352 -0.4833
 6020TIP3    H142255   0.775   5.126   8.215 -1.5528  0.4454  0.8295
 6020TIP3    H242256   0.857   5.101   8.339  1.3094 -0.1904 -1.0741
 6021TIP3   OH242257   1.582   0.666   0.952  0.0808  0.0273  0.1406
 6021TIP3    H142258   1.553   0.757   0.947  0.2064  0.1602  1.4968
 6021TIP3    H242259   1.611   0.645   0.863 -0.4753  1.1267 -0.3188
 6022TIP3   OH242260   1.919   5.366   8.117  0.3109  0.5939 -0.1886
 6022TIP3    H142261   1.862   5.386   8.191 -0.0543  0.9961 -0.5684
 6022TIP3    H242262   1.970   5.290   8.145 -0.1052  0.4996  0.3220
 6023TIP3   OH242263   7.442   4.135   7.339  0.4788  0.2280  0.0629
 6023TIP3    H142264   7.494   4.142   7.260 -0.9458 -1.6465 -1.1264
 6023TIP3    H242265   7.452   4.220   7.383  1.6212  1.1574 -1.9029
 6024TIP3   OH242266   1.185   3.575   1.894  0.3045 -0.4273 -0.3272
 6024TIP3    H142267   1.139   3.493   1.876  0.0252 -0.6599  1.3175
 6024TIP3    H242268   1.277   3.550   1.895  0.4588 -0.1779 -2.4571
 6025TIP3   OH242269   4.869   4.922   8.203  0.2702  0.1519 -0.4087
 6025TIP3    H142270   4.781   4.910   8.240  0.9098  0.5295  1.3354
 6025TIP3    H242271   4.914   4.977   8.267  1.8073 -0.1011 -1.2426
 6026TIP3   OH242272   0.519   1.604   3.082 -0.1036 -0.4732  0.1058
 6026TIP3    H142273   0.606   1.628   3.049  0.3493 -1.0560  0.8401
 6026TIP3    H242274   0.525   1.510   3.098 -1.1666 -0.6887 -0.6898
 6027TIP3   OH242275   2.137   1.017   0.817 -0.1612  0.0363 -0.3032
 6027TIP3    H142276   2.227   0.987   0.822  0.0268  0.6909  0.6708
 6027TIP3    H242277   2.086   0.950   0.862  0.4573  1.7536  3.3914
 6028TIP3   OH242278   1.646   2.398   7.368  0.4121 -0.2624 -0.4560
 6028TIP3    H142279   1.640   2.334   7.297 -1.2881  0.7120 -1.2455
 6028TIP3    H242280   1.580   2.464   7.347  0.8756  0.8256  1.2792
 6029TIP3   OH242281   1.859   0.408   1.714  0.4155 -0.6026 -0.1203
 6029TIP3    H142282   1.791   0.391   1.780  0.1498 -1.3187 -0.5618
 6029TIP3    H242283   1.880   0.500   1.725  0.8743 -0.8568  1.4300
 6030TIP3   OH242284   4.784   2.412   9.833 -0.0606  0.0795  0.3637
 6030TIP3    H142285   4.713   2.456   9.879  1.0180  0.0602  2.1198
 6030TIP3    H242286   4.811   2.475   9.766 -1.4022  0.2659 -0.0339
 6031TIP3   OH242287   7.165   4.044   1.134  0.3373 -0.1730  0.0576
 6031TIP3    H142288   7.209   3.977   1.082  1.4917  0.7607 -0.2375
 6031TIP3    H242289   7.072   4.034   1.114  0.6197 -0.8003 -1.0324
 6032TIP3   OH242290   0.902   0.700   1.506 -0.8451 -0.3107 -0.2470
 6032TIP3    H142291   0.877   0.607   1.503  0.3846 -0.6370 -1.8492
 6032TIP3    H242292   0.912   0.724   1.414 -0.1133  1.1357  0.1867
 6033TIP3   OH242293   3.883   3.531   0.736  0.0107 -0.2427  0.9073
 6033TIP3    H142294   3.874   3.620   0.703 -0.7943 -0.3961  0.6980
 6033TIP3    H242295   3.978   3.519   0.749  0.1133  0.6682  1.0320
 6034TIP3   OH242296   2.487   2.458   1.194 -0.1767  0.2256 -0.6897
 6034TIP3    H142297   2.459   2.439   1.284  2.6903 -0.5874  0.1257
 6034TIP3    H242298   2.445   2.389   1.142  0.7063 -1.3293  0.5523
 6035TIP3   OH242299   3.679   1.398   1.644  0.1714 -0.1891  0.2047
 6035TIP3    H142300   3.687   1.379   1.738  0.5994 -0.6707  0.0758
 6035TIP3    H242301   3.763   1.434   1.619 -0.0614  0.2652  0.0758
 6036TIP3   OH242302   5.015   3.432   7.792  0.3665  0.4158 -0.4222
 6036TIP3    H142303   4.932   3.421   7.839  0.3557  1.1172 -0.2627
 6036TIP3    H242304   4.992   3.482   7.714  0.5707  0.2157 -0.6134
 6037TIP3   OH242305   2.309   1.127   1.032 -0.1115  0.2225 -0.3225
 6037TIP3    H142306   2.245   1.071   1.075 -0.0299  0.5256  0.1947
 6037TIP3    H242307   2.258   1.199   0.996 -0.1053  0.2669 -0.2411
 6038TIP3   OH242308   7.002   3.366   2.002  0.0864  0.1181 -0.1695
 6038TIP3    H142309   6.940   3.369   2.075  0.8432 -0.2201  0.5031
 6038TIP3    H242310   6.956   3.316   1.934 -0.1225 -0.7289  0.5734
 6039TIP3   OH242311   4.963   3.151   6.699  0.4015 -0.1260  1.2131
 6039TIP3    H142312   4.991   3.139   6.790  1.3106 -0.5261  0.8947
 6039TIP3    H242313   5.040   3.127   6.647 -0.8872 -2.5723  0.2351
 6040TIP3   OH242314   5.992   2.633   2.272 -0.4808 -0.1730  0.0799
 6040TIP3    H142315   5.951   2.577   2.338 -0.7728 -0.7769 -0.5967
 6040TIP3    H242316   6.071   2.667   2.315 -1.1648  0.2164  1.0579
 6041TIP3   OH242317   1.510   5.005   1.999 -0.0980  0.3020  0.0116
 6041TIP3    H142318   1.534   4.914   2.015 -0.6735  0.1568  0.0680
 6041TIP3    H242319   1.421   5.001   1.964 -0.2299  0.8554  0.2615
 6042TIP3   OH242320   7.166   4.378   6.988  0.0295 -0.1570  0.1236
 6042TIP3    H142321   7.233   4.313   6.966 -0.0532 -0.6732  1.3103
 6042TIP3    H242322   7.083   4.335   6.968 -0.1489 -1.3083  2.8190
 6043TIP3   OH242323   2.130   0.038   0.068  0.1983 -0.1589 -0.3649
 6043TIP3    H142324   2.195   0.009   0.132  0.8410 -0.1673 -1.0115
 6043TIP3    H242325   2.046   0.014   0.107  0.6265 -4.8818 -1.6852
 6044TIP3   OH242326   2.462   2.885   1.070  0.1355  0.1998  0.3760
 6044TIP3    H142327   2.539   2.863   1.122  0.3652 -1.5678 -0.6304
 6044TIP3    H242328   2.388   2.856   1.123  0.3812 -1.8937 -0.3221
 6045TIP3   OH242329   1.220   1.058   7.736  0.6582  0.5622 -0.3287
 6045TIP3    H142330   1.249   1.146   7.715 -0.9913  0.6786 -2.4887
 6045TIP3    H242331   1.272   1.001   7.678  1.1186  0.1755  0.4513
 6046TIP3   OH242332   2.270   1.557   9.442 -0.4456  0.1284  0.7778
 6046TIP3    H142333   2.305   1.488   9.385 -1.4716 -0.3767  0.7361
 6046TIP3    H242334   2.347   1.590   9.489  0.1577 -0.6056  0.3395
 6047TIP3   OH242335   0.870   5.783   8.010  0.4107  0.1907  0.1143
 6047TIP3    H142336   0.931   5.709   8.008 -0.7305 -0.7785  0.5434
 6047TIP3    H242337   0.798   5.758   7.953  1.0777  1.9781 -1.6451
 6048TIP3   OH242338   2.203   0.860   0.156  0.1422  0.0717  0.3263
 6048TIP3    H142339   2.173   0.841   0.067 -1.5465 -0.8601  1.0299
 6048TIP3    H242340   2.272   0.795   0.173 -0.4958 -0.6783  0.1431
 6049TIP3   OH242341   7.070   2.689   0.199 -0.1266 -0.3368  0.6383
 6049TIP3    H142342   7.053   2.631   0.273  0.1634  0.2321  1.1625
 6049TIP3    H242343   7.157   2.662   0.167 -0.9571 -1.7302 -0.6106
 6050TIP3   OH242344   2.128   6.289   8.574 -0.4621 -0.8747  0.2063
 6050TIP3    H142345   2.112   6.259   8.485 -1.2092 -1.2979  0.4706
 6050TIP3    H242346   2.218   6.265   8.592  0.4644  1.2019 -1.2068
 6051TIP3   OH242347   2.728   7.711   1.284  0.2676  0.2110 -0.3270
 6051TIP3    H142348   2.779   7.633   1.264  0.4607  0.2379  0.0594
 6051TIP3    H242349   2.691   7.738   1.199  1.0787  0.3302 -0.6472
 6052TIP3   OH242350   2.744   4.514   0.554  0.4400  0.2019 -0.0390
 6052TIP3    H142351   2.747   4.420   0.571  1.7432  0.0415 -0.9830
 6052TIP3    H242352   2.723   4.520   0.460 -0.6587  0.8929  0.2368
 6053TIP3   OH242353   3.197   1.416   9.820  1.2199 -0.2308 -0.1534
 6053TIP3    H142354   3.112   1.459   9.818  0.2132 -2.0914 -1.1387
 6053TIP3    H242355   3.248   1.460   9.752 -0.2547 -1.3549 -2.1133
 6054TIP3   OH242356   2.122   5.862   8.555  0.5306 -0.2818 -0.2213
 6054TIP3    H142357   2.216   5.853   8.567  0.9458  0.0310 -2.6368
 6054TIP3    H242358   2.099   5.792   8.494 -0.5292  0.5147 -0.7702
 6055TIP3   OH242359   4.159   5.917   8.838 -0.2153  0.2664  0.1866
 6055TIP3    H142360   4.165   5.981   8.768  0.4936 -0.5434 -0.5133
 6055TIP3    H242361   4.065   5.902   8.849 -0.3559  0.8892 -0.1218
 6056TIP3   OH242362   0.565   6.500   8.420 -0.4877 -0.4229  0.4336
 6056TIP3    H142363   0.487   6.471   8.468 -0.6295 -0.1144  0.3889
 6056TIP3    H242364   0.638   6.481   8.479 -0.5166 -1.4148  0.1710
 6057TIP3   OH242365   5.521   2.723   8.242  0.7992 -0.4245  0.2598
 6057TIP3    H142366   5.470   2.780   8.184  0.1469  0.4163  1.6038
 6057TIP3    H242367   5.553   2.653   8.186 -0.6937 -0.2129 -0.8987
 6058TIP3   OH242368   2.401   4.499   8.051 -0.4114  0.6201 -0.2172
 6058TIP3    H142369   2.368   4.412   8.073 -0.5409  1.2725  2.5664
 6058TIP3    H242370   2.369   4.555   8.121 -0.0716  2.8804 -1.7768
 6059TIP3   OH242371   2.267   7.253   0.328  0.0265 -0.7345 -0.1701
 6059TIP3    H142372   2.236   7.263   0.238  0.5275  0.5787 -0.2241
 6059TIP3    H242373   2.208   7.308   0.380  0.6384 -0.3010  0.0815
 6060TIP3   OH242374   7.152   5.397   0.585  0.4057 -0.4648  0.5243
 6060TIP3    H142375   7.141   5.342   0.508  1.4655 -0.3209  0.2531
 6060TIP3    H242376   7.148   5.487   0.550 -0.0878 -0.3836  0.7841
 6061TIP3   OH242377   0.641   3.748   2.541 -0.3738 -0.7218 -0.5560
 6061TIP3    H142378   0.555   3.789   2.538 -0.4510 -0.8981 -0.8822
 6061TIP3    H242379   0.638   3.691   2.618  0.1503  0.7616  0.6001
 6062TIP3   OH242380   1.006   7.366   3.258 -0.4716 -0.5279 -0.0480
 6062TIP3    H142381   1.029   7.436   3.197  0.3824 -0.1278  0.7185
 6062TIP3    H242382   1.067   7.376   3.331  0.0891 -2.4420 -0.1942
 6063TIP3   OH242383   0.290   3.781   9.450 -0.0280  0.4483  0.3286
 6063TIP3    H142384   0.305   3.713   9.517  0.3834  0.1668 -0.0457
 6063TIP3    H242385   0.212   3.828   9.481 -1.2731 -1.1747 -0.1810
 6064TIP3   OH242386   7.199   5.857   0.999  0.4344 -0.2101  0.0511
 6064TIP3    H142387   7.284   5.872   1.040  0.2835 -2.2019  1.1679
 6064TIP3    H242388   7.215   5.872   0.905  2.3026 -1.6291  0.0991
 6065TIP3   OH242389   1.406   4.738   2.068  0.0673 -0.5955  0.2909
 6065TIP3    H142390   1.338   4.754   2.134 -0.5472  0.6086 -0.6087
 6065TIP3    H242391   1.488   4.758   2.114 -0.3630  0.3799  0.6639
 6066TIP3   OH242392   7.352   0.133   0.339  0.2609  0.4084 -0.1676
 6066TIP3    H142393   7.398   0.051   0.320  1.2664  1.0270 -0.5434
 6066TIP3    H242394   7.389   0.163   0.422 -0.5839  0.1612  0.3077
 6067TIP3   OH242395   4.784   4.902   8.516  0.4498 -0.0894 -0.0502
 6067TIP3    H142396   4.785   4.868   8.606  2.0397  0.4460  0.1840
 6067TIP3    H242397   4.877   4.904   8.491  0.2416  1.8393 -0.8815
 6068TIP3   OH242398   5.088   7.309   9.932  0.1754  0.0838 -0.5969
 6068TIP3    H142399   5.086   7.335   9.840  0.1323 -1.3924 -1.0398
 6068TIP3    H242400   5.175   7.334   9.962  0.6562 -0.5538 -1.4064
 6069TIP3   OH242401   2.856   2.418   8.414  0.0782  0.6563 -0.1865
 6069TIP3    H142402   2.903   2.424   8.331 -1.0010 -1.3541 -1.0274
 6069TIP3    H242403   2.898   2.346   8.461  0.6496  1.7426  1.0389
 6070TIP3   OH242404   3.415   0.222   8.476 -0.1443  1.3151  0.4383
 6070TIP3    H142405   3.401   0.153   8.411  0.2456  0.6225  1.0810
 6070TIP3    H242406   3.367   0.297   8.441  0.9885  1.3116 -1.2201
 6071TIP3   OH242407   0.870   1.340   0.221 -0.1620  0.2604 -0.5116
 6071TIP3    H142408   0.883   1.403   0.150 -0.1478  0.4968 -0.3007
 6071TIP3    H242409   0.901   1.385   0.299  3.4102 -1.2601 -0.8432
 6072TIP3   OH242410   3.708   1.108   7.560 -0.1073 -0.0175 -0.4512
 6072TIP3    H142411   3.762   1.136   7.486  0.0160  0.7141 -0.0967
 6072TIP3    H242412   3.761   1.130   7.637  0.0390 -1.3414 -0.1468
 6073TIP3   OH242413   4.639   5.419   8.202  0.1823 -0.0185 -0.6918
 6073TIP3    H142414   4.691   5.363   8.145  1.4826  2.4516 -2.0820
 6073TIP3    H242415   4.673   5.402   8.290  2.5354  0.6309 -1.4251
 6074TIP3   OH242416   2.047   5.787   1.101  0.3532  0.7733 -0.2520
 6074TIP3    H142417   2.006   5.703   1.080  2.0191 -0.2866  0.5320
 6074TIP3    H242418   1.985   5.828   1.162  0.1054 -0.4956  0.4131
 6075TIP3   OH242419   4.113   3.794   9.219 -0.3703 -0.2760  0.2804
 6075TIP3    H142420   4.113   3.814   9.126 -0.0698  0.7750  0.4948
 6075TIP3    H242421   4.187   3.735   9.231 -0.3473 -0.3293 -0.1289
 6076TIP3   OH242422   1.291   3.838   1.670  0.6815 -0.0004 -0.1531
 6076TIP3    H142423   1.382   3.839   1.699  0.6050  1.6855  0.0899
 6076TIP3    H242424   1.244   3.888   1.736 -0.2379  0.0864 -0.8579
 6077TIP3   OH242425   6.776   2.586   8.793  0.1485 -0.2146 -0.6397
 6077TIP3    H142426   6.834   2.510   8.794  1.7052  0.9175  0.0297
 6077TIP3    H242427   6.800   2.634   8.714  0.2182  0.3166 -0.3042
 6078TIP3   OH242428   5.990   7.067   0.509  0.2214 -0.1907  0.5803
 6078TIP3    H142429   5.942   7.091   0.589 -0.2121 -0.1397  0.3069
 6078TIP3    H242430   5.967   7.135   0.446 -0.0326 -0.6398  0.1784
 6079TIP3   OH242431   3.450   1.814   8.360 -0.7009 -0.1247 -0.0703
 6079TIP3    H142432   3.544   1.796   8.353 -0.1420  1.4663  2.1331
 6079TIP3    H242433   3.438   1.898   8.317 -0.8513  0.2565  0.6874
 6080TIP3   OH242434   3.126   1.591   2.291 -0.6951  0.0279 -0.0577
 6080TIP3    H142435   3.192   1.661   2.291  0.4311 -0.9988 -1.2650
 6080TIP3    H242436   3.171   1.515   2.254 -1.9145 -1.3460  1.1477
 6081TIP3   OH242437   1.795   4.808   6.896 -0.2906  0.3255  0.1524
 6081TIP3    H142438   1.887   4.811   6.868 -0.2447  0.0619  0.2710
 6081TIP3    H242439   1.767   4.719   6.873  0.3777 -0.7016  2.9481
 6082TIP3   OH242440   0.296   3.595   2.526  0.2834 -0.4663 -0.0594
 6082TIP3    H142441   0.309   3.515   2.576 -0.1241 -0.9683 -0.7461
 6082TIP3    H242442   0.356   3.586   2.451 -1.5001 -1.2866 -1.4699
 6083TIP3   OH242443   0.299   4.877   8.433  0.6914  0.4819  0.5331
 6083TIP3    H142444   0.210   4.845   8.414  1.7062 -1.1106 -2.1034
 6083TIP3    H242445   0.344   4.801   8.469  1.8440  0.2559 -1.2860
 6084TIP3   OH242446   1.066   6.261   8.194  0.2803  0.7408 -0.4015
 6084TIP3    H142447   1.082   6.222   8.108  1.4724  1.3863 -0.4938
 6084TIP3    H242448   1.130   6.219   8.252 -1.1588 -0.4235  0.4299
 6085TIP3   OH242449   3.896   4.053   8.556  0.2933 -0.3081 -0.2521
 6085TIP3    H142450   3.823   4.091   8.606  0.7717 -0.1591  0.3411
 6085TIP3    H242451   3.864   4.052   8.466 -0.4793 -0.3279  0.0096
 6086TIP3   OH242452   1.176   7.031   1.487  0.4904  0.4514 -0.1208
 6086TIP3    H142453   1.202   6.999   1.401  0.2798  0.6720 -0.2683
 6086TIP3    H242454   1.082   7.011   1.493  0.1182  1.9050 -0.6229
 6087TIP3   OH242455   3.265   0.308   2.925 -0.4026  0.3284 -0.2176
 6087TIP3    H142456   3.246   0.324   3.017 -1.0469  0.3192 -0.3434
 6087TIP3    H242457   3.286   0.214   2.921 -1.3412  0.1036 -0.2233
 6088TIP3   OH242458   0.452   4.328   1.243  0.5561 -0.1136 -0.0132
 6088TIP3    H142459   0.509   4.396   1.278  1.8599 -1.1110 -0.1406
 6088TIP3    H242460   0.474   4.325   1.149  0.9565 -1.1140  0.1039
 6089TIP3   OH242461   7.690   5.851   8.258  0.5446 -0.2690 -0.5930
 6089TIP3    H142462   7.682   5.946   8.266 -0.1166 -0.2501 -1.4992
 6089TIP3    H242463   7.759   5.838   8.193  1.1828 -0.4317  0.0870
 6090TIP3   OH242464   1.606   4.973   2.478 -0.6829  0.4163 -0.0730
 6090TIP3    H142465   1.621   5.046   2.418  0.5806  0.1932 -0.0393
 6090TIP3    H242466   1.692   4.954   2.515 -0.3179 -2.9922 -2.2788
 6091TIP3   OH242467   2.522   6.729   7.885  0.2605  0.5190  0.3371
 6091TIP3    H142468   2.462   6.769   7.822 -0.3704  0.3777  0.8462
 6091TIP3    H242469   2.516   6.783   7.963  1.5539  1.0917  0.0633
 6092TIP3   OH242470   1.650   6.406   7.976  0.3300 -0.6688  0.4953
 6092TIP3    H142471   1.719   6.359   8.024  0.2599  0.6887  2.0008
 6092TIP3    H242472   1.694   6.440   7.898  0.7281 -1.9052  0.1435
 6093TIP3   OH242473   0.481   1.562   8.663  0.7503 -1.2915 -0.2455
 6093TIP3    H142474   0.488   1.655   8.682 -2.1658 -1.3239  1.6642
 6093TIP3    H242475   0.570   1.528   8.671  1.6121  1.0189  0.6790
 6094TIP3   OH242476   3.832   0.688   1.752  0.3314 -0.2828 -0.1836
 6094TIP3    H142477   3.847   0.734   1.669  2.4289 -0.7848 -0.1438
 6094TIP3    H242478   3.769   0.619   1.730 -0.3346  0.5447 -0.9741
 6095TIP3   OH242479   3.878   0.544   1.016 -0.0188  0.1976  0.4274
 6095TIP3    H142480   3.788   0.512   1.029 -0.1555 -0.5343 -1.7507
 6095TIP3    H242481   3.870   0.605   0.942  1.5141 -1.4915 -1.2400
 6096TIP3   OH242482   5.171   4.585   7.904  0.1797 -0.1103  0.0958
 6096TIP3    H142483   5.178   4.550   7.815  1.2476 -3.2037  1.2543
 6096TIP3    H242484   5.121   4.519   7.952  0.6069  0.9133  2.0354
 6097TIP3   OH242485   6.306   7.057   0.513  0.1142 -0.0929  0.2079
 6097TIP3    H142486   6.255   7.062   0.433 -0.2060  0.1959  0.4252
 6097TIP3    H242487   6.241   7.044   0.582  0.4939 -1.8052  0.2730
 6098TIP3   OH242488   4.890   4.618   7.884 -0.1247  0.4298 -1.0227
 6098TIP3    H142489   4.882   4.640   7.791  0.1897 -0.4473 -1.2690
 6098TIP3    H242490   4.981   4.640   7.906 -0.4961  1.6394 -0.6366
 6099TIP3   OH242491   1.258   2.308   6.949 -0.0087  0.2538 -0.5408
 6099TIP3    H142492   1.336   2.321   7.003 -0.0791 -1.3481  0.0172
 6099TIP3    H242493   1.204   2.386   6.964  0.6092  0.4782  0.5981
 6100TIP3   OH242494   6.463   0.625   0.228  0.4549  0.2250  1.1094
 6100TIP3    H142495   6.483   0.663   0.313  0.8696  0.2134  1.0210
 6100TIP3    H242496   6.520   0.548   0.222 -0.2471 -0.3216  1.2124
 6101TIP3   OH242497   0.373   4.683   2.277  0.0752 -0.4691 -0.4241
 6101TIP3    H142498   0.349   4.729   2.197  1.3240  1.2663  0.1496
 6101TIP3    H242499   0.295   4.690   2.332  0.4366  1.6356 -0.0938
 6102TIP3   OH242500   7.531   2.921   8.774 -0.3276  0.2185  0.0432
 6102TIP3    H142501   7.443   2.894   8.800  0.3315 -1.1996  0.8967
 6102TIP3    H242502   7.589   2.876   8.835  0.9825  1.4995 -0.2062
 6103TIP3   OH242503   2.366   2.267   1.043  0.1987  0.5287 -0.2300
 6103TIP3    H142504   2.393   2.179   1.018  1.0428  0.8320 -0.4366
 6103TIP3    H242505   2.279   2.256   1.081  1.2602 -0.7905  2.0748
 6104TIP3   OH242506   1.876   5.776   7.008 -0.0124  0.0572 -0.5876
 6104TIP3    H142507   1.793   5.789   6.961  0.6006  0.8673 -1.5116
 6104TIP3    H242508   1.943   5.802   6.944  0.8709  1.0411  0.6877
 6105TIP3   OH242509   4.060   4.900   8.026 -1.0542 -0.4311  0.5813
 6105TIP3    H142510   4.137   4.867   8.073  2.2651  2.2899 -2.3538
 6105TIP3    H242511   4.020   4.822   7.988  1.7179 -1.8822  0.3532
 6106TIP3   OH242512   5.804   3.927   1.282 -0.3545 -0.3296  0.4521
 6106TIP3    H142513   5.857   3.947   1.205 -1.7234 -2.1014 -1.0394
 6106TIP3    H242514   5.747   4.003   1.292 -0.8157 -0.4777 -0.8898
 6107TIP3   OH242515   2.472   6.341   8.136 -0.0250  0.1908 -0.3801
 6107TIP3    H142516   2.440   6.402   8.203 -5.1755  0.1493 -2.3698
 6107TIP3    H242517   2.415   6.264   8.144  0.0474 -0.3777 -3.8453
 6108TIP3   OH242518   5.919   4.027   0.720  0.7293 -0.5987  0.5891
 6108TIP3    H142519   5.887   3.948   0.677  0.2605 -1.1197  1.8363
 6108TIP3    H242520   5.970   4.072   0.653  0.7529 -1.8052 -0.2348
 6109TIP3   OH242521   5.706   0.679   9.522  0.3948 -0.0722 -0.7504
 6109TIP3    H142522   5.639   0.630   9.571  0.4462  0.2597 -0.3442
 6109TIP3    H242523   5.685   0.662   9.430 -0.9431  0.9298 -0.6582
 6110TIP3   OH242524   5.070   6.792   7.098 -0.1160  0.4998 -0.5281
 6110TIP3    H142525   5.073   6.816   7.005  1.7841  1.2258 -0.3103
 6110TIP3    H242526   5.104   6.869   7.144 -0.6206 -0.0136  0.7475
 6111TIP3   OH242527   4.547   1.238   8.413 -0.2787  0.0493 -0.0777
 6111TIP3    H142528   4.545   1.177   8.486  1.6443  0.2084  0.1736
 6111TIP3    H242529   4.527   1.323   8.452 -0.8737 -0.1076 -0.0412
 6112TIP3   OH242530   5.084   0.591   8.228  0.2261 -0.1972 -0.5064
 6112TIP3    H142531   5.153   0.569   8.165  0.9196  0.1400  0.1063
 6112TIP3    H242532   5.078   0.687   8.224  0.5138 -0.1455  0.1686
 6113TIP3   OH242533   6.610   1.106   1.789 -0.1488 -0.4613  0.1900
 6113TIP3    H142534   6.618   1.013   1.764 -1.3283 -0.5809  0.1757
 6113TIP3    H242535   6.610   1.105   1.884  0.1925 -0.4339  0.1920
 6114TIP3   OH242536   5.723   3.378   1.429  0.1371 -0.6939  0.0307
 6114TIP3    H142537   5.639   3.335   1.417 -0.2989 -0.0497  0.6907
 6114TIP3    H242538   5.711   3.434   1.506  0.4142  1.2286 -1.2348
 6115TIP3   OH242539   0.075   6.515   0.266 -0.1750 -0.2629 -0.6861
 6115TIP3    H142540   0.169   6.513   0.249  0.0298  0.1283  0.2988
 6115TIP3    H242541   0.063   6.593   0.321 -1.4281  1.0513 -2.7043
 6116TIP3   OH242542   1.014   0.205   9.917  0.4422  0.4422  0.1856
 6116TIP3    H142543   1.018   0.268   9.845 -1.4191 -0.3039 -0.6197
 6116TIP3    H242544   0.989   0.123   9.876 -1.2678  0.1215  1.7252
 6117TIP3   OH242545   0.660   7.290   2.643 -0.6632 -0.5393 -0.3885
 6117TIP3    H142546   0.664   7.381   2.671 -0.2790 -0.8065  0.4609
 6117TIP3    H242547   0.726   7.283   2.574  0.5737 -0.5609  0.7459
 6118TIP3   OH242548   7.512   5.830   9.204  0.0105 -0.1510 -0.4770
 6118TIP3    H142549   7.573   5.759   9.224 -0.7804 -0.7888 -0.2227
 6118TIP3    H242550   7.446   5.824   9.274  0.0251  0.9459 -0.3622
 6119TIP3   OH242551   4.474   0.835   6.374  1.0879  0.0277 -0.2987
 6119TIP3    H142552   4.495   0.925   6.398  0.2960 -0.0403  0.7277
 6119TIP3    H242553   4.553   0.802   6.332  1.7395  0.8882  0.2187
 6120TIP3   OH242554   5.530   2.415   2.276  0.5863 -0.0768 -0.3223
 6120TIP3    H142555   5.557   2.358   2.348  1.5613  1.2977  0.4348
 6120TIP3    H242556   5.434   2.412   2.278  0.6098 -0.6052  0.5836
 6121TIP3   OH242557   2.699   7.143   1.601 -0.3995  0.5622  0.1903
 6121TIP3    H142558   2.739   7.060   1.574  1.4229  1.7045 -0.8952
 6121TIP3    H242559   2.710   7.146   1.696  3.5116  1.3584 -0.1110
 6122TIP3   OH242560   5.761   1.446   0.599  0.2951 -0.2528  0.6529
 6122TIP3    H142561   5.757   1.512   0.530  0.2250 -0.4670  0.4504
 6122TIP3    H242562   5.724   1.367   0.559  1.4480 -0.7461  0.5010
 6123TIP3   OH242563   7.477   0.772   9.369  0.1840 -0.3195  0.2205
 6123TIP3    H142564   7.482   0.754   9.276  0.3093  0.5873  0.0466
 6123TIP3    H242565   7.409   0.712   9.402  0.2503 -0.7442 -0.4192
 6124TIP3   OH242566   0.321   5.984   9.561  0.2782  0.2540 -0.2448
 6124TIP3    H142567   0.356   5.901   9.591  0.4600  0.7455  0.9645
 6124TIP3    H242568   0.241   5.961   9.513 -0.1712 -0.5604  0.8687
 6125TIP3   OH242569   0.668   0.745   1.624 -0.2663  0.2685  0.2525
 6125TIP3    H142570   0.755   0.752   1.583 -0.5500  0.0823 -0.4022
 6125TIP3    H242571   0.641   0.655   1.605  0.1642 -0.2773  2.0435
 6126TIP3   OH242572   0.826   6.767   7.610  0.2744  0.4866  0.5993
 6126TIP3    H142573   0.918   6.745   7.627  0.4488  0.9168  0.2467
 6126TIP3    H242574   0.794   6.696   7.554  0.5946  0.6978  0.1443
 6127TIP3   OH242575   2.451   0.492   9.817  0.2877 -0.1689 -0.2668
 6127TIP3    H142576   2.542   0.470   9.836  0.1437 -1.9666 -1.4620
 6127TIP3    H242577   2.402   0.411   9.830 -1.5028  1.1821  2.1384
 6128TIP3   OH242578   2.134   0.815   9.347 -0.1434 -0.1977  0.7485
 6128TIP3    H142579   2.133   0.893   9.292  1.8695 -1.4954 -1.3302
 6128TIP3    H242580   2.226   0.805   9.373 -0.3394 -1.8537  0.9179
 6129TIP3   OH242581   0.884   4.116   8.021  0.2280  0.0546 -0.1423
 6129TIP3    H142582   0.894   4.123   8.116 -0.1816 -0.7908 -0.0241
 6129TIP3    H242583   0.965   4.152   7.985 -0.3429  2.0328  0.4574
 6130TIP3   OH242584   2.032   5.672   2.111  0.1244  0.1966  0.1133
 6130TIP3    H142585   1.956   5.621   2.140  0.0868  0.5406  0.6398
 6130TIP3    H242586   1.994   5.750   2.072  0.1906 -0.0247 -0.4004
 6131TIP3   OH242587   6.721   4.125   7.170  0.2373 -0.4862  0.4070
 6131TIP3    H142588   6.745   4.054   7.230 -0.6647 -0.7726  0.4380
 6131TIP3    H242589   6.675   4.188   7.226 -0.3150 -0.6005  0.0823
 6132TIP3   OH242590   5.999   2.557   8.000 -0.3361  0.1137 -0.3983
 6132TIP3    H142591   5.947   2.487   7.961  0.7813 -0.8630 -0.1943
 6132TIP3    H242592   6.081   2.556   7.952  0.9892 -0.9598  1.7400
 6133TIP3   OH242593   7.430   1.637   2.771 -0.7045  0.2567  0.2929
 6133TIP3    H142594   7.388   1.647   2.686  0.5655  1.5128 -0.2331
 6133TIP3    H242595   7.426   1.724   2.811  1.1290  0.3701  0.3134
 6134TIP3   OH242596   3.730   4.706   8.617  0.4781  0.5386 -0.2799
 6134TIP3    H142597   3.703   4.783   8.669 -0.1687 -0.1085  0.3676
 6134TIP3    H242598   3.825   4.714   8.610  0.5638  0.7176  0.8893
 6135TIP3   OH242599   3.050   5.745   8.950  0.3229 -0.2503  0.2784
 6135TIP3    H142600   3.001   5.816   8.990 -2.8080 -2.3673  0.5592
 6135TIP3    H242601   3.083   5.781   8.868 -1.0895  1.5383  0.4398
 6136TIP3   OH242602   3.947   2.903   9.226 -0.0672  0.2164  0.5434
 6136TIP3    H142603   3.971   2.894   9.318 -2.6495 -0.7477  1.2179
 6136TIP3    H242604   4.030   2.911   9.180  1.3507 -0.3598  2.8318
 6137TIP3   OH242605   0.218   7.343   0.220 -0.2921 -0.2256  0.0477
 6137TIP3    H142606   0.225   7.381   0.132 -0.3385  1.8106  0.8611
 6137TIP3    H242607   0.129   7.310   0.225 -0.6781  0.7472 -0.2739
 6138TIP3   OH242608   1.733   3.849   7.870 -0.4322  0.0243 -0.5939
 6138TIP3    H142609   1.778   3.865   7.787 -1.2121 -0.5728 -1.1486
 6138TIP3    H242610   1.792   3.791   7.918  2.7074  4.5175  1.6798
 6139TIP3   OH242611   6.362   4.642   8.236  0.3359 -0.5508  0.4024
 6139TIP3    H142612   6.437   4.638   8.177  0.4445  0.1207  0.4885
 6139TIP3    H242613   6.397   4.675   8.318 -0.0811 -0.0537  0.3854
 6140TIP3   OH242614   2.965   0.369   7.051 -0.1683  0.6830 -0.0923
 6140TIP3    H142615   2.987   0.290   7.100  0.9249 -0.3028 -2.0712
 6140TIP3    H242616   2.879   0.350   7.013 -0.0484  0.5539 -0.3042
 6141TIP3   OH242617   5.713   6.147   9.093 -0.5006 -0.3995 -0.1903
 6141TIP3    H142618   5.645   6.098   9.045 -0.3363 -0.4263 -0.3954
 6141TIP3    H242619   5.683   6.147   9.184 -0.9195 -0.1754 -0.3248
 6142TIP3   OH242620   5.428   1.342   7.241 -0.0209  0.2907 -0.1652
 6142TIP3    H142621   5.409   1.429   7.276 -1.6589 -0.5548  1.1589
 6142TIP3    H242622   5.367   1.332   7.168 -0.1072  0.0973 -0.0657
 6143TIP3   OH242623   4.620   6.076   9.568 -0.7698  0.2203 -0.0010
 6143TIP3    H142624   4.692   6.138   9.582 -0.9420  0.3204  0.4586
 6143TIP3    H242625   4.541   6.126   9.591 -0.7775 -0.8179  2.6566
 6144TIP3   OH242626   1.787   5.111   8.399  0.0875 -0.5778  0.1982
 6144TIP3    H142627   1.879   5.120   8.373  0.4744 -2.4885  0.7573
 6144TIP3    H242628   1.782   5.153   8.484  0.4987 -0.6127  0.2430
 6145TIP3   OH242629   2.084   7.171   2.363 -0.2423  0.1259 -0.9720
 6145TIP3    H142630   2.093   7.213   2.278 -0.5943  0.1376 -1.0035
 6145TIP3    H242631   1.999   7.200   2.396  0.3866  1.0418 -0.1083
 6146TIP3   OH242632   6.336   5.744   7.686  0.4175 -0.1398  0.0839
 6146TIP3    H142633   6.310   5.744   7.778  1.9544  0.0079  0.5357
 6146TIP3    H242634   6.431   5.733   7.687  0.3385 -1.5755 -1.5227
 6147TIP3   OH242635   2.572   5.851   0.163  0.3497 -0.7181  0.3132
 6147TIP3    H142636   2.653   5.823   0.120 -0.2004 -1.9050  0.0272
 6147TIP3    H242637   2.577   5.813   0.251  1.3649  1.5117  1.3077
 6148TIP3   OH242638   1.062   6.925   1.111  0.0186 -0.3974  0.9325
 6148TIP3    H142639   1.033   7.004   1.064  2.7010 -0.7036 -1.5888
 6148TIP3    H242640   1.149   6.949   1.145  0.7780 -2.1282  0.3189
 6149TIP3   OH242641   1.428   1.688   8.671  0.1956 -0.4380  0.4674
 6149TIP3    H142642   1.371   1.618   8.639  0.3268  0.3260 -1.5683
 6149TIP3    H242643   1.472   1.721   8.593  1.0353  1.1277  1.5476
 6150TIP3   OH242644   2.386   3.798   9.887  0.1926 -0.3635  0.1830
 6150TIP3    H142645   2.466   3.784   9.837 -0.0116 -0.4776 -0.1183
 6150TIP3    H242646   2.349   3.710   9.899  0.0320 -0.2970  0.1826
 6151TIP3   OH242647   0.924   3.801   7.186 -0.0995  0.2954  0.0678
 6151TIP3    H142648   0.903   3.756   7.104 -1.8652  0.6137  0.3016
 6151TIP3    H242649   0.939   3.730   7.248  1.1492  0.0525 -0.4810
 6152TIP3   OH242650   6.621   2.518   7.733  0.4127  0.2638  0.0921
 6152TIP3    H142651   6.708   2.482   7.755 -1.2257 -2.8523  2.2464
 6152TIP3    H242652   6.604   2.486   7.644  0.1037 -2.2895  0.9895
 6153TIP3   OH242653   6.473   6.485   0.413  0.0054 -0.7450  0.0687
 6153TIP3    H142654   6.498   6.568   0.454 -1.4671 -0.3380  0.1767
 6153TIP3    H242655   6.552   6.458   0.365  0.0029  1.6150 -1.4524
 6154TIP3   OH242656   0.258   3.437   1.585  0.2933  0.5504  0.1477
 6154TIP3    H142657   0.267   3.530   1.605  2.7873 -0.0349  2.1901
 6154TIP3    H242658   0.347   3.406   1.568  0.2724 -2.2518  3.8048
 6155TIP3   OH242659   5.391   0.566   2.245  0.4985 -0.3472  0.4063
 6155TIP3    H142660   5.474   0.610   2.259 -1.4227  3.3333  1.3684
 6155TIP3    H242661   5.358   0.547   2.332  0.6227 -2.6147  0.0266
 6156TIP3   OH242662   7.641   6.824   0.295 -0.8251 -0.3355  0.3887
 6156TIP3    H142663   7.624   6.899   0.238  1.0300 -0.7158 -0.7599
 6156TIP3    H242664   7.563   6.770   0.287 -1.6870  0.8821  0.2879
 6157TIP3   OH242665   6.629   5.590   9.753  0.4839 -0.0075  0.3501
 6157TIP3    H142666   6.707   5.615   9.803  1.2767 -0.2340 -0.7427
 6157TIP3    H242667   6.625   5.655   9.683  0.1449 -0.4844 -0.0705
 6158TIP3   OH242668   6.755   4.207   8.030  0.2400 -0.2114 -0.4441
 6158TIP3    H142669   6.725   4.122   7.995  0.4177  0.1044 -1.3956
 6158TIP3    H242670   6.674   4.256   8.044  0.1647 -0.3456 -0.4037
 6159TIP3   OH242671   5.322   7.349   8.390 -0.0105  0.0404 -0.0257
 6159TIP3    H142672   5.390   7.358   8.324  1.9297  3.2838  2.1383
 6159TIP3    H242673   5.259   7.418   8.369 -0.6328 -0.4544  0.1849
 6160TIP3   OH242674   6.016   0.912   2.086 -0.1803  0.2372  0.0007
 6160TIP3    H142675   5.923   0.911   2.108  0.1943  2.1549  1.9589
 6160TIP3    H242676   6.048   0.827   2.116 -0.7896  0.6373  1.9157
 6161TIP3   OH242677   6.055   2.334   7.678  0.0962  0.4029  0.0348
 6161TIP3    H142678   5.991   2.287   7.625  1.0462  0.3305 -1.0878
 6161TIP3    H242679   6.002   2.394   7.731 -0.8579  1.1947 -1.7162
 6162TIP3   OH242680   6.788   5.508   1.206  0.0772 -0.5829  0.0388
 6162TIP3    H142681   6.814   5.537   1.293  1.2320 -0.5597 -0.3013
 6162TIP3    H242682   6.693   5.520   1.204  0.4151  3.0509 -0.0149
 6163TIP3   OH242683   4.106   2.357   2.156 -0.1738 -0.0160  0.2564
 6163TIP3    H142684   4.077   2.405   2.233 -0.1136  1.4486 -0.5957
 6163TIP3    H242685   4.171   2.295   2.188  1.1184  1.7345  1.1698
 6164TIP3   OH242686   5.205   1.122   9.646  0.6942  0.1412 -0.1177
 6164TIP3    H142687   5.288   1.170   9.642  0.2633  1.0028  0.7925
 6164TIP3    H242688   5.188   1.097   9.555  3.2601 -2.4248 -0.0299
 6165TIP3   OH242689   7.745   4.333   1.348  0.2179  0.0903 -0.2524
 6165TIP3    H142690   7.830   4.353   1.387  1.2874 -0.7187 -2.0398
 6165TIP3    H242691   7.684   4.390   1.394  1.5369 -0.0495  1.8096
 6166TIP3   OH242692   0.481   5.528   1.887  0.0173  0.1109 -0.0104
 6166TIP3    H142693   0.572   5.500   1.885 -0.3948 -1.2602 -1.6909
 6166TIP3    H242694   0.462   5.553   1.797 -0.7272  2.3474  0.7053
 6167TIP3   OH242695   0.791   5.450   7.319 -0.3103 -0.1171  0.2898
 6167TIP3    H142696   0.707   5.489   7.295  0.2772  0.5807 -0.7247
 6167TIP3    H242697   0.794   5.368   7.269 -0.8937 -0.7587  1.2672
 6168TIP3   OH242698   0.612   7.420   1.764  0.1938  0.1508  0.1554
 6168TIP3    H142699   0.673   7.353   1.733  1.1027  0.6119  0.8931
 6168TIP3    H242700   0.666   7.480   1.816 -1.1413 -0.2198  2.0648
 6169TIP3   OH242701   5.068   1.972   2.115  0.7807 -0.4916 -0.2827
 6169TIP3    H142702   5.159   1.998   2.101  0.6669 -0.0991 -0.2927
 6169TIP3    H242703   5.016   2.048   2.087  0.4730 -0.4384  0.4034
 6170TIP3   OH242704   1.788   4.527   3.075 -0.6430  0.0886 -0.4836
 6170TIP3    H142705   1.786   4.447   3.127  0.6336  0.3626  0.0511
 6170TIP3    H242706   1.701   4.565   3.085  0.0744  1.1648  3.2143
 6171TIP3   OH242707  -0.003   3.310   2.646 -0.7475  0.2146  0.2353
 6171TIP3    H142708  -0.026   3.400   2.624 -0.4859  0.0506 -0.7830
 6171TIP3    H242709  -0.087   3.264   2.649 -0.7888  0.2324 -0.5067
 6172TIP3   OH242710   6.523   4.118   0.201  0.4302  0.2773  0.5040
 6172TIP3    H142711   6.602   4.169   0.186  1.1301 -1.2971 -1.6202
 6172TIP3    H242712   6.502   4.080   0.116 -0.2097 -2.7089  1.8686
 6173TIP3   OH242713   3.194   0.618   0.650 -0.0924 -0.0756  0.2271
 6173TIP3    H142714   3.189   0.698   0.703 -1.4364  0.2535 -0.3545
 6173TIP3    H242715   3.249   0.644   0.575 -0.2789  0.2125  0.1880
 6174TIP3   OH242716   2.673   2.001   0.363 -0.6427 -0.3544  0.4156
 6174TIP3    H142717   2.701   2.090   0.385  0.1248  0.3328 -2.7981
 6174TIP3    H242718   2.586   2.013   0.325 -0.0591 -0.7423 -1.1291
 6175TIP3   OH242719   6.782   4.674   0.407  0.4095  0.0461  0.2332
 6175TIP3    H142720   6.865   4.683   0.455  0.4153 -1.3460  0.5051
 6175TIP3    H242721   6.808   4.658   0.316  0.4341 -0.0731  0.2612
 6176TIP3   OH242722   3.272   6.579   2.306 -0.5778 -0.5333 -0.4477
 6176TIP3    H142723   3.214   6.515   2.265 -0.5392 -0.3248 -0.8403
 6176TIP3    H242724   3.356   6.566   2.261  0.7265 -3.1544  2.3525
 6177TIP3   OH242725   3.447   5.275   9.792  0.2235 -0.5308 -0.0836
 6177TIP3    H142726   3.448   5.213   9.719 -1.3106 -0.2105 -0.4193
 6177TIP3    H242727   3.460   5.360   9.750  1.1877 -0.5128  0.2411
 6178TIP3   OH242728   4.317   7.265   9.674 -0.3247  0.3295  0.4710
 6178TIP3    H142729   4.375   7.232   9.742 -0.1516 -0.5425 -0.0952
 6178TIP3    H242730   4.354   7.350   9.650  1.7121 -0.9217 -1.0542
 6179TIP3   OH242731   4.536   2.146   7.279 -0.4751  0.2679  0.0691
 6179TIP3    H142732   4.563   2.226   7.234  3.1517 -1.2363 -0.7449
 6179TIP3    H242733   4.538   2.169   7.372 -0.3757  1.3417 -0.1866
 6180TIP3   OH242734   1.609   0.805   2.419  0.0197  0.3496 -0.3382
 6180TIP3    H142735   1.622   0.867   2.347 -0.1039 -0.7095 -1.2933
 6180TIP3    H242736   1.514   0.807   2.435  0.2192  1.7248  0.8633
 6181TIP3   OH242737   5.328   3.235   8.477 -0.3708 -0.1376 -0.7621
 6181TIP3    H142738   5.380   3.161   8.510 -0.8653 -0.4301 -0.6291
 6181TIP3    H242739   5.377   3.313   8.504 -0.5834 -0.3830  0.3578
 6182TIP3   OH242740   5.669   7.429   9.444 -0.2688  0.0369 -0.3950
 6182TIP3    H142741   5.652   7.362   9.377 -1.1870  0.3272 -0.4686
 6182TIP3    H242742   5.762   7.447   9.436  0.1869 -1.8289  0.1924
 6183TIP3   OH242743   4.142   0.115   8.339 -0.6821  0.3741  0.5648
 6183TIP3    H142744   4.124   0.110   8.245 -2.5271 -1.7182  0.9329
 6183TIP3    H242745   4.208   0.047   8.354 -2.0958 -0.9482  1.0558
 6184TIP3   OH242746   5.381   2.438   9.602  0.0975  0.1874  0.3712
 6184TIP3    H142747   5.287   2.451   9.590  0.1489 -0.2488 -0.6458
 6184TIP3    H242748   5.390   2.346   9.627  0.3876 -0.4210 -1.7814
 6185TIP3   OH242749   2.904   4.420   8.797 -0.7809 -0.5234 -0.2072
 6185TIP3    H142750   2.864   4.441   8.882  2.2795  0.1916  1.1745
 6185TIP3    H242751   2.832   4.429   8.734 -2.5884  1.5146  1.9578
 6186TIP3   OH242752   4.598   7.576   9.669 -0.2521  0.6366 -0.1324
 6186TIP3    H142753   4.602   7.526   9.751 -0.6518  1.0957  0.1763
 6186TIP3    H242754   4.646   7.523   9.606  0.7062  0.6230  0.5810
 6187TIP3   OH242755   1.523   1.414   7.887 -0.1690  0.5041 -0.5542
 6187TIP3    H142756   1.603   1.362   7.888 -0.5002 -0.0729 -1.7707
 6187TIP3    H242757   1.469   1.374   7.818 -1.8270  0.3856  0.7520
 6188TIP3   OH242758   4.788   5.519   9.497  0.6035  0.0933 -0.7340
 6188TIP3    H142759   4.732   5.444   9.514 -0.3029  0.7829 -0.5960
 6188TIP3    H242760   4.736   5.575   9.439  0.4448  1.5408  0.7316
 6189TIP3   OH242761   2.425   2.897   8.490 -0.0763  0.4357 -1.0898
 6189TIP3    H142762   2.360   2.852   8.437 -0.9217  0.7837 -0.3696
 6189TIP3    H242763   2.408   2.990   8.474 -1.9395  0.6570  1.5659
 6190TIP3   OH242764   4.403   2.457   2.319  0.0206  0.2315  0.2728
 6190TIP3    H142765   4.386   2.377   2.269 -1.3350  0.7481 -0.1533
 6190TIP3    H242766   4.497   2.471   2.311 -0.0616 -0.0106 -1.6841
 6191TIP3   OH242767   4.443   1.148   1.165 -0.5435 -0.2722  0.3519
 6191TIP3    H142768   4.475   1.073   1.215  1.7651 -0.1857 -0.8762
 6191TIP3    H242769   4.420   1.213   1.232  0.0845 -1.0477  1.3535
 6192TIP3   OH242770   0.304   4.594   8.664 -0.2233  0.1109  0.1533
 6192TIP3    H142771   0.222   4.593   8.714 -0.6493  0.1662 -0.5209
 6192TIP3    H242772   0.365   4.643   8.719 -1.0149  1.1760  0.1322
 6193TIP3   OH242773   2.346   2.023   7.421  0.3753  0.0072 -0.0770
 6193TIP3    H142774   2.422   2.052   7.471  0.4312 -1.5571  0.8142
 6193TIP3    H242775   2.274   2.078   7.453  0.6841 -0.0593  0.7572
 6194TIP3   OH242776   0.678   0.489   1.815  0.4764  0.6847  0.2655
 6194TIP3    H142777   0.622   0.559   1.781  1.3720  1.3354  0.1077
 6194TIP3    H242778   0.693   0.513   1.907 -1.3195 -0.6724  0.9811
 6195TIP3   OH242779   1.926   7.231   1.527 -0.0429  0.5795 -0.4160
 6195TIP3    H142780   1.881   7.153   1.559  0.8010  0.3969  0.3810
 6195TIP3    H242781   1.869   7.266   1.458 -0.9164 -0.1728 -0.0901
 6196TIP3   OH242782   0.509   6.136   8.366 -0.1269  0.7268 -0.0383
 6196TIP3    H142783   0.453   6.169   8.296 -0.3776 -0.8396 -0.6313
 6196TIP3    H242784   0.597   6.166   8.342 -0.0414 -0.6497 -1.6568
 6197TIP3   OH242785   1.915   3.784   7.645 -0.6651  0.0884  0.3632
 6197TIP3    H142786   1.976   3.730   7.695 -0.3942 -0.6620 -0.7254
 6197TIP3    H242787   1.886   3.727   7.574 -0.7449  1.2288 -0.5551
 6198TIP3   OH242788   6.586   6.946   0.035  0.0538 -0.4791  0.0074
 6198TIP3    H142789   6.633   6.955   0.118 -0.1318 -1.0842  0.1875
 6198TIP3    H242790   6.641   6.887  -0.017 -0.9778 -2.0450  0.6094
 6199TIP3   OH242791   0.916   5.844   8.528  0.0219  0.8172 -0.3037
 6199TIP3    H142792   1.011   5.852   8.542  0.1696 -0.4976 -0.4026
 6199TIP3    H242793   0.907   5.833   8.434 -0.2852  1.4433 -0.3524
 6200TIP3   OH242794   3.552   6.805   9.289  1.1574  0.3006  0.1190
 6200TIP3    H142795   3.638   6.769   9.310  0.5629 -2.6022 -1.8870
 6200TIP3    H242796   3.547   6.801   9.193 -0.9176  1.1840  0.1366
 6201TIP3   OH242797   0.177   4.884   0.901  0.2622 -0.0715 -0.2501
 6201TIP3    H142798   0.221   4.800   0.911  1.5274  0.4692 -1.0180
 6201TIP3    H242799   0.174   4.920   0.989  0.6211 -0.4750 -0.0681
 6202TIP3   OH242800   1.140   3.409  -0.005  0.0267  0.6470 -0.7305
 6202TIP3    H142801   1.235   3.398  -0.007  0.1257  0.3950  2.0176
 6202TIP3    H242802   1.112   3.388  -0.094  2.4079 -0.5673 -1.2768
 6203TIP3   OH242803   2.546   0.521   2.527 -0.6904  0.0669 -0.1451
 6203TIP3    H142804   2.631   0.479   2.535 -0.3213  0.8633  0.1501
 6203TIP3    H242805   2.509   0.518   2.615 -0.5895  0.5168 -0.0869
 6204TIP3   OH242806   3.484   5.595   9.921 -0.8701  0.3680  0.2892
 6204TIP3    H142807   3.503   5.563   9.833 -0.2016  0.6417  0.3297
 6204TIP3    H242808   3.543   5.545   9.978 -0.3045  1.1746  0.4233
 6205TIP3   OH242809   0.880   0.618   6.960  0.9106 -0.1558  0.1322
 6205TIP3    H142810   0.896   0.701   7.006  0.1278  0.1888 -0.1851
 6205TIP3    H242811   0.870   0.644   6.868 -0.3473 -0.4531  0.1645
 6206TIP3   OH242812   6.380   3.106   1.571  0.1982  0.9801  0.2520
 6206TIP3    H142813   6.442   3.168   1.532  0.2262  0.5654 -0.3702
 6206TIP3    H242814   6.325   3.160   1.628 -0.1471  1.6817 -0.7289
 6207TIP3   OH242815   1.910   0.068   1.759  0.2265 -0.4126 -0.5760
 6207TIP3    H142816   1.935   0.148   1.805  1.0848 -1.2462  0.4688
 6207TIP3    H242817   1.955   0.075   1.674 -1.0752  0.9644 -1.1937
 6208TIP3   OH242818   2.754   2.180   9.245 -0.0775  0.7319  0.3284
 6208TIP3    H142819   2.847   2.203   9.239 -0.0272  0.3021 -1.0913
 6208TIP3    H242820   2.712   2.257   9.283  0.9957  0.5082  2.0686
 6209TIP3   OH242821   0.386   0.243   0.581 -0.6133  0.1396 -0.4142
 6209TIP3    H142822   0.364   0.159   0.540 -2.1513  0.8643 -1.1449
 6209TIP3    H242823   0.480   0.237   0.599 -1.0260 -2.4976  1.3709
 6210TIP3   OH242824   4.707   7.637   7.422 -0.1917 -0.4974 -0.1078
 6210TIP3    H142825   4.685   7.573   7.489 -0.0304 -1.8613 -1.3148
 6210TIP3    H242826   4.625   7.650   7.373 -0.2405  0.2799  0.1634
 6211TIP3   OH242827   3.288   6.194   8.147  0.0127  0.5385  0.0537
 6211TIP3    H142828   3.379   6.180   8.121 -1.0289 -2.9095 -2.5331
 6211TIP3    H242829   3.249   6.238   8.071 -0.6843  1.1535  0.7580
 6212TIP3   OH242830   3.403   7.576   7.441 -0.4847 -0.1764  0.2080
 6212TIP3    H142831   3.442   7.576   7.354 -0.9476  0.2478  0.0014
 6212TIP3    H242832   3.411   7.485   7.470 -0.6829 -0.4061 -0.4388
 6213TIP3   OH242833   6.410   4.372   7.638 -0.2539  0.0304 -0.1771
 6213TIP3    H142834   6.377   4.403   7.722 -1.0526 -0.1980 -0.3966
 6213TIP3    H242835   6.410   4.450   7.582  0.1251  0.1478 -0.0200
 6214TIP3   OH242836   2.583   5.891   7.816 -0.1905  0.1167  0.5407
 6214TIP3    H142837   2.490   5.890   7.838 -0.1336  0.7774  0.8450
 6214TIP3    H242838   2.601   5.983   7.794  0.2025 -0.1565 -0.3373
 6215TIP3   OH242839   2.666   3.036   9.036  0.2950 -0.8622 -0.7825
 6215TIP3    H142840   2.663   3.035   8.940  1.5394 -1.2569 -0.8386
 6215TIP3    H242841   2.578   3.062   9.062 -0.8414 -3.1689 -1.9857
 6216TIP3   OH242842   3.861   5.637   9.053 -0.2841  0.5593 -0.0139
 6216TIP3    H142843   3.904   5.702   9.109 -1.4954 -1.0579  2.9644
 6216TIP3    H242844   3.905   5.555   9.073 -1.2369 -0.1920 -0.9184
 6217TIP3   OH242845   6.232   2.138   7.787 -0.7862  0.4568  0.3539
 6217TIP3    H142846   6.148   2.183   7.781 -1.6881 -1.2761 -1.3409
 6217TIP3    H242847   6.248   2.105   7.698  1.0040 -0.4450  0.9471
 6218TIP3   OH242848   0.500   6.197   1.281 -0.3798  0.0466  0.0070
 6218TIP3    H142849   0.546   6.115   1.297 -1.3454 -0.2914  1.1922
 6218TIP3    H242850   0.548   6.262   1.334 -0.6858 -0.1068  0.4701
 6219TIP3   OH242851   0.165   6.794   1.127  0.3439 -0.3329  0.0465
 6219TIP3    H142852   0.186   6.887   1.131  1.5809 -0.5460 -0.9782
 6219TIP3    H242853   0.091   6.784   1.188 -0.4921  1.4856 -0.5961
 6220TIP3   OH242854   5.387   2.739   7.953 -0.2287  0.4129 -0.0912
 6220TIP3    H142855   5.303   2.727   7.907 -0.4728  0.2930  0.3728
 6220TIP3    H242856   5.375   2.690   8.035  0.8661 -0.9370 -0.6995
 6221TIP3   OH242857   2.210   4.641   9.002  0.4100  1.0680  0.2906
 6221TIP3    H142858   2.220   4.735   9.016  0.2863  1.2741 -0.9627
 6221TIP3    H242859   2.199   4.631   8.908  0.1211 -0.1808  0.4380
 6222TIP3   OH242860   0.806   0.129   7.470 -0.1041  0.0053  0.5740
 6222TIP3    H142861   0.810   0.086   7.385  1.0154  1.2414 -0.0379
 6222TIP3    H242862   0.733   0.191   7.462 -0.2837 -0.1901  0.6793
 6223TIP3   OH242863   5.833   3.771   8.485  0.0141 -0.4821  0.3068
 6223TIP3    H142864   5.816   3.803   8.574  2.6172  0.4828  0.5658
 6223TIP3    H242865   5.782   3.691   8.478 -2.4897  0.8732  1.6137
 6224TIP3   OH242866   6.472   4.097   1.619 -0.4036 -0.0015 -1.1186
 6224TIP3    H142867   6.437   4.010   1.599 -0.4147 -0.0015 -1.1007
 6224TIP3    H242868   6.480   4.140   1.534  0.3588 -0.2999 -1.2014
 6225TIP3   OH242869   3.370   4.381   9.120 -0.7193  0.5667 -0.4594
 6225TIP3    H142870   3.309   4.388   9.046 -0.2989  0.7184 -0.7967
 6225TIP3    H242871   3.421   4.462   9.118 -0.0443  0.1493 -0.6017
 6226TIP3   OH242872   6.499   1.529   9.821  0.1931  0.5762 -0.4436
 6226TIP3    H142873   6.545   1.581   9.888  1.9209 -0.7387 -0.5339
 6226TIP3    H242874   6.424   1.492   9.866  0.7971  0.4945  0.5147
 6227TIP3   OH242875   6.317   5.649   7.958 -0.3937  0.7075 -0.4406
 6227TIP3    H142876   6.326   5.556   7.935 -1.8825  0.2920  0.4544
 6227TIP3    H242877   6.378   5.662   8.031 -2.1962 -0.3838  1.3841
 6228TIP3   OH242878   5.602   6.528   9.490  0.1492 -1.0475  0.7733
 6228TIP3    H142879   5.647   6.521   9.406 -0.3933 -1.8471  0.5448
 6228TIP3    H242880   5.523   6.577   9.472  2.1778  2.9739  1.6963
 6229TIP3   OH242881   1.037   3.146   8.402 -0.7298  0.0040 -0.3954
 6229TIP3    H142882   1.129   3.161   8.380 -0.5184  0.4495  0.7352
 6229TIP3    H242883   1.027   3.051   8.399 -0.0277 -0.1026  0.2154
 6230TIP3   OH242884   7.243   5.393   7.731 -0.0313 -0.0622 -0.1532
 6230TIP3    H142885   7.250   5.381   7.826  0.8068 -1.1528 -0.3293
 6230TIP3    H242886   7.169   5.453   7.720 -0.7459 -0.6392  1.1577
 6231TIP3   OH242887   6.947   2.593   0.839 -0.5293  0.4736  0.5923
 6231TIP3    H142888   7.038   2.620   0.848 -0.5236  0.9622 -0.6961
 6231TIP3    H242889   6.951   2.500   0.816 -0.4329  0.1122  1.9803
 6232TIP3   OH242890   3.501   6.949   1.896  0.0895  0.0361  0.5664
 6232TIP3    H142891   3.450   6.877   1.934 -0.4570  0.6564  1.0189
 6232TIP3    H242892   3.435   7.008   1.860  0.5647 -0.1056 -0.5777
 6233TIP3   OH242893   6.763   1.724   7.879 -0.0282 -0.2034  0.2131
 6233TIP3    H142894   6.814   1.803   7.893  1.5144 -1.0892 -0.1753
 6233TIP3    H242895   6.761   1.681   7.965 -0.0991 -0.1790  0.2238
 6234TIP3   OH242896   3.413   2.878   7.031  0.5250 -0.4472 -0.5452
 6234TIP3    H142897   3.454   2.826   7.101 -1.0615 -1.1529 -0.0880
 6234TIP3    H242898   3.473   2.951   7.017 -0.3345  1.3327  3.5746
 6235TIP3   OH242899   7.033   6.676   9.487 -0.4578 -0.3168  0.0496
 6235TIP3    H142900   7.093   6.742   9.520 -0.8517  0.3779 -0.5900
 6235TIP3    H242901   6.952   6.691   9.536 -0.6940 -0.0127 -0.4292
 6236TIP3   OH242902   6.313   0.631   2.339 -0.5315  0.4035 -0.2753
 6236TIP3    H142903   6.348   0.615   2.427 -1.7897  0.3232  0.2315
 6236TIP3    H242904   6.389   0.655   2.287  0.4647 -0.9568  0.4851
 6237TIP3   OH242905   1.928   0.218   2.085  0.2870  0.0260  0.6834
 6237TIP3    H142906   2.004   0.218   2.027  0.2630 -0.6489  0.6536
 6237TIP3    H242907   1.907   0.311   2.096  0.1354  0.1590 -0.5916
 6238TIP3   OH242908   5.691   4.499   7.389  0.6093 -0.0622  0.2662
 6238TIP3    H142909   5.729   4.412   7.375  0.9242  0.4838 -3.0803
 6238TIP3    H242910   5.600   4.481   7.416  0.6452 -1.4367 -0.4215
 6239TIP3   OH242911   0.424   5.696   0.986  0.0256 -0.2250  0.2890
 6239TIP3    H142912   0.463   5.634   1.047 -0.6184  0.5618  1.5256
 6239TIP3    H242913   0.350   5.734   1.033  0.0895  1.1091 -0.6112
 6240TIP3   OH242914   2.287   5.839   9.673 -0.3824  0.3072  0.2987
 6240TIP3    H142915   2.296   5.912   9.735 -0.4013  0.6976 -0.1507
 6240TIP3    H242916   2.195   5.841   9.648 -0.5889 -0.4423  0.9658
 6241TIP3   OH242917   2.446   6.638   1.872  0.2987 -0.6694 -0.3866
 6241TIP3    H142918   2.478   6.596   1.792 -0.2333  0.0379 -0.9784
 6241TIP3    H242919   2.486   6.725   1.872  0.7501 -0.8645  0.4182
 6242TIP3   OH242920   6.017   6.582   7.521  0.5793 -0.1650 -0.0296
 6242TIP3    H142921   5.961   6.616   7.452  0.0344  0.7819  0.8482
 6242TIP3    H242922   6.106   6.586   7.485  0.2373 -0.2879 -0.8939
 6243TIP3   OH242923   1.708   6.025   8.835  0.1457  0.4349  0.5495
 6243TIP3    H142924   1.706   6.116   8.805 -1.1596  0.2833  0.1108
 6243TIP3    H242925   1.738   6.031   8.926  0.4591  1.2538  0.4086
 6244TIP3   OH242926   7.358   6.713   8.637 -0.1687  0.8636 -0.1234
 6244TIP3    H142927   7.344   6.665   8.719 -1.0130  1.2178 -0.0410
 6244TIP3    H242928   7.443   6.756   8.648 -1.3092  2.8672  1.6017
 6245TIP3   OH242929   2.468   2.337   2.198 -0.7121  0.5013 -0.0843
 6245TIP3    H142930   2.550   2.288   2.193 -1.2644 -0.6111  1.2060
 6245TIP3    H242931   2.483   2.402   2.266 -1.0376  0.0010  0.4724
 6246TIP3   OH242932   1.835   3.218   7.837  0.2779  0.2671  0.6758
 6246TIP3    H142933   1.882   3.161   7.776  0.9525  1.2712  0.2286
 6246TIP3    H242934   1.742   3.196   7.825  0.5496 -0.9877  0.7923
 6247TIP3   OH242935   2.289   3.712   1.893 -0.2946 -0.4024 -0.0399
 6247TIP3    H142936   2.353   3.641   1.892  0.2762  0.0975  0.1568
 6247TIP3    H242937   2.304   3.758   1.810  1.0646  0.9705  0.9136
 6248TIP3   OH242938   6.685   4.928   0.384 -0.5786 -0.3516 -0.0915
 6248TIP3    H142939   6.671   4.920   0.290 -0.1369 -0.4173 -0.1539
 6248TIP3    H242940   6.685   4.837   0.416  0.6375 -0.4192 -0.2364
 6249TIP3   OH242941   5.224   6.964   7.223 -0.0329 -0.5050  0.5006
 6249TIP3    H142942   5.264   6.927   7.302  0.2486  1.1640  1.1734
 6249TIP3    H242943   5.296   6.970   7.161  0.0347 -0.5689  0.5715
 6250TIP3   OH242944   0.597   4.712   8.514  0.0420 -0.3322  0.6052
 6250TIP3    H142945   0.603   4.755   8.429 -2.3177  1.5371  1.2671
 6250TIP3    H242946   0.556   4.627   8.495 -0.6894  0.1711 -0.1079
 6251TIP3   OH242947   1.358   4.913   9.943 -0.0529  0.0124 -0.2260
 6251TIP3    H142948   1.360   4.860   9.864  1.6646 -0.4752  0.0947
 6251TIP3    H242949   1.276   4.890   9.986 -0.8928  0.1087 -1.7227
 6252TIP3   OH242950   1.308   1.427   8.605 -0.4257 -0.2378  0.1421
 6252TIP3    H142951   1.333   1.390   8.520 -0.1579  0.7260 -0.2123
 6252TIP3    H242952   1.325   1.357   8.667  2.5837  0.0791 -0.1413
 6253TIP3   OH242953   2.770   2.557   1.566 -0.2242 -0.3531 -0.2036
 6253TIP3    H142954   2.718   2.555   1.485 -1.6021  1.4521  0.5674
 6253TIP3    H242955   2.826   2.634   1.556 -2.1760  1.4196  1.4963
 6254TIP3   OH242956   0.091   4.570   0.593 -0.3462 -0.3398  0.4217
 6254TIP3    H142957   0.046   4.624   0.528  0.5912  0.6464  0.5689
 6254TIP3    H242958   0.180   4.604   0.596 -0.5729  0.2472  2.8439
 6255TIP3   OH242959   2.775   6.900   9.501 -0.0423  0.4691  0.4622
 6255TIP3    H142960   2.799   6.901   9.408 -0.0993  0.7350  0.4496
 6255TIP3    H242961   2.775   6.807   9.525 -0.3565  0.3792  0.1116
 6256TIP3   OH242962   5.452   0.838   9.754 -0.3293  0.1116 -0.3094
 6256TIP3    H142963   5.480   0.923   9.720 -0.9051  0.0444 -0.9642
 6256TIP3    H242964   5.409   0.796   9.680 -0.9164 -0.3527  0.2919
 6257TIP3   OH242965   7.230   1.290   8.127  0.3477 -0.6416 -0.3949
 6257TIP3    H142966   7.226   1.385   8.124  1.8890 -0.5349 -0.1570
 6257TIP3    H242967   7.248   1.264   8.036  1.7080 -0.5537 -0.1769
 6258TIP3   OH242968   5.583   3.579   7.496  0.0228 -0.0911 -0.2894
 6258TIP3    H142969   5.599   3.513   7.428  1.2287  0.6537 -0.7660
 6258TIP3    H242970   5.488   3.587   7.501 -0.1179  1.2092 -3.2635
 6259TIP3   OH242971   0.382   2.676   8.268  0.0238 -0.5465  0.4315
 6259TIP3    H142972   0.326   2.643   8.198 -1.1065  1.3810  0.3590
 6259TIP3    H242973   0.445   2.605   8.284  0.9314 -0.7058 -3.1443
 6260TIP3   OH242974   2.563   6.221   2.069 -0.1953  0.1894 -0.3966
 6260TIP3    H142975   2.529   6.184   1.987 -0.0704 -1.7513  0.3714
 6260TIP3    H242976   2.488   6.225   2.127 -0.1206  0.8183 -0.3301
 6261TIP3   OH242977   2.271   5.874   8.997 -0.4035  0.7611 -0.0085
 6261TIP3    H142978   2.249   5.862   9.090 -2.1073 -0.7380 -0.5552
 6261TIP3    H242979   2.194   5.845   8.950  0.4638  1.4199 -1.9385
 6262TIP3   OH242980   4.166   2.287   9.473  0.1967  0.2232  0.2072
 6262TIP3    H142981   4.171   2.199   9.435 -0.2231  0.1827  0.2431
 6262TIP3    H242982   4.250   2.298   9.519  1.7289  1.1711 -2.6031
 6263TIP3   OH242983   3.122   5.763   0.914 -0.1803  0.3825  0.2838
 6263TIP3    H142984   3.110   5.732   0.823  0.6434 -1.1426  0.6507
 6263TIP3    H242985   3.044   5.732   0.960  0.7887 -1.5898  0.7212
 6264TIP3   OH242986   6.708   3.443   9.909  0.6345  0.1805  0.2198
 6264TIP3    H142987   6.629   3.444   9.962  0.2177  0.8306 -0.3936
 6264TIP3    H242988   6.705   3.359   9.863 -0.2401  0.6290 -0.5780
 6265TIP3   OH242989   1.112   5.150   7.590  0.5766  0.2600  0.3216
 6265TIP3    H142990   1.147   5.210   7.524 -0.5179 -0.0607 -0.5689
 6265TIP3    H242991   1.028   5.122   7.555  0.7644 -1.2801  1.0470
 6266TIP3   OH242992   6.223   2.590   0.695 -0.5176 -0.2775  0.1190
 6266TIP3    H142993   6.242   2.635   0.613 -0.3515  1.2657  0.9779
 6266TIP3    H242994   6.297   2.530   0.707  0.1011  0.3971 -0.2301
 6267TIP3   OH242995   3.481   1.210   0.408  0.9379 -0.2860  0.0257
 6267TIP3    H142996   3.571   1.242   0.406  0.6357  0.7078 -3.0000
 6267TIP3    H242997   3.427   1.288   0.409  0.1072 -0.8473  0.2095
 6268TIP3   OH242998   6.486   2.889   0.970  0.5095  0.0504 -0.2856
 6268TIP3    H142999   6.504   2.973   1.013  1.3004  0.5093 -1.4819
 6268TIP3    H243000   6.519   2.823   1.031  0.7814  0.6497  0.2232
 6269TIP3   OH243001   0.444   3.081   0.692  0.2751  0.1211 -0.3959
 6269TIP3    H143002   0.478   3.004   0.738 -1.5886 -0.5577 -0.0710
 6269TIP3    H243003   0.446   3.151   0.758  1.4682  0.2604 -0.5406
 6270TIP3   OH243004   6.216   3.625   9.175  0.1686 -0.0568  0.2816
 6270TIP3    H143005   6.238   3.625   9.082  0.2565  1.1334  0.2805
 6270TIP3    H243006   6.223   3.717   9.201 -4.1980  0.4390  0.4301
 6271TIP3   OH243007   1.858   1.623   7.381 -0.1406  0.3403  0.2529
 6271TIP3    H143008   1.855   1.620   7.285 -1.5471  1.8084  0.2103
 6271TIP3    H243009   1.904   1.705   7.401 -1.2672  0.8681  0.7921
 6272TIP3   OH243010   1.960   4.052   7.222 -0.5167 -0.0260 -0.2747
 6272TIP3    H143011   1.991   4.132   7.264  1.3653 -1.6202  1.6846
 6272TIP3    H243012   2.031   3.989   7.238 -2.5157 -2.4592 -0.4358
 6273TIP3   OH243013   1.958   5.095   7.147  0.4107  0.6049 -0.0105
 6273TIP3    H143014   1.955   5.182   7.108  1.0978  0.8025  0.3484
 6273TIP3    H243015   1.976   5.111   7.240 -2.1335  0.1884  0.6270
 6274TIP3   OH243016   2.671   6.134   9.813 -0.0689  0.3514  0.2849
 6274TIP3    H143017   2.618   6.184   9.875  0.1494 -1.7672  2.3225
 6274TIP3    H243018   2.761   6.152   9.839  0.0108 -1.1141  1.1282
 6275TIP3   OH243019   6.553   4.480   9.413  0.4973  0.3244 -0.0929
 6275TIP3    H143020   6.514   4.560   9.378 -2.3051 -0.2956  1.2812
 6275TIP3    H243021   6.527   4.412   9.351 -0.3125 -0.0319  0.6165
 6276TIP3   OH243022   5.704   0.166   7.782 -0.4298 -0.4009  0.8395
 6276TIP3    H143023   5.723   0.104   7.712 -2.2552 -1.4787  1.2202
 6276TIP3    H243024   5.652   0.235   7.740  0.6048  0.2739  0.6501
 6277TIP3   OH243025   2.745   0.231   8.728  0.0179 -0.0979 -0.1097
 6277TIP3    H143026   2.793   0.257   8.807 -0.1593 -0.3938  0.0951
 6277TIP3    H243027   2.698   0.152   8.754 -0.6079  0.2073 -0.3002
 6278TIP3   OH243028   6.908   2.488   8.076 -0.0095  0.0919 -0.6090
 6278TIP3    H143029   6.866   2.524   7.998 -0.5308  0.3030 -0.2340
 6278TIP3    H243030   6.856   2.410   8.098 -0.8258  0.8873  0.4161
 6279TIP3   OH243031   4.691   3.257   8.879 -0.3217  0.1544 -0.5863
 6279TIP3    H143032   4.744   3.327   8.842 -0.5356  0.6135 -0.0443
 6279TIP3    H243033   4.615   3.302   8.917  0.3683 -0.1574  1.2905
 6280TIP3   OH243034   3.584   0.387   9.502 -1.0503  0.3327 -0.3387
 6280TIP3    H143035   3.621   0.355   9.584 -0.6490  0.9884 -0.2536
 6280TIP3    H243036   3.656   0.378   9.439 -1.1248  0.5020 -0.4478
 6281TIP3   OH243037   2.061   5.316   9.546  0.3180  0.6853  0.2218
 6281TIP3    H143038   2.076   5.231   9.506 -1.2904 -0.4133  1.8018
 6281TIP3    H243039   2.100   5.308   9.633  0.2759  1.6341  0.3353
 6282TIP3   OH243040   3.793   7.237   0.698  0.3416  0.2296 -0.3571
 6282TIP3    H143041   3.773   7.169   0.762  1.5934 -0.7266 -0.9291
 6282TIP3    H243042   3.744   7.314   0.727 -1.0470 -0.8866  0.3580
 6283TIP3   OH243043   1.237   1.227   7.988 -0.8241  0.4496  0.7690
 6283TIP3    H143044   1.263   1.162   8.053 -0.3605  0.7852  0.9248
 6283TIP3    H243045   1.316   1.246   7.939 -0.9400  0.9353  0.7625
 6284TIP3   OH243046   5.010   4.690   8.223  0.0283 -0.5845  0.6716
 6284TIP3    H143047   5.103   4.713   8.230 -0.0640 -0.7160  3.7336
 6284TIP3    H243048   4.967   4.771   8.197  1.0008 -0.6285 -1.2145
 6285TIP3   OH243049   2.005   7.383   8.768  0.0529 -0.3591  0.0066
 6285TIP3    H143050   2.073   7.329   8.809 -0.0214 -0.4420  0.0215
 6285TIP3    H243051   1.949   7.320   8.723  0.8861 -0.1718 -1.3390
 6286TIP3   OH243052   3.724   7.729   0.380 -0.9486  0.6705  0.0548
 6286TIP3    H143053   3.708   7.635   0.381  2.6836 -0.0899  1.2583
 6286TIP3    H243054   3.751   7.748   0.290 -2.5206  0.8356 -0.4254
 6287TIP3   OH243055   5.540   6.599   7.785  0.6558  0.3548 -0.6418
 6287TIP3    H143056   5.465   6.583   7.728 -0.8564  0.3804  1.2265
 6287TIP3    H243057   5.599   6.526   7.770 -0.7675 -0.8421 -0.5969
 6288TIP3   OH243058   2.181   7.560   1.654 -0.3471 -0.1101  0.1119
 6288TIP3    H143059   2.253   7.617   1.682 -0.6566 -0.1425  0.9930
 6288TIP3    H243060   2.135   7.611   1.586  0.2899  0.0541 -0.2045
 6289TIP3   OH243061   7.211   5.728   8.993 -0.2284 -0.1667  0.3160
 6289TIP3    H143062   7.226   5.808   9.043 -0.4645  0.7604 -1.0366
 6289TIP3    H243063   7.122   5.738   8.959 -0.6670 -1.5188  1.0055
 6290TIP3   OH243064   6.525   5.652   8.217 -0.2025 -0.4667 -0.2883
 6290TIP3    H143065   6.477   5.727   8.253 -0.9962 -1.2460  0.3130
 6290TIP3    H243066   6.470   5.576   8.236  1.2884 -1.4035  0.4795
 6291TIP3   OH243067   1.951   1.836   9.148 -0.2403  0.0456 -0.6624
 6291TIP3    H143068   1.984   1.903   9.087  0.6864 -0.4718 -0.7452
 6291TIP3    H243069   1.892   1.783   9.095  0.7159 -0.5237 -1.1932
 6292TIP3   OH243070   3.263   6.387   7.966  0.3468 -0.2669  0.6783
 6292TIP3    H143071   3.287   6.369   7.875  1.1571 -0.5323  0.9355
 6292TIP3    H243072   3.167   6.388   7.966  0.3374 -0.2557 -0.1754
 6293TIP3   OH243073   1.558   1.201   2.379 -0.4149 -0.0703  0.5696
 6293TIP3    H143074   1.473   1.157   2.383 -1.4906  1.9303  2.4533
 6293TIP3    H243075   1.583   1.213   2.470  0.6543  1.5576  0.1156
 6294TIP3   OH243076   5.796   3.428   9.013  0.2727 -0.1105  0.1769
 6294TIP3    H143077   5.880   3.388   8.991  0.4461  0.1155  0.4307
 6294TIP3    H243078   5.816   3.491   9.083 -0.0198  0.3273 -0.1295
 6295TIP3   OH243079   4.588   3.779   9.753  0.1710  0.2188 -0.0370
 6295TIP3    H143080   4.590   3.779   9.657  2.4104  0.3488 -0.0311
 6295TIP3    H243081   4.567   3.870   9.776  0.7606  0.4568 -0.4097
 6296TIP3   OH243082   3.224   1.157   9.564  0.0132  0.6238  0.5725
 6296TIP3    H143083   3.222   1.093   9.635  1.6855 -0.9262 -0.6834
 6296TIP3    H243084   3.132   1.170   9.541 -0.4008 -1.6530  0.6459
 6297TIP3   OH243085   3.476   5.134   9.562  0.0164  0.2709  0.5694
 6297TIP3    H143086   3.440   5.116   9.475 -0.4663 -2.7469  1.2654
 6297TIP3    H243087   3.563   5.169   9.546 -0.4955  0.8469 -1.1258
 6298TIP3   OH243088   5.652   3.104   8.745 -0.3000  0.4609  0.0960
 6298TIP3    H143089   5.588   3.101   8.673 -0.7374  1.9771  0.3796
 6298TIP3    H243090   5.634   3.025   8.796 -2.2235  1.0101  0.3575
 6299TIP3   OH243091   5.822   2.496   2.440  0.1835 -0.3245  0.4320
 6299TIP3    H143092   5.751   2.435   2.421 -0.4735 -0.0886  2.0056
 6299TIP3    H243093   5.875   2.452   2.506  0.9251 -0.0565  0.0302
 6300TIP3   OH243094   6.216   3.133   0.033 -0.2834  0.0391  0.0548
 6300TIP3    H143095   6.147   3.179   0.081 -0.4457 -0.7100  0.5531
 6300TIP3    H243096   6.224   3.181  -0.050 -1.6337 -0.0554 -0.1510
 6301TIP3   OH243097   3.824   6.952   1.989 -0.3175 -0.4432 -0.1142
 6301TIP3    H143098   3.784   7.001   1.918 -0.8611  1.5587  1.4845
 6301TIP3    H243099   3.815   7.009   2.066 -0.8534 -2.9713  1.8529
 6302TIP3   OH243100   7.392   4.315   0.001  0.7219 -0.0710 -1.1239
 6302TIP3    H143101   7.310   4.303   0.048  2.2084 -0.4671  1.6097
 6302TIP3    H243102   7.369   4.368  -0.075 -1.8255  0.8747  0.1890
 6303TIP3   OH243103   3.220   0.735   8.943 -0.0216  0.4290 -0.0998
 6303TIP3    H143104   3.295   0.676   8.942 -0.0108  0.4250 -1.5230
 6303TIP3    H243105   3.178   0.719   9.028 -0.1715 -1.8301 -0.5318
 6304TIP3   OH243106   5.989   3.005   9.834  0.1007  0.7555 -0.4463
 6304TIP3    H143107   5.916   3.045   9.785  0.4713 -0.8426 -2.4579
 6304TIP3    H243108   5.947   2.946   9.896 -0.3721  2.4665  0.9359
 6305TIP3   OH243109   4.864   1.671   0.683 -0.5789 -0.2814 -0.5805
 6305TIP3    H143110   4.868   1.582   0.647 -0.3909 -0.4087 -0.2473
 6305TIP3    H243111   4.780   1.675   0.728 -2.1322  0.7514 -3.2748
 6306TIP3   OH243112   1.111   0.090   8.249 -0.5546  0.6710 -0.2914
 6306TIP3    H143113   1.074   0.006   8.222  1.4919 -0.5188  0.3837
 6306TIP3    H243114   1.085   0.100   8.341  1.8881 -0.9213  0.6682
 6307TIP3   OH243115   2.366   6.107   8.224  0.3754  0.3571  0.2938
 6307TIP3    H143116   2.387   6.016   8.245 -1.4003 -0.3870 -0.9027
 6307TIP3    H243117   2.361   6.151   8.309 -0.0511 -0.9668  0.9795
 6308TIP3   OH243118   2.911   4.959   0.658  0.8899  0.3440 -0.3183
 6308TIP3    H143119   2.999   4.929   0.679  0.3290 -1.8430 -0.8376
 6308TIP3    H243120   2.878   4.896   0.595 -1.7722 -0.1076  1.3565
 6309TIP3   OH243121   1.620   2.093   7.980  0.3149 -0.4758  0.0007
 6309TIP3    H143122   1.651   2.166   7.927  1.2271  0.2893  1.5254
 6309TIP3    H243123   1.559   2.133   8.043 -0.5439 -1.3183 -0.2655
 6310TIP3   OH243124   5.116   1.442   8.924  0.0604  0.0961 -0.0381
 6310TIP3    H143125   5.190   1.461   8.982 -0.1200 -0.1781  0.2835
 6310TIP3    H243126   5.040   1.479   8.969  0.2368  2.1974 -1.2867
 6311TIP3   OH243127   0.883   3.133   7.124  0.3166  0.5321  0.1221
 6311TIP3    H143128   0.889   3.145   7.219 -1.6048  0.1556  0.3245
 6311TIP3    H243129   0.912   3.042   7.110 -1.3377 -0.1092  0.6315
 6312TIP3   OH243130   2.724   7.498   2.351  0.4140  0.1875  0.0850
 6312TIP3    H143131   2.729   7.442   2.273 -0.3880  0.6345 -0.3006
 6312TIP3    H243132   2.799   7.557   2.342 -0.6193  1.3811 -1.2864
 6313TIP3   OH243133   7.297   5.593   2.327 -0.1126  0.3840 -0.0887
 6313TIP3    H143134   7.299   5.664   2.391 -1.1143  0.9560 -0.6765
 6313TIP3    H243135   7.384   5.595   2.287 -0.2958  1.6074 -0.4454
 6314TIP3   OH243136   5.489   4.919   9.228 -0.1582  0.5974  0.2101
 6314TIP3    H143137   5.510   4.843   9.173 -0.7247  0.3538  0.3209
 6314TIP3    H243138   5.538   4.991   9.189  0.3483  0.1865  0.0732
 6315TIP3   OH243139   4.364   1.238   9.059  0.1228  0.5672  0.3359
 6315TIP3    H143140   4.319   1.190   9.128 -0.8613  0.7417 -0.1587
 6315TIP3    H243141   4.407   1.171   9.006 -1.2231  0.2025 -0.3377
 6316TIP3   OH243142   3.638   4.855   0.485  0.2081  0.4995 -0.0518
 6316TIP3    H143143   3.554   4.849   0.441  0.8632 -0.7689 -1.2300
 6316TIP3    H243144   3.637   4.784   0.549 -0.2487  1.5441  1.1310
 6317TIP3   OH243145   5.733   3.378   8.768 -0.3854  0.3705 -0.8414
 6317TIP3    H143146   5.732   3.388   8.863 -0.1908 -1.1358 -0.6632
 6317TIP3    H243147   5.706   3.287   8.753  0.5071  0.2956 -2.1726
 6318TIP3   OH243148   1.947   3.194   1.539  0.7608 -0.3692 -0.6897
 6318TIP3    H143149   2.000   3.201   1.618  2.1382  1.5879 -1.7056
 6318TIP3    H243150   1.857   3.208   1.569  1.2356  0.1652  0.5454
 6319TIP3   OH243151   2.984   6.655   1.780  0.4507 -0.5753  0.6564
 6319TIP3    H143152   3.042   6.627   1.710  1.3701  5.3384 -1.5743
 6319TIP3    H243153   2.896   6.652   1.742  0.4594 -0.9521  0.6648
 6320TIP3   OH243154   7.708   3.606   1.484  0.1712 -0.0858 -0.4068
 6320TIP3    H143155   7.725   3.521   1.524 -0.4119  0.2314  0.5370
 6320TIP3    H243156   7.701   3.667   1.557 -0.6392  0.5624 -0.9986
 6321TIP3   OH243157   6.481   7.384   1.585 -0.3565 -0.1627  0.0755
 6321TIP3    H143158   6.389   7.366   1.607 -0.5813 -1.8386 -1.8861
 6321TIP3    H243159   6.477   7.421   1.497  0.9165 -2.4203 -1.0162
 6322TIP3   OH243160   7.501   5.034   7.894  0.0982  0.2592  0.0310
 6322TIP3    H143161   7.579   5.087   7.906  0.8488 -0.7821 -0.1437
 6322TIP3    H243162   7.524   4.949   7.931 -0.4078 -0.5250 -1.3851
 6323TIP3   OH243163   6.711   0.737   1.968 -0.3861 -0.1303 -0.0811
 6323TIP3    H143164   6.768   0.662   1.984 -0.5379 -0.2237  0.0186
 6323TIP3    H243165   6.750   0.808   2.020 -1.0199 -0.4957  0.9219
 6324TIP3   OH243166   6.105   6.363   0.227 -0.2779  0.0337 -0.1093
 6324TIP3    H143167   6.040   6.376   0.296 -0.2447  0.5295 -0.1701
 6324TIP3    H243168   6.139   6.275   0.243  0.4054  0.4794  1.0938
 6325TIP3   OH243169   4.043   1.715   1.643 -0.0022  0.3093  0.0314
 6325TIP3    H143170   4.097   1.741   1.568 -1.6312  0.8478 -1.0247
 6325TIP3    H243171   3.998   1.636   1.614 -0.0532  0.0681  0.7514
 6326TIP3   OH243172   0.570   2.825   9.252  0.2748  0.2040  0.3071
 6326TIP3    H143173   0.620   2.757   9.297 -1.6335 -1.7424 -0.3090
 6326TIP3    H243174   0.499   2.847   9.313 -1.7011 -1.6820 -1.1473
 6327TIP3   OH243175   5.795   7.668   0.236 -0.9052  0.0699 -0.1398
 6327TIP3    H143176   5.741   7.632   0.307  0.4208  1.7372  1.8583
 6327TIP3    H243177   5.867   7.606   0.226  0.6967  1.3039  2.4180
 6328TIP3   OH243178   1.579   5.655   9.846  0.3038  0.0534 -0.3528
 6328TIP3    H143179   1.546   5.566   9.863 -0.9437  0.5012 -0.2714
 6328TIP3    H243180   1.547   5.676   9.759 -0.2318  0.7695  0.0061
 6329TIP3   OH243181   2.640   7.345   7.405  0.2922  0.3953  0.4694
 6329TIP3    H143182   2.600   7.268   7.445  1.2661 -1.2471 -1.5202
 6329TIP3    H243183   2.725   7.314   7.372  1.0952  2.5472  0.3313
 6330TIP3   OH243184   0.334   3.242   9.849  0.6724  0.7451  0.0810
 6330TIP3    H143185   0.348   3.164   9.902  0.5332  1.5614  1.3734
 6330TIP3    H243186   0.242   3.264   9.861  0.7993  1.3248  0.0651
 6331TIP3   OH243187   6.719   5.899   8.058  0.1148  0.2172  0.4085
 6331TIP3    H143188   6.711   5.831   8.125 -3.4456 -0.4444 -0.4527
 6331TIP3    H243189   6.745   5.978   8.107  2.7382 -1.2898  1.6681
 6332TIP3   OH243190   0.691   0.788   2.291 -0.5893  1.0962 -0.0944
 6332TIP3    H143191   0.680   0.862   2.352 -0.5695  1.0250 -0.0051
 6332TIP3    H243192   0.783   0.764   2.298 -0.8350  0.3218  0.7315
 6333TIP3   OH243193   0.586   2.870   0.114  0.8084  0.1077 -0.1935
 6333TIP3    H143194   0.665   2.892   0.163  0.6395 -0.6673  0.4683
 6333TIP3    H243195   0.538   2.811   0.172 -0.5805  1.0708 -0.3045
 6334TIP3   OH243196   4.052   1.052   8.901  0.1143 -0.1728 -0.1347
 6334TIP3    H143197   4.035   1.134   8.854 -0.8999 -1.1328 -1.5531
 6334TIP3    H243198   4.005   1.063   8.984 -1.3021  0.1350 -0.9308
 6335TIP3   OH243199   1.655   5.266   1.565 -0.6479  0.4722 -0.1404
 6335TIP3    H143200   1.685   5.235   1.479 -1.2718  0.3457 -0.3168
 6335TIP3    H243201   1.592   5.200   1.594 -0.7702  0.7428  0.2171
 6336TIP3   OH243202   0.967   0.327   8.426  0.8230  0.4675  0.3030
 6336TIP3    H143203   0.917   0.407   8.443 -0.3213 -0.3683  0.9885
 6336TIP3    H243204   1.058   0.352   8.443  0.3921  1.3869  1.4153
 6337TIP3   OH243205   5.659   7.001   0.336 -0.3541 -0.6175  0.4338
 6337TIP3    H143206   5.645   6.925   0.392  0.5700  1.0181  3.0731
 6337TIP3    H243207   5.750   6.994   0.308  0.2240  0.2563  1.9887
 6338TIP3   OH243208   1.733   0.122   2.356 -0.0264  0.0658 -0.3806
 6338TIP3    H143209   1.750   0.028   2.362 -0.0919 -0.0297 -1.4824
 6338TIP3    H243210   1.778   0.149   2.276 -1.8586  0.5409 -1.2949
 6339TIP3   OH243211   3.323   2.051   0.282  0.2219  0.2173  0.0702
 6339TIP3    H143212   3.237   2.072   0.246 -0.5177 -0.1333  1.5501
 6339TIP3    H243213   3.335   1.958   0.262 -1.0472 -0.4957  2.2726
 6340TIP3   OH243214   0.750   6.928   8.638  0.3882 -0.2694 -0.2582
 6340TIP3    H143215   0.809   6.853   8.639  2.7796  1.5077  0.7004
 6340TIP3    H243216   0.712   6.929   8.726  0.0097 -0.5708 -0.4120
 6341TIP3   OH243217   2.562   6.932   8.380  0.1967 -0.4073 -0.2464
 6341TIP3    H143218   2.563   6.892   8.468  0.7314 -1.2446 -0.6207
 6341TIP3    H243219   2.614   7.011   8.389  0.3561 -0.5546  0.1696
 6342TIP3   OH243220   3.780   2.983   7.024  0.4580  0.3013 -0.4601
 6342TIP3    H143221   3.833   2.909   6.995 -0.9367  0.3044 -3.3807
 6342TIP3    H243222   3.718   2.945   7.086  0.7321 -0.6805 -0.7677
 6343TIP3   OH243223   5.795   2.423   1.233  0.7094  0.0385 -0.6272
 6343TIP3    H143224   5.807   2.518   1.230 -0.5219  0.4036  2.2912
 6343TIP3    H243225   5.879   2.389   1.265  0.2749  0.5228  1.1546
 6344TIP3   OH243226   7.406   0.701   7.401 -0.3631  0.0644 -0.1126
 6344TIP3    H143227   7.372   0.781   7.441  1.2140  0.9932 -0.5355
 6344TIP3    H243228   7.414   0.722   7.308  0.1341 -0.5499 -0.2172
 6345TIP3   OH243229   4.838   1.076   7.368 -0.1575 -0.1784  0.3841
 6345TIP3    H143230   4.872   0.991   7.341  0.5790  0.4124 -0.5947
 6345TIP3    H243231   4.774   1.099   7.301 -0.8057 -0.2115  0.9704
 6346TIP3   OH243232   2.406   2.135   1.491  0.2411 -0.2671  0.0781
 6346TIP3    H143233   2.485   2.169   1.449  0.1629 -0.8717 -0.5904
 6346TIP3    H243234   2.397   2.046   1.456 -1.4832  0.2548 -0.9111
 6347TIP3   OH243235   6.733   2.102   0.092 -0.6026  0.5889 -0.4457
 6347TIP3    H143236   6.722   2.081  -0.001 -1.5524  1.2155 -0.4951
 6347TIP3    H243237   6.706   2.194   0.098 -0.8084  0.4725  0.4983
 6348TIP3   OH243238   6.134   2.867   7.875 -1.0956  0.0319 -0.1362
 6348TIP3    H143239   6.194   2.812   7.926 -0.2000 -0.9819 -2.1726
 6348TIP3    H243240   6.176   2.953   7.873 -0.0013 -0.5084 -1.0107
 6349TIP3   OH243241   2.448   1.786   3.356  0.6764 -0.1696 -0.0621
 6349TIP3    H143242   2.529   1.815   3.398 -0.3248  0.2406  1.6978
 6349TIP3    H243243   2.423   1.706   3.402 -0.5473  0.3762  0.2762
 6350TIP3   OH243244   0.451   4.924   1.405  0.3364  0.5893 -0.1067
 6350TIP3    H143245   0.543   4.935   1.427  0.6898  1.5138 -1.8501
 6350TIP3    H243246   0.451   4.891   1.315 -1.0076  2.1286 -0.7357
 6351TIP3   OH243247   3.622  -0.007   9.529  0.2032  0.0563  0.4743
 6351TIP3    H143248   3.573  -0.076   9.483  0.1873  0.8281 -0.7284
 6351TIP3    H243249   3.558   0.062   9.542  0.0006 -0.4608  2.4435
 6352TIP3   OH243250   1.064   0.045   7.523 -0.3457 -0.6558  0.4722
 6352TIP3    H143251   0.974   0.076   7.516  0.4430  1.5718 -0.8079
 6352TIP3    H243252   1.092   0.032   7.432  0.8894 -0.4654  0.8108
 6353TIP3   OH243253   2.685   6.098   8.968  0.2371 -0.1948  0.1979
 6353TIP3    H143254   2.593   6.097   8.944 -0.1185  0.8276  1.3929
 6353TIP3    H243255   2.706   6.006   8.987 -1.0132 -0.2364  1.5498
 6354TIP3   OH243256   1.090   7.525   1.966  0.2449  0.1261  0.2593
 6354TIP3    H143257   1.063   7.555   1.879  1.4539  0.4544 -0.0310
 6354TIP3    H243258   1.185   7.540   1.967  0.0345  1.8104  2.2745
 6355TIP3   OH243259   4.094   1.659   2.300  0.4299  0.2762  0.2315
 6355TIP3    H143260   4.022   1.721   2.285  0.2967 -0.5500 -3.6069
 6355TIP3    H243261   4.164   1.688   2.241  2.2985 -0.4442  1.9825
 6356TIP3   OH243262   3.032   0.487   0.883 -0.4891  0.2537  0.3303
 6356TIP3    H143263   3.065   0.514   0.797 -2.7347  0.8167 -0.4286
 6356TIP3    H243264   3.033   0.391   0.881  0.8923  0.2512  0.2942
 6357TIP3   OH243265   1.928   0.988   7.376 -0.3385 -0.6235 -0.0806
 6357TIP3    H143266   1.871   0.952   7.444 -0.0648  2.5733  2.0299
 6357TIP3    H243267   2.016   0.962   7.403 -0.2571  0.3845  0.6729
 6358TIP3   OH243268   2.521   3.693   8.160 -0.2362 -0.4129  0.0196
 6358TIP3    H143269   2.514   3.671   8.067 -0.5010 -0.6444  0.0942
 6358TIP3    H243270   2.453   3.641   8.202  1.4678 -2.1993  0.6682
 6359TIP3   OH243271   7.192   7.588   1.751  0.0595  0.0380  0.2301
 6359TIP3    H143272   7.123   7.639   1.707 -0.7065 -0.0167  1.3182
 6359TIP3    H243273   7.153   7.563   1.835  0.1999 -2.7809 -0.4351
 6360TIP3   OH243274   7.670   3.976   0.588  0.4952 -0.4068 -0.1579
 6360TIP3    H143275   7.683   3.906   0.652 -1.0003 -1.5193 -1.0075
 6360TIP3    H243276   7.674   4.056   0.640  1.3033 -1.1528  0.9937
 6361TIP3   OH243277   5.954   1.111   9.105 -0.2464  0.0211  0.4444
 6361TIP3    H143278   6.008   1.165   9.163  1.4855 -1.8075  0.6602
 6361TIP3    H243279   6.016   1.076   9.040 -1.8383  0.6962 -1.5638
 6362TIP3   OH243280   3.603   1.858   9.642 -0.0605 -0.2524 -0.1548
 6362TIP3    H143281   3.666   1.856   9.570 -1.6143 -1.3431 -1.5805
 6362TIP3    H243282   3.653   1.833   9.719  1.6755  1.0084 -0.8162
 6363TIP3   OH243283   3.531   5.642   8.791 -0.0341  0.8096  0.0750
 6363TIP3    H143284   3.483   5.717   8.825  0.9836  0.9681  1.1933
 6363TIP3    H243285   3.555   5.591   8.868 -0.0230 -0.2595 -0.6100
 6364TIP3   OH243286   2.918   4.313   8.455 -0.2067 -0.0503 -0.0693
 6364TIP3    H143287   2.966   4.396   8.453 -1.5749  0.9007  2.3349
 6364TIP3    H243288   2.969   4.257   8.513  0.6355 -0.9156 -1.5735
 6365TIP3   OH243289   7.689   0.853   1.877  0.8549  0.0578 -0.5216
 6365TIP3    H143290   7.668   0.899   1.958 -1.2916 -0.0001 -0.9988
 6365TIP3    H243291   7.752   0.786   1.903  0.6200  0.3942  0.9963
 6366TIP3   OH243292   7.501   0.250   9.409 -0.0028  0.2317 -0.1257
 6366TIP3    H143293   7.519   0.287   9.323  0.0427  0.7805  0.1136
 6366TIP3    H243294   7.410   0.220   9.403 -0.3825  1.3068 -0.0219
 6367TIP3   OH243295   5.187   2.198   0.054 -0.1639  0.0978  0.3748
 6367TIP3    H143296   5.113   2.255   0.033  0.4481  1.1061  0.9001
 6367TIP3    H243297   5.149   2.131   0.111 -0.6435  0.7019  0.7810
 6368TIP3   OH243298   4.627   7.583   0.060  0.2950 -0.0053  0.0443
 6368TIP3    H143299   4.609   7.662   0.111 -0.6016 -0.2080  0.0660
 6368TIP3    H243300   4.716   7.595   0.028  0.5011  0.5943  0.8070
 6369TIP3   OH243301   5.744   0.381   2.072  0.6040 -0.1848  0.4442
 6369TIP3    H143302   5.665   0.328   2.059  0.1283  0.7374 -0.6385
 6369TIP3    H243303   5.758   0.380   2.167  0.1126 -1.5052  0.5290
 6370TIP3   OH243304   4.051   2.686   0.086 -0.4100 -0.4994 -0.2473
 6370TIP3    H143305   4.146   2.699   0.096 -0.4489 -0.5642  0.2380
 6370TIP3    H243306   4.015   2.714   0.170 -0.9531  0.8102 -0.8826
 6371TIP3   OH243307   6.525   6.325   0.857 -0.3495 -0.3928  0.3361
 6371TIP3    H143308   6.465   6.297   0.789 -0.9742 -0.1953  0.7943
 6371TIP3    H243309   6.469   6.359   0.927  0.3293  1.1222  0.1972
 6372TIP3   OH243310   5.751   7.136   7.268  0.0781  0.0386 -0.3510
 6372TIP3    H143311   5.719   7.208   7.322 -1.2240 -0.7951  0.0031
 6372TIP3    H243312   5.824   7.099   7.318  0.1214  0.4922 -0.0769
 6373TIP3   OH243313   6.464   1.964   9.603 -0.1131 -0.1602 -0.3896
 6373TIP3    H143314   6.476   1.870   9.593  1.9502 -0.0352  0.3986
 6373TIP3    H243315   6.470   1.999   9.514  1.7711 -0.5626 -0.4633
 6374TIP3   OH243316   3.620   4.437   9.275 -0.2146 -0.3091 -0.4945
 6374TIP3    H143317   3.567   4.361   9.299 -0.2506  0.4836  2.1982
 6374TIP3    H243318   3.707   4.417   9.308 -0.2251  0.7846  0.2463
 6375TIP3   OH243319   6.770   5.771   8.298  0.0657  0.9481  0.3629
 6375TIP3    H143320   6.689   5.722   8.311  0.4010  0.4947  0.7741
 6375TIP3    H243321   6.783   5.818   8.380  1.0427 -0.2186  0.9084
 6376TIP3   OH243322   6.354   0.173   1.198 -0.1898 -0.2129 -0.5590
 6376TIP3    H143323   6.427   0.210   1.149  0.4998  0.0096  0.6017
 6376TIP3    H243324   6.307   0.119   1.134  1.1379 -0.5647 -1.2633
 6377TIP3   OH243325   5.437   6.405   9.689  0.0394 -0.1959  0.0381
 6377TIP3    H143326   5.425   6.489   9.732  1.9497 -0.4067  1.0745
 6377TIP3    H243327   5.507   6.420   9.626  1.4538 -1.3145  1.2689
 6378TIP3   OH243328   6.022   2.703   2.598 -0.3471  0.3565 -0.5269
 6378TIP3    H143329   6.010   2.610   2.617 -0.9149  0.3751 -0.7766
 6378TIP3    H243330   6.107   2.724   2.635 -1.9211  0.7292  3.3929
 6379TIP3   OH243331   3.035   0.744   7.391 -0.7870  0.4430 -0.3628
 6379TIP3    H143332   2.987   0.664   7.369  1.1807 -0.3182 -2.1976
 6379TIP3    H243333   3.004   0.809   7.327 -0.9365  0.5752 -0.1569
 6380TIP3   OH243334   0.712   3.077   2.147  0.0963 -0.3848  0.1949
 6380TIP3    H143335   0.657   3.039   2.078  0.0168 -0.8110  0.4911
 6380TIP3    H243336   0.784   3.014   2.158 -0.6186 -1.0187  1.4525
 6381TIP3   OH243337   1.754   6.848   0.162 -0.4297  0.1750 -0.0565
 6381TIP3    H143338   1.708   6.764   0.161 -1.4035  0.6618  0.7379
 6381TIP3    H243339   1.789   6.858   0.074  2.9272 -2.7285  0.7233
 6382TIP3   OH243340   4.673   0.702   1.540  0.0716  0.4108  0.0124
 6382TIP3    H143341   4.615   0.683   1.614 -0.6507  0.7542 -0.4601
 6382TIP3    H243342   4.619   0.688   1.463  0.7488  0.3156 -0.4504
 6383TIP3   OH243343   6.998   0.505   9.900  0.5308  0.0699  0.1183
 6383TIP3    H143344   6.922   0.531   9.951  0.7370  0.0221  0.4518
 6383TIP3    H243345   6.965   0.440   9.838 -0.3943  2.3970 -1.9863
 6384TIP3   OH243346   1.011   4.202   2.718  0.2277  0.1461  0.5208
 6384TIP3    H143347   1.022   4.219   2.811  1.2855 -1.8694  0.8316
 6384TIP3    H243348   0.924   4.236   2.698 -0.8553 -1.0938  2.7171
 6385TIP3   OH243349   2.742   7.232   0.560 -0.3065 -0.0033 -0.3773
 6385TIP3    H143350   2.650   7.258   0.552 -0.7267 -1.0472  0.8093
 6385TIP3    H243351   2.740   7.145   0.599  1.2135  0.4731  0.9090
 6386TIP3   OH243352   0.502   7.104   2.398  0.0781  0.4198  0.3070
 6386TIP3    H143353   0.564   7.176   2.393 -1.7279  2.0112 -0.4180
 6386TIP3    H243354   0.456   7.117   2.481  0.4993 -0.5662  0.7032
 6387TIP3   OH243355   0.386   3.653   1.381  0.0266 -0.0282 -0.3827
 6387TIP3    H143356   0.442   3.704   1.440  0.5177  0.9768 -1.6511
 6387TIP3    H243357   0.448   3.602   1.329 -0.4319 -1.4169  0.4073
 6388TIP3   OH243358   5.110   0.830   0.996 -0.2841  0.8825 -0.0087
 6388TIP3    H143359   5.133   0.744   0.961 -0.1020  0.8452  0.1959
 6388TIP3    H243360   5.079   0.880   0.920 -0.4460  0.6179 -0.1154
 6389TIP3   OH243361   1.519   4.416   8.660  0.0524  0.0279  0.3385
 6389TIP3    H143362   1.425   4.413   8.643  0.1991 -0.3102 -0.4992
 6389TIP3    H243363   1.549   4.492   8.610  0.1688  0.3721  0.9259
 6390TIP3   OH243364   7.606   5.587   9.248 -0.0597 -0.1753 -0.0276
 6390TIP3    H143365   7.609   5.509   9.193  2.3876  0.5011 -1.0194
 6390TIP3    H243366   7.656   5.562   9.326 -1.6138 -0.4271  0.9099
 6391TIP3   OH243367   3.491   2.876   9.033 -0.0858  0.1144 -1.0050
 6391TIP3    H143368   3.581   2.897   9.011  0.1793  0.4390  0.2934
 6391TIP3    H243369   3.487   2.780   9.026  0.9505 -0.1193  0.8841
 6392TIP3   OH243370   5.003   2.751   1.232 -0.2487 -0.6556  0.0237
 6392TIP3    H143371   5.080   2.799   1.263 -0.5713  0.5630 -0.9785
 6392TIP3    H243372   5.007   2.667   1.278  2.2041 -1.0085 -0.7040
 6393TIP3   OH243373   6.128   1.846   8.188 -0.1167  0.6790  0.0966
 6393TIP3    H143374   6.115   1.795   8.108 -2.4680  0.6514  0.4039
 6393TIP3    H243375   6.156   1.932   8.158  0.6010  0.1977 -0.6460
 6394TIP3   OH243376   2.463   1.893   9.429 -0.6478  0.3443 -0.3803
 6394TIP3    H143377   2.396   1.892   9.498 -0.5673  2.0189 -0.2309
 6394TIP3    H243378   2.425   1.947   9.360  0.2702  0.7487 -0.5824
 6395TIP3   OH243379   7.490   2.445   1.754  0.2503  0.1370  0.0851
 6395TIP3    H143380   7.580   2.416   1.743  1.1946  2.7910  0.0080
 6395TIP3    H243381   7.468   2.421   1.844  0.2531 -2.3480 -0.5267
 6396TIP3   OH243382   2.560   0.579   8.160  0.0870  0.0396  0.0523
 6396TIP3    H143383   2.532   0.523   8.232  0.7536  0.0025  0.2972
 6396TIP3    H243384   2.537   0.530   8.081 -0.5570  0.0345  0.2375
 6397TIP3   OH243385   0.294   7.440   8.885  0.3015 -0.4410 -0.3311
 6397TIP3    H143386   0.344   7.454   8.805  0.3820 -0.8561 -0.3563
 6397TIP3    H243387   0.340   7.370   8.930  0.2494 -0.2164  0.0741
 6398TIP3   OH243388   6.795   0.553   9.638 -0.2859  0.1046  0.3553
 6398TIP3    H143389   6.728   0.582   9.575  0.0355  0.1086  0.0082
 6398TIP3    H243390   6.856   0.627   9.643 -0.1217 -0.0336  0.4002
 6399TIP3   OH243391   1.816   6.973   1.597 -0.0236  0.3197  0.5365
 6399TIP3    H143392   1.725   6.996   1.613  0.1747 -0.1359  2.6880
 6399TIP3    H243393   1.838   6.914   1.670  2.0443  0.5921  0.1801
 6400TIP3   OH243394   6.127   2.643   8.773  0.3276 -0.0643  0.0840
 6400TIP3    H143395   6.061   2.585   8.811  1.0903 -0.5687  0.6642
 6400TIP3    H243396   6.159   2.597   8.696 -2.0713  1.4753 -1.9989
 6401TIP3   OH243397   0.297   3.397   1.275  0.6997 -0.9220  0.3912
 6401TIP3    H143398   0.272   3.422   1.364  0.4966 -0.9207  0.3322
 6401TIP3    H243399   0.217   3.402   1.224  1.2418  1.3878 -0.3271
 6402TIP3   OH243400   6.781   0.895   1.515  0.0012  0.7735  0.0249
 6402TIP3    H143401   6.860   0.910   1.566 -0.3022  1.2615  0.3613
 6402TIP3    H243402   6.720   0.853   1.576  0.4801 -0.9487 -0.6215
 6403TIP3   OH243403   5.839   1.144   1.991  0.5338 -0.2782 -0.1748
 6403TIP3    H143404   5.922   1.179   2.023  0.2947  0.4266 -0.3184
 6403TIP3    H243405   5.786   1.134   2.070  0.0440  1.1965 -0.2808
 6404TIP3   OH243406   5.194   1.922   2.609 -0.5304 -0.1195 -0.0694
 6404TIP3    H143407   5.206   1.841   2.659 -1.1544 -0.6511 -0.7604
 6404TIP3    H243408   5.187   1.990   2.676 -0.9809 -0.7674  0.5630
 6405TIP3   OH243409   3.080   2.148   9.484 -0.0860 -0.1135  0.0175
 6405TIP3    H143410   3.163   2.167   9.439 -1.9644  0.9271 -3.3631
 6405TIP3    H243411   3.070   2.220   9.547  1.0546  0.3271 -0.2748
 6406TIP3   OH243412   1.503   2.333   9.530 -0.4455 -0.0078 -0.2988
 6406TIP3    H143413   1.563   2.308   9.460 -0.5278  0.2283 -0.4560
 6406TIP3    H243414   1.504   2.259   9.591 -0.5890 -0.3406 -0.6936
 6407TIP3   OH243415   3.444   6.129   0.056 -0.3135 -0.2313  0.0126
 6407TIP3    H143416   3.390   6.205   0.033  0.1297 -0.6171 -2.6132
 6407TIP3    H243417   3.525   6.168   0.090 -0.4845  0.4694 -0.3454
 6408TIP3   OH243418   3.866   1.574   8.836 -0.1553  0.0591 -0.1748
 6408TIP3    H143419   3.919   1.592   8.914 -0.4535  1.5096 -0.2768
 6408TIP3    H243420   3.916   1.509   8.788  1.4322  1.1979 -0.1421
 6409TIP3   OH243421   5.414   0.061   1.348  0.2457 -1.0493 -0.4409
 6409TIP3    H143422   5.409  -0.033   1.363  0.2253 -0.8573  0.8078
 6409TIP3    H243423   5.349   0.099   1.407  1.5027 -0.1286  0.4108
 6410TIP3   OH243424   0.437   4.734   8.845  0.2388 -0.0994 -0.1119
 6410TIP3    H143425   0.460   4.811   8.793  1.5900  0.6262  1.4850
 6410TIP3    H243426   0.363   4.762   8.899  2.0731  0.8398  2.0277
 6411TIP3   OH243427   7.399   3.353   8.820 -0.4006 -0.2594  0.3195
 6411TIP3    H143428   7.322   3.350   8.877 -0.5523  0.0257  0.1320
 6411TIP3    H243429   7.398   3.442   8.783  0.1631 -0.1693  0.5153
 6412TIP3   OH243430   3.435   2.933   0.652 -0.2937 -0.3377  0.6364
 6412TIP3    H143431   3.457   3.025   0.641 -2.1935  0.1315  0.3901
 6412TIP3    H243432   3.457   2.913   0.743  0.3545  0.2710  0.6215
 6413TIP3   OH243433   4.288   3.149   8.230 -0.0005 -0.0149  0.6508
 6413TIP3    H143434   4.339   3.206   8.287  0.1126  1.3924 -0.7940
 6413TIP3    H243435   4.197   3.162   8.258  0.0934  0.3224  0.7977
 6414TIP3   OH243436   1.464   7.247   2.030 -0.4383  0.3788  0.1473
 6414TIP3    H143437   1.486   7.255   2.123  0.7013 -2.2756  0.1988
 6414TIP3    H243438   1.403   7.173   2.027  0.2563 -0.1712 -1.2792
 6415TIP3   OH243439   4.252   6.967   6.831  0.1492 -0.4263 -1.1144
 6415TIP3    H143440   4.218   7.006   6.750  0.7307  1.0659 -0.6818
 6415TIP3    H243441   4.197   6.890   6.846 -0.9388  0.1237 -2.1252
 6416TIP3   OH243442   3.013   0.364   2.843  0.1066 -0.1556  0.0083
 6416TIP3    H143443   3.102   0.361   2.876  0.4736 -1.6712 -0.9945
 6416TIP3    H243444   2.964   0.302   2.898 -0.3809  0.7885  0.6595
 6417TIP3   OH243445   4.456   1.411   0.809 -0.3770  0.2190  0.0313
 6417TIP3    H143446   4.384   1.471   0.790 -0.9093  0.2113  1.9132
 6417TIP3    H243447   4.414   1.335   0.849  0.6257  0.0476  0.7836
 6418TIP3   OH243448   7.204   7.453   8.178  0.0695  0.1839 -0.0246
 6418TIP3    H143449   7.189   7.529   8.234  0.2337  0.0550  0.1923
 6418TIP3    H243450   7.247   7.489   8.100 -1.9898  0.6926 -1.0005
 6419TIP3   OH243451   0.926   5.770   2.651 -0.0154 -0.1755 -0.2859
 6419TIP3    H143452   0.883   5.685   2.649  0.1851 -0.2628 -0.9857
 6419TIP3    H243453   1.009   5.757   2.605  0.0844  0.3614 -0.2697
 6420TIP3   OH243454   5.703   1.862   8.412  0.5087 -0.3134  0.5635
 6420TIP3    H143455   5.671   1.803   8.344 -0.0875  0.3865  0.2216
 6420TIP3    H243456   5.792   1.832   8.430  0.4677 -0.8691 -0.1072
 6421TIP3   OH243457   0.850   7.322   9.367 -0.6302  0.2900  0.3759
 6421TIP3    H143458   0.782   7.389   9.378 -0.1028  0.8969 -0.0131
 6421TIP3    H243459   0.930   7.371   9.349 -0.2139 -0.4423  0.1928
 6422TIP3   OH243460   2.402   1.764   0.372  0.4171 -0.2720  0.8527
 6422TIP3    H143461   2.465   1.780   0.301  1.3836 -0.1442  1.7100
 6422TIP3    H243462   2.325   1.814   0.347 -0.5048 -2.7330 -1.6891
 6423TIP3   OH243463   3.937   3.669   8.541 -0.0296  0.1013  0.1047
 6423TIP3    H143464   3.962   3.641   8.629 -0.5416  0.4173  0.3601
 6423TIP3    H243465   3.864   3.612   8.518 -1.0006  1.1260  0.5820
 6424TIP3   OH243466   2.940   2.146   1.031 -0.7544  0.1406 -0.2256
 6424TIP3    H143467   2.847   2.160   1.012 -0.5920  1.0911 -0.3584
 6424TIP3    H243468   2.955   2.054   1.011 -1.1473  0.5048 -2.5024
 6425TIP3   OH243469   3.781   1.597   1.231  0.2301  0.0625  0.3698
 6425TIP3    H143470   3.865   1.628   1.264  0.8689 -0.3566 -0.7883
 6425TIP3    H243471   3.804   1.528   1.168 -1.0125 -0.5859  0.5884
 6426TIP3   OH243472   2.433   6.213   2.321 -0.0856 -0.0362  0.2754
 6426TIP3    H143473   2.354   6.233   2.370  0.8161  0.9470  1.4125
 6426TIP3    H243474   2.452   6.122   2.342 -1.6732 -0.7386 -1.1631
 6427TIP3   OH243475   5.894   4.061   9.347 -0.0256  0.2983  1.1240
 6427TIP3    H143476   5.906   3.966   9.350 -0.3178  0.2283  0.4116
 6427TIP3    H243477   5.830   4.075   9.276 -1.6821  0.8772  2.6508
 6428TIP3   OH243478   3.008   5.984   7.066  0.7021 -0.0449  0.6212
 6428TIP3    H143479   3.066   6.002   6.992  0.8306 -0.7026  0.5557
 6428TIP3    H243480   3.025   6.055   7.128 -0.5157  1.3986 -0.6154
 6429TIP3   OH243481   2.059   5.657   8.380 -0.0762 -0.0881 -0.7609
 6429TIP3    H143482   2.152   5.640   8.365 -0.0253 -0.2618 -0.2767
 6429TIP3    H243483   2.032   5.588   8.440 -0.0442  1.0828  0.6638
 6430TIP3   OH243484   0.207   4.231   0.759  0.2503 -0.2928  0.3587
 6430TIP3    H143485   0.223   4.156   0.817 -0.6947  0.2848  1.4093
 6430TIP3    H243486   0.185   4.303   0.819  1.6114  0.9711 -0.5841
 6431TIP3   OH243487   6.960   6.960   1.968  0.0077  0.3103 -0.4492
 6431TIP3    H143488   6.986   7.037   1.918 -0.8493  1.3089  0.5961
 6431TIP3    H243489   7.006   6.887   1.926 -0.2431  1.1787 -2.3270
 6432TIP3   OH243490   6.802   4.890   9.807 -0.2211  0.3712 -0.1774
 6432TIP3    H143491   6.768   4.978   9.791  1.4759  1.0823 -0.1116
 6432TIP3    H243492   6.887   4.905   9.850 -0.8119 -1.3303  1.7428
 6433TIP3   OH243493   6.903   5.693   9.837  0.6264 -0.0641  0.9065
 6433TIP3    H143494   6.967   5.723   9.773 -0.1565  1.4036  0.7656
 6433TIP3    H243495   6.955   5.657   9.909  1.5257 -3.0535 -1.0665
 6434TIP3   OH243496   2.778   6.720   9.967  0.1358  0.1158 -0.1427
 6434TIP3    H143497   2.788   6.717  10.062  1.2223 -1.6001 -0.2648
 6434TIP3    H243498   2.694   6.762   9.953  1.2051  3.1155  1.4617
 6435TIP3   OH243499   6.795   5.329   0.991 -0.5520  0.0637  0.1209
 6435TIP3    H143500   6.847   5.363   1.064  0.5107 -0.3526 -0.4215
 6435TIP3    H243501   6.704   5.340   1.019 -0.1670  0.0335  1.4425
 6436TIP3   OH243502   0.422   6.977   0.908  0.6578 -0.3434  0.4352
 6436TIP3    H143503   0.359   6.936   0.967  0.6576  0.3573  0.9350
 6436TIP3    H243504   0.374   6.986   0.825  0.1838 -0.0545  0.7346
 6437TIP3   OH243505   0.789   3.331   2.033  0.3080  0.0948  0.4185
 6437TIP3    H143506   0.765   3.260   2.093 -0.6352 -0.0329 -0.0826
 6437TIP3    H243507   0.810   3.287   1.950  2.1260  0.2251  0.7688
 6438TIP3   OH243508   1.538   2.323   2.105 -0.1818 -0.0518 -0.3223
 6438TIP3    H143509   1.536   2.378   2.183 -0.0544 -0.2484 -0.1783
 6438TIP3    H243510   1.468   2.259   2.119 -1.0472  0.7139 -0.9731
 6439TIP3   OH243511   3.734   2.205   0.246 -0.3980 -0.4557  0.0723
 6439TIP3    H143512   3.642   2.227   0.260 -0.1703  0.2245  0.6083
 6439TIP3    H243513   3.771   2.203   0.334  0.5640  1.5129 -0.2289
 6440TIP3   OH243514   4.310   6.080   0.108  0.3284 -0.2703  0.5111
 6440TIP3    H143515   4.358   6.045   0.033 -1.6508 -1.0478 -0.4481
 6440TIP3    H243516   4.276   6.003   0.153 -2.3691  0.2480 -0.4657
 6441TIP3   OH243517   7.528   0.692   0.859  0.3611 -0.2852  0.5890
 6441TIP3    H143518   7.547   0.620   0.919  1.4780  0.2378  0.8887
 6441TIP3    H243519   7.476   0.754   0.910 -0.2600 -0.6828  0.4500
 6442TIP3   OH243520   1.408   3.321   1.438  0.1606  0.2586 -0.2948
 6442TIP3    H143521   1.360   3.287   1.514  0.0985  1.0368  0.0254
 6442TIP3    H243522   1.358   3.399   1.412  0.3185  0.1273 -0.9863
 6443TIP3   OH243523   1.210   4.468   9.519  0.5568 -0.0197 -0.1257
 6443TIP3    H143524   1.127   4.426   9.539  0.3543  0.2247 -0.4414
 6443TIP3    H243525   1.262   4.459   9.600  0.8565 -1.6521 -0.4679
 6444TIP3   OH243526   1.726   2.998   7.507  0.1338  0.3384  0.6400
 6444TIP3    H143527   1.685   3.079   7.536  0.0013  0.2722  0.6419
 6444TIP3    H243528   1.708   2.936   7.578 -0.7381  0.0043  0.1464
 6445TIP3   OH243529   6.426   6.066   8.379 -0.0813  0.0070  0.0874
 6445TIP3    H143530   6.465   6.010   8.445  0.2122 -2.4626 -2.0052
 6445TIP3    H243531   6.332   6.068   8.400  0.0846 -0.2726  0.8639
 6446TIP3   OH243532   7.261   2.263   0.923  0.2294 -0.7721 -0.1798
 6446TIP3    H143533   7.312   2.321   0.867  0.7438 -0.9249  0.1233
 6446TIP3    H243534   7.304   2.178   0.916  0.8110 -0.6071  1.0730
 6447TIP3   OH243535   5.854   2.098   9.993  0.5266  0.1819  0.2397
 6447TIP3    H143536   5.900   2.174  10.029 -0.1243 -0.4119  2.4203
 6447TIP3    H243537   5.923   2.033   9.978  1.2084  1.3380 -2.3424
 6448TIP3   OH243538   5.541   7.481   9.823  0.2400 -0.2338 -0.1174
 6448TIP3    H143539   5.561   7.519   9.909 -0.2299 -0.3263  0.0336
 6448TIP3    H243540   5.624   7.445   9.793  0.7169  0.9417 -0.2789
 6449TIP3   OH243541   6.519   2.561   2.307 -0.1723 -0.3072 -0.6667
 6449TIP3    H143542   6.439   2.590   2.262 -1.1213 -1.4719  0.1992
 6449TIP3    H243543   6.496   2.476   2.344  1.0838 -0.0970  0.6827
 6450TIP3   OH243544   0.779   3.593   1.244  0.3165 -0.0925 -0.8147
 6450TIP3    H143545   0.713   3.567   1.308 -0.4665  1.0544 -1.1244
 6450TIP3    H243546   0.774   3.527   1.176 -2.7695  1.5616 -2.3973
 6451TIP3   OH243547   1.963   2.797   0.713 -0.1442 -0.0517 -0.3623
 6451TIP3    H143548   1.977   2.716   0.761 -1.4713  0.2306  0.5357
 6451TIP3    H243549   1.928   2.769   0.628  2.2692 -0.5494 -1.3039
 6452TIP3   OH243550   2.863   1.689   8.613 -0.1247 -0.3213 -0.1476
 6452TIP3    H143551   2.905   1.617   8.565 -0.9285  0.6341 -2.4384
 6452TIP3    H243552   2.914   1.767   8.588 -1.8440  0.5130 -1.1912
 6453TIP3   OH243553   6.580   1.042   8.183  0.2184 -0.0311 -0.1105
 6453TIP3    H143554   6.563   0.950   8.204 -1.6151  0.4834  0.9801
 6453TIP3    H243555   6.549   1.089   8.261  0.3103  1.5542 -1.0019
 6454TIP3   OH243556   7.047   4.411   9.712 -0.1949 -0.5585  0.3432
 6454TIP3    H143557   7.070   4.408   9.619  0.8002  0.0340  0.5510
 6454TIP3    H243558   6.992   4.489   9.720  0.9602  0.2635  0.4891
 6455TIP3   OH243559   4.181   2.479   7.890 -0.2862  0.3989 -0.5587
 6455TIP3    H143560   4.269   2.480   7.854  0.2423 -0.4152  0.6583
 6455TIP3    H243561   4.192   2.496   7.983 -0.9848 -3.3030  0.3462
 6456TIP3   OH243562   2.051   2.551   7.515  0.0801  0.0571  0.2775
 6456TIP3    H143563   2.077   2.534   7.606  2.2767  0.3702 -0.2297
 6456TIP3    H243564   2.023   2.466   7.482 -0.2767 -0.1609  1.1120
 6457TIP3   OH243565   1.141   2.343   0.602  0.6633  0.7865 -0.3464
 6457TIP3    H143566   1.062   2.300   0.634 -0.4469  1.7536 -1.6918
 6457TIP3    H243567   1.111   2.400   0.531  2.7779  0.0003 -1.9832
 6458TIP3   OH243568   0.552   4.905   2.086 -0.3408 -0.7942  0.2436
 6458TIP3    H143569   0.579   4.900   2.178  0.5844 -3.2762 -0.0893
 6458TIP3    H243570   0.633   4.892   2.037 -1.4338 -5.1848 -0.8131
 6459TIP3   OH243571   4.217   1.490   2.869 -0.1299 -0.3270 -0.2353
 6459TIP3    H143572   4.127   1.465   2.846 -0.2963 -0.0561  0.1112
 6459TIP3    H243573   4.268   1.466   2.792 -0.6508  0.3835 -0.8234
 6460TIP3   OH243574   5.691   5.490   9.501 -0.2070 -0.4455 -0.5786
 6460TIP3    H143575   5.739   5.411   9.475  0.3811 -0.8028  1.4055
 6460TIP3    H243576   5.618   5.457   9.553 -1.8095  0.1917 -2.2963
 6461TIP3   OH243577   0.475   5.007   8.040 -0.5029  0.1426 -0.0965
 6461TIP3    H143578   0.567   5.028   8.057 -0.6238 -0.7394  1.7835
 6461TIP3    H243579   0.469   4.912   8.049 -1.5358  0.1373 -0.6384
 6462TIP3   OH243580   7.236   3.689   9.239 -0.0246  0.5259  0.0436
 6462TIP3    H143581   7.289   3.759   9.202 -2.2745  2.3696  0.0331
 6462TIP3    H243582   7.169   3.734   9.290  0.0145 -1.7621  2.3347
 6463TIP3   OH243583   1.282   5.797   9.878  0.9245 -0.1857  0.0329
 6463TIP3    H143584   1.360   5.849   9.899  1.1841  0.2135 -1.7472
 6463TIP3    H243585   1.316   5.717   9.839  0.4860 -1.2977  1.7979
 6464TIP3   OH243586   0.445   2.058   8.820  0.3254 -0.2482 -0.1942
 6464TIP3    H143587   0.491   2.141   8.807  0.2662 -0.3791 -1.3036
 6464TIP3    H243588   0.388   2.073   8.895  1.0426  0.3999  0.2353
 6465TIP3   OH243589   5.225   1.199   8.410 -0.2378  0.1254 -0.2934
 6465TIP3    H143590   5.225   1.286   8.369  1.7120  0.4703  0.3524
 6465TIP3    H243591   5.266   1.213   8.495  0.9591 -1.5886 -0.5449
 6466TIP3   OH243592   1.031   2.184   8.512  0.8473  0.1061  0.2333
 6466TIP3    H143593   1.040   2.154   8.421  2.0424 -0.5568  0.5405
 6466TIP3    H243594   1.119   2.176   8.549  0.4351  0.5985  1.3889
 6467TIP3   OH243595   3.337   3.456   8.020  0.1584  0.1341  0.2731
 6467TIP3    H143596   3.311   3.548   8.025 -0.5815 -0.0107 -0.6766
 6467TIP3    H243597   3.392   3.451   7.942 -2.2594 -0.7520 -1.5038
 6468TIP3   OH243598   7.211   6.984   8.349 -0.6245  0.3648  0.3175
 6468TIP3    H143599   7.249   6.996   8.262 -0.0293  0.5263  0.5971
 6468TIP3    H243600   7.184   6.892   8.351 -0.6386  0.3589 -0.0340
 6469TIP3   OH243601   6.972   6.645   0.555  0.2375  0.1422 -0.1555
 6469TIP3    H143602   7.056   6.638   0.601  0.4760 -0.2084 -0.6369
 6469TIP3    H243603   6.987   6.601   0.471 -0.0849  1.0780 -0.7170
 6470TIP3   OH243604   0.314   3.429   9.439  0.3020  0.5433  0.2145
 6470TIP3    H143605   0.403   3.395   9.441 -0.3688 -1.4887 -0.8042
 6470TIP3    H243606   0.291   3.443   9.530  0.2473 -3.1386  0.9345
 6471TIP3   OH243607   1.094   2.479   7.664  0.5304 -0.1125  0.2029
 6471TIP3    H143608   1.039   2.418   7.614  0.4620 -0.3458  0.5657
 6471TIP3    H243609   1.116   2.433   7.744 -0.4424  0.7477  0.9950
 6472TIP3   OH243610   0.705   3.646   8.164  0.7257  0.3771  0.5346
 6472TIP3    H143611   0.647   3.722   8.169  0.2281  0.0515 -0.1963
 6472TIP3    H243612   0.713   3.628   8.071  0.2985 -0.8718  0.7267
 6473TIP3   OH243613   5.902   2.210   9.716 -0.1360  0.1152 -0.2089
 6473TIP3    H143614   5.908   2.203   9.811  0.2633  1.9267 -0.0612
 6473TIP3    H243615   5.813   2.239   9.699  0.5888  2.5905 -0.1259
 6474TIP3   OH243616   5.834   7.411   1.247  0.0150 -0.0888 -0.2619
 6474TIP3    H143617   5.874   7.482   1.297 -1.1618  1.3663 -1.2782
 6474TIP3    H243618   5.789   7.357   1.312  0.2784  0.5434  0.4565
 6475TIP3   OH243619   7.071   4.888   9.967 -0.3903  0.1010  0.1830
 6475TIP3    H143620   7.160   4.915   9.991  0.2869 -0.4499 -1.5178
 6475TIP3    H243621   7.014   4.956  10.002  0.8816  1.4324 -0.2410
 6476TIP3   OH243622   6.622   7.442   2.646 -0.1653 -0.4731  0.2577
 6476TIP3    H143623   6.544   7.400   2.610  0.5894 -0.0228 -2.0480
 6476TIP3    H243624   6.605   7.448   2.740 -2.0195 -2.2112  0.0867
 6477TIP3   OH243625   2.764   7.004   2.473  0.2428 -0.1389 -0.9162
 6477TIP3    H143626   2.680   7.047   2.488  1.2321  1.5218  0.2102
 6477TIP3    H243627   2.750   6.914   2.501 -0.7078  0.5391  0.9990
 6478TIP3   OH243628   0.289   3.301   7.633  0.1851 -0.1109 -0.3292
 6478TIP3    H143629   0.363   3.288   7.692  0.2227  0.3223 -0.2755
 6478TIP3    H243630   0.261   3.391   7.650  1.1163  0.5272 -2.0195
 6479TIP3   OH243631   7.384   4.279   9.671 -0.2507 -0.8269 -0.3447
 6479TIP3    H143632   7.461   4.336   9.669 -0.4482 -0.5569 -0.3809
 6479TIP3    H243633   7.314   4.336   9.704 -0.7013 -0.7416 -1.4174
 6480TIP3   OH243634   4.810   3.571   7.119  0.0306  0.3179  0.0115
 6480TIP3    H143635   4.729   3.551   7.072  0.6294 -0.4174 -0.7333
 6480TIP3    H243636   4.867   3.497   7.100  0.5110  0.3177  1.4012
 6481TIP3   OH243637   3.446   4.351   9.636  0.0648 -0.8417 -0.8566
 6481TIP3    H143638   3.413   4.438   9.662  0.4165 -0.0678 -2.8569
 6481TIP3    H243639   3.389   4.290   9.683  0.6108  0.4060  1.6325
 6482TIP3   OH243640   1.913   4.864   1.445  0.1825 -0.1973  0.4540
 6482TIP3    H143641   1.971   4.933   1.414 -1.5973  0.7350 -1.0494
 6482TIP3    H243642   1.964   4.784   1.437  1.3875  0.6211 -0.4282
 6483TIP3   OH243643   4.979   0.226   0.975  0.0732  0.7018 -0.1233
 6483TIP3    H143644   4.938   0.313   0.973  1.9391  1.6245 -0.0254
 6483TIP3    H243645   5.061   0.237   0.927  0.5557 -0.8999  0.2843
 6484TIP3   OH243646   6.624   7.562   0.338 -0.1181  0.5830 -0.1053
 6484TIP3    H143647   6.638   7.494   0.271  1.7056 -0.0739  0.8716
 6484TIP3    H243648   6.629   7.644   0.289 -0.1651  0.0858 -0.9820
 6485TIP3   OH243649   6.999   2.836   9.120 -0.1392 -0.5439  0.0489
 6485TIP3    H143650   6.915   2.809   9.158 -0.0576  0.3937  0.9505
 6485TIP3    H243651   7.021   2.916   9.167  0.7954 -0.2503 -0.8638
 6486TIP3   OH243652   4.810   6.926   6.734 -0.2761  0.3599  0.6335
 6486TIP3    H143653   4.777   7.005   6.777 -1.6799 -1.7177  3.7830
 6486TIP3    H243654   4.735   6.890   6.687 -0.3925 -0.3235  1.3040
 6487TIP3   OH243655   3.018   0.464   2.211 -0.3263  0.5113  0.4522
 6487TIP3    H143656   2.941   0.493   2.163 -1.4866 -0.4786  1.6306
 6487TIP3    H243657   3.057   0.544   2.246  0.1801  1.1841 -1.5290
 6488TIP3   OH243658   6.446   2.851   7.867 -0.1545  0.5526  0.7687
 6488TIP3    H143659   6.501   2.929   7.851  2.2658 -0.8816  1.4986
 6488TIP3    H243660   6.420   2.822   7.780 -0.1641  1.5634  0.4194
 6489TIP3   OH243661   6.447   1.544   8.388 -0.0006  0.1222 -0.3790
 6489TIP3    H143662   6.539   1.518   8.396 -0.1672 -0.4774 -0.4068
 6489TIP3    H243663   6.403   1.502   8.462 -0.3005  0.2052 -0.5092
 6490TIP3   OH243664   6.795   0.587   0.050  0.4607  0.0002 -0.3605
 6490TIP3    H143665   6.720   0.585  -0.010 -0.3245  0.9774  0.5455
 6490TIP3    H243666   6.759   0.560   0.135  1.5234 -1.2101 -0.2517
 6491TIP3   OH243667   4.510   4.913   8.529  0.2352  0.6566 -0.4999
 6491TIP3    H143668   4.595   4.876   8.549  0.3487  0.4552 -1.3195
 6491TIP3    H243669   4.448   4.842   8.547  0.0690  1.2722  1.5555
 6492TIP3   OH243670   3.254   6.906   8.892 -0.0046 -0.1509 -0.2226
 6492TIP3    H143671   3.343   6.936   8.872  0.7492 -2.3026 -0.3362
 6492TIP3    H243672   3.233   6.846   8.821  0.4441 -3.4600  2.2301
 6493TIP3   OH243673   6.224   5.159   7.517 -0.1363 -0.0990  0.0652
 6493TIP3    H143674   6.312   5.189   7.540 -0.3725  0.4955  0.1979
 6493TIP3    H243675   6.239   5.081   7.463  0.4756  0.3650 -0.4417
 6494TIP3   OH243676   1.353   2.045   8.365  0.1298 -0.3331 -0.7390
 6494TIP3    H143677   1.424   2.106   8.384 -1.3010  0.7222  1.7887
 6494TIP3    H243678   1.289   2.097   8.316 -0.1607 -0.4427 -0.4774
 6495TIP3   OH243679   1.742   2.094   1.561  0.8361 -0.0959  0.3736
 6495TIP3    H143680   1.812   2.131   1.506  0.9637 -1.7664 -0.6448
 6495TIP3    H243681   1.786   2.066   1.641  1.7805 -2.8759 -1.0112
 6496TIP3   OH243682   4.777   6.870   9.479 -0.3062 -0.1544 -0.0923
 6496TIP3    H143683   4.767   6.963   9.499  1.7397  0.4173 -1.4048
 6496TIP3    H243684   4.729   6.858   9.397 -1.1277 -0.4354  0.4167
 6497TIP3   OH243685   2.600   0.047   6.781  0.5137 -0.4479  0.5799
 6497TIP3    H143686   2.687   0.067   6.815  0.3263 -0.1196  0.8716
 6497TIP3    H243687   2.614   0.033   6.687  1.0394 -1.3998  0.7887
 6498TIP3   OH243688   4.681   2.400   2.318  0.4245 -0.0649 -0.5050
 6498TIP3    H143689   4.763   2.449   2.325  1.1338 -1.3306  0.2934
 6498TIP3    H243690   4.686   2.357   2.233  0.3614  0.2323 -0.6624
 6499TIP3   OH243691   0.786   1.613   9.043 -0.0823 -0.2804 -0.4520
 6499TIP3    H143692   0.789   1.656   8.957 -0.0431  0.4521 -0.0978
 6499TIP3    H243693   0.693   1.608   9.063 -0.0444  1.5197  0.3940
 6500TIP3   OH243694   6.274   0.487   9.618 -0.2673  0.4365  0.2082
 6500TIP3    H143695   6.313   0.574   9.604  0.4571  0.2573  1.0364
 6500TIP3    H243696   6.318   0.431   9.553  0.8754  0.2435  1.1106
 6501TIP3   OH243697   7.164   7.440   8.529 -0.0416  0.4522  0.0266
 6501TIP3    H143698   7.179   7.376   8.599  3.2225  0.4965 -0.4921
 6501TIP3    H243699   7.116   7.392   8.462  0.9459 -0.9835  0.3241
 6502TIP3   OH243700   0.559   4.184   1.855 -0.1417  0.3258  0.1716
 6502TIP3    H143701   0.514   4.224   1.930  0.0841  2.4554 -0.7341
 6502TIP3    H243702   0.651   4.185   1.880 -0.2267 -0.6965  0.5791
 6503TIP3   OH243703   0.213   4.548   8.271  0.2316 -0.2566  0.1499
 6503TIP3    H143704   0.226   4.499   8.190  1.8617  0.0998  0.1675
 6503TIP3    H243705   0.204   4.639   8.243  0.2885 -0.1938  0.3340
 6504TIP3   OH243706   2.936   4.641   9.123 -0.0704  0.0504  0.0596
 6504TIP3    H143707   2.901   4.729   9.133 -1.2482 -0.1209 -2.1656
 6504TIP3    H243708   2.999   4.633   9.195  0.8968  3.0820 -0.2964
 6505TIP3   OH243709   2.717   4.317   7.772 -0.4695  0.3944 -0.0348
 6505TIP3    H143710   2.710   4.379   7.700 -1.8158  1.1409  0.6898
 6505TIP3    H243711   2.808   4.322   7.800 -0.0934  0.5729 -1.2425
 6506TIP3   OH243712   0.663   4.798   8.211  0.5810 -0.4369  0.6008
 6506TIP3    H143713   0.645   4.848   8.290 -1.5400 -1.2276  0.6758
 6506TIP3    H243714   0.756   4.773   8.219  1.3944  2.4031  1.0911
 6507TIP3   OH243715   2.093   0.689   8.764 -0.4816 -0.6130  0.9151
 6507TIP3    H143716   2.005   0.672   8.730  0.0146 -1.1720 -0.1517
 6507TIP3    H243717   2.145   0.711   8.686  0.7258 -2.0396  1.2704
 6508TIP3   OH243718   3.122   7.294   7.164  0.3323 -0.3513  0.2670
 6508TIP3    H143719   3.034   7.330   7.174  0.6992  0.8154 -0.5090
 6508TIP3    H243720   3.109   7.209   7.123 -0.4006  0.0353 -0.3227
 6509TIP3   OH243721   0.843   2.079   8.660  0.1810  0.5535  0.1824
 6509TIP3    H143722   0.785   2.155   8.662 -0.4573  0.0549  1.5796
 6509TIP3    H243723   0.916   2.106   8.604  0.1199  2.3073  0.9015
 6510TIP3   OH243724   2.189   5.397   0.693 -0.3844  0.3534 -0.0966
 6510TIP3    H143725   2.212   5.431   0.779 -0.8818 -2.3598  1.2112
 6510TIP3    H243726   2.241   5.449   0.632  1.6397  0.9247  1.9840
 6511TIP3   OH243727   3.721   2.803   9.329  0.1195  0.6291 -0.1959
 6511TIP3    H143728   3.757   2.718   9.355  0.6902  1.1171  0.6751
 6511TIP3    H243729   3.784   2.837   9.266  0.5288  0.9193  0.3588
 6512TIP3   OH243730   5.679   2.212   7.837 -0.0249  0.0041 -0.1079
 6512TIP3    H143731   5.635   2.153   7.776  0.1308 -0.5463  0.3029
 6512TIP3    H243732   5.740   2.156   7.885  2.8896  1.0862 -2.2627
 6513TIP3   OH243733   4.266   7.376   0.951  0.1817  0.2759  0.6552
 6513TIP3    H143734   4.188   7.322   0.940 -0.3979  1.5459 -2.6087
 6513TIP3    H243735   4.234   7.456   0.991 -0.2076  0.6698 -0.3924
 6514TIP3   OH243736   5.944   0.900   7.247 -0.0260  0.0178  0.3184
 6514TIP3    H143737   5.908   0.986   7.224 -2.8292 -1.0635  0.3680
 6514TIP3    H243738   6.039   0.911   7.235 -0.4238  2.5559 -1.4970
 6515TIP3   OH243739   3.546   4.673   8.097 -0.2883  0.3537  0.7627
 6515TIP3    H143740   3.504   4.633   8.173 -0.1549 -0.1149  0.5944
 6515TIP3    H243741   3.639   4.653   8.108 -0.4057 -0.8077 -0.1567
 6516TIP3   OH243742   7.281   0.813   1.027  0.0559 -0.3159 -0.3312
 6516TIP3    H143743   7.276   0.848   1.115 -1.4615  0.1356 -0.5672
 6516TIP3    H243744   7.235   0.729   1.031  1.3866 -1.0668 -0.3494
 6517TIP3   OH243745   3.016   2.872   1.066  0.1213 -0.4901  0.1021
 6517TIP3    H143746   3.079   2.840   1.001 -0.1075 -2.7452  0.9258
 6517TIP3    H243747   3.052   2.956   1.094  1.5391 -0.6446 -1.1102
 6518TIP3   OH243748   0.604   6.020   8.123  0.5001  0.5502  0.1780
 6518TIP3    H143749   0.631   6.103   8.083 -2.4426  2.0486  1.0049
 6518TIP3    H243750   0.636   6.025   8.213 -0.2700  1.1653  0.4317
 6519TIP3   OH243751   2.028   0.601   1.128  0.2945  0.3809 -0.7757
 6519TIP3    H143752   2.049   0.637   1.214 -0.1463 -0.8637 -0.1228
 6519TIP3    H243753   1.995   0.513   1.146 -2.2227  0.9736 -2.0166
 6520TIP3   OH243754   7.326   1.567   0.267  0.2686  0.3758  0.8797
 6520TIP3    H143755   7.257   1.500   0.266  1.7784 -1.2606 -0.2567
 6520TIP3    H243756   7.357   1.569   0.357 -0.7977  0.6924  1.2656
 6521TIP3   OH243757   2.572   4.865   9.080 -0.3475  0.8334 -0.0721
 6521TIP3    H143758   2.659   4.886   9.115 -0.5828  2.7180 -0.5227
 6521TIP3    H243759   2.545   4.787   9.129  1.4330  0.4267  0.3263
 6522TIP3   OH243760   5.516   4.979   9.797  0.1942 -0.4115 -0.2169
 6522TIP3    H143761   5.513   4.948   9.707  0.7793  0.1686 -0.4500
 6522TIP3    H243762   5.588   4.930   9.837  0.3234 -0.2445 -0.2401
 6523TIP3   OH243763   7.158   0.715   9.837 -0.0871 -0.2225  0.0510
 6523TIP3    H143764   7.243   0.690   9.872 -0.4462 -1.6829 -0.0614
 6523TIP3    H243765   7.102   0.639   9.853 -1.5701  0.9695  0.7631
 6524TIP3   OH243766   3.138   7.702   2.560 -0.0584 -0.1281  0.1063
 6524TIP3    H143767   3.227   7.731   2.541  0.0279  0.5796  1.4510
 6524TIP3    H243768   3.134   7.696   2.656 -1.7642  0.8962  0.1441
 6525TIP3   OH243769   0.589   7.295   8.481  0.3907 -0.5653 -0.3730
 6525TIP3    H143770   0.523   7.293   8.411 -0.4722 -0.8737  0.4313
 6525TIP3    H243771   0.638   7.214   8.470 -0.7901 -1.4129  0.3373
 6526TIP3   OH243772   1.562   3.138   7.720 -0.1238  0.1583  0.6707
 6526TIP3    H143773   1.565   3.045   7.701  0.0414  0.4653 -0.9578
 6526TIP3    H243774   1.473   3.165   7.697  0.5232  0.8264 -1.2699
 6527TIP3   OH243775   6.187   0.579   2.670 -0.3754 -0.2083 -0.1018
 6527TIP3    H143776   6.244   0.541   2.737 -1.7356 -0.1813  1.1310
 6527TIP3    H243777   6.154   0.660   2.710  2.4380  2.4224 -2.6613
 6528TIP3   OH243778   1.593   5.680   8.617  1.0546 -0.0823  0.1129
 6528TIP3    H143779   1.548   5.596   8.627  0.6553 -0.1682 -1.8734
 6528TIP3    H243780   1.569   5.730   8.695  1.2786 -1.7803  1.3277
 6529TIP3   OH243781   2.151   3.614   8.704 -0.1548  0.2159  0.2007
 6529TIP3    H143782   2.093   3.683   8.673 -0.4248  0.6532  1.5907
 6529TIP3    H243783   2.238   3.654   8.705 -0.0898  0.0879 -0.3185
 6530TIP3   OH243784   1.615   3.192   2.612  0.0828  0.0294 -0.5192
 6530TIP3    H143785   1.633   3.131   2.540  1.1100  1.2007 -1.2886
 6530TIP3    H243786   1.624   3.138   2.691  3.0334 -0.4315 -1.0553
 6531TIP3   OH243787   2.620   6.581   1.224 -0.2196 -0.2458  0.0527
 6531TIP3    H143788   2.711   6.562   1.244 -0.4576 -1.0731  0.4195
 6531TIP3    H243789   2.571   6.541   1.297 -0.8906 -0.1523 -0.3393
 6532TIP3   OH243790   3.503   5.920   0.278  0.3794 -0.2766 -0.1342
 6532TIP3    H143791   3.487   5.968   0.360  0.3074 -0.3674 -0.0947
 6532TIP3    H243792   3.576   5.966   0.237  0.2033 -0.0306 -0.1755
 6533TIP3   OH243793   6.436   2.934   9.646  0.1855  0.2592  0.2248
 6533TIP3    H143794   6.432   2.854   9.594  0.3514 -0.2255  0.9581
 6533TIP3    H243795   6.458   2.905   9.735  2.0374  1.2517  0.1502
 6534TIP3   OH243796   1.639   4.003   8.453  0.4257  0.1375 -0.3087
 6534TIP3    H143797   1.618   3.946   8.379 -0.6784 -0.6014  0.5464
 6534TIP3    H243798   1.665   3.943   8.523 -0.4211  0.6839  0.4947
 6535TIP3   OH243799   5.441   0.575   8.737 -0.2414 -0.4500 -0.4868
 6535TIP3    H143800   5.499   0.651   8.741 -0.3703 -0.3902  1.2802
 6535TIP3    H243801   5.383   0.593   8.663 -0.2399  1.1599 -0.1438
 6536TIP3   OH243802   1.840   7.576   9.917 -0.2296  0.4925 -0.5198
 6536TIP3    H143803   1.895   7.610   9.846  1.0178  0.8004  0.5679
 6536TIP3    H243804   1.854   7.482   9.916 -1.8083  0.2098 -1.9587
 6537TIP3   OH243805   0.862   2.968   8.196 -0.1461 -0.6176  0.0265
 6537TIP3    H143806   0.869   2.906   8.269  1.7326  0.6100  0.9996
 6537TIP3    H243807   0.894   2.920   8.120  1.0535 -0.9485  0.7161
 6538TIP3   OH243808   6.443   1.841   0.534 -0.2053 -0.3807  0.9022
 6538TIP3    H143809   6.427   1.775   0.466 -0.6273 -0.2122  0.8310
 6538TIP3    H243810   6.409   1.801   0.614  0.8426 -0.8267  1.1434
 6539TIP3   OH243811   5.921   5.680   9.926  0.9739 -0.5198 -0.1950
 6539TIP3    H143812   5.879   5.637  10.000  2.0522 -0.9049  0.2181
 6539TIP3    H243813   5.882   5.639   9.849 -2.5683  2.0973 -0.0539
 6540TIP3   OH243814   4.796   0.199   2.301 -0.4597 -0.6907  0.2751
 6540TIP3    H143815   4.733   0.170   2.235 -0.1441  1.2369 -0.9709
 6540TIP3    H243816   4.881   0.177   2.263 -0.1769  2.0137 -0.9613
 6541TIP3   OH243817   7.310   2.868   1.537  0.0834 -0.5672 -0.4564
 6541TIP3    H143818   7.367   2.849   1.611 -0.0360  1.1712  0.1379
 6541TIP3    H243819   7.247   2.932   1.572  0.4823  0.8741 -2.2390
 6542TIP3   OH243820   1.069   4.635   0.775  0.7365  0.4714  0.6337
 6542TIP3    H143821   1.099   4.603   0.691 -0.5996 -0.4283  0.4709
 6542TIP3    H243822   1.118   4.583   0.839  2.2881  1.6507  0.4711
 6543TIP3   OH243823   5.728   1.157   7.266 -0.2894 -0.7283 -0.2508
 6543TIP3    H143824   5.789   1.217   7.223 -2.8774  2.6441  0.4012
 6543TIP3    H243825   5.680   1.116   7.194 -2.3668  2.4415 -0.8619
 6544TIP3   OH243826   0.295   3.285   3.263 -0.0304 -0.0853 -0.4186
 6544TIP3    H143827   0.328   3.363   3.307 -0.4918  0.3173 -0.7687
 6544TIP3    H243828   0.312   3.301   3.170 -2.0105  0.5612 -0.7197
 6545TIP3   OH243829   3.673   6.060   8.797 -0.3235  0.6932 -0.6234
 6545TIP3    H143830   3.710   6.068   8.709  0.8655  0.6912 -0.1547
 6545TIP3    H243831   3.748   6.076   8.855 -1.4399  2.4030  0.4028
 6546TIP3   OH243832   5.778   3.430   7.853 -0.6041 -0.1090 -0.3667
 6546TIP3    H143833   5.718   3.458   7.922  0.9648 -1.2246  1.5730
 6546TIP3    H243834   5.763   3.335   7.846  0.9377 -0.4344  0.2549
 6547TIP3   OH243835   6.723   3.237   9.262  0.1136 -0.3422 -0.1095
 6547TIP3    H143836   6.720   3.238   9.167 -2.3572  2.1059 -0.1256
 6547TIP3    H243837   6.646   3.185   9.288  0.5121 -0.6168  0.5541
 6548TIP3   OH243838   0.969   4.876   1.681  0.4336  0.5212  0.3618
 6548TIP3    H143839   1.036   4.836   1.736 -0.1341  0.1417  0.7837
 6548TIP3    H243840   1.014   4.949   1.639  1.1138  0.2703  0.6375
 6549TIP3   OH243841   2.185   3.998   0.177  0.2596  0.0192  0.5520
 6549TIP3    H143842   2.146   3.995   0.264 -0.1359 -0.0633  0.3735
 6549TIP3    H243843   2.130   3.942   0.123 -0.5331  1.4097 -0.1589
 6550TIP3   OH243844   3.586   4.078   0.140 -0.1432  0.9772  0.7624
 6550TIP3    H143845   3.619   4.105   0.054 -0.8990  1.1326  0.5143
 6550TIP3    H243846   3.586   4.158   0.192 -1.6527  1.3430  0.2599
 6551TIP3   OH243847   1.270   1.872   0.610 -0.1778 -0.3805  1.0535
 6551TIP3    H143848   1.352   1.922   0.614  0.5873 -1.6510  1.8262
 6551TIP3    H243849   1.202   1.939   0.612  0.8189  0.7536 -0.3194
 6552TIP3   OH243850   5.655   6.553   9.882  0.3405  0.7039  0.3611
 6552TIP3    H143851   5.647   6.626   9.821  1.1591 -0.2819 -0.9793
 6552TIP3    H243852   5.713   6.491   9.838  2.0800  0.5335  2.7203
 6553TIP3   OH243853   2.995   1.847   1.489  0.8499 -0.1734 -0.2316
 6553TIP3    H143854   2.963   1.816   1.573 -0.2812 -1.4750 -1.1033
 6553TIP3    H243855   3.072   1.794   1.471  2.1498  1.2918  0.7354
 6554TIP3   OH243856   4.718   1.570   8.719  0.4159 -0.0879  1.0134
 6554TIP3    H143857   4.775   1.613   8.656  3.2810  0.2089  3.6111
 6554TIP3    H243858   4.733   1.476   8.706  1.4778 -0.0123  1.6114
 6555TIP3   OH243859   6.553   1.360   8.744  0.2914 -0.0528 -0.1751
 6555TIP3    H143860   6.643   1.388   8.729 -0.2062  2.0999  0.5085
 6555TIP3    H243861   6.554   1.318   8.830  0.6877 -0.3356 -0.3155
 6556TIP3   OH243862   0.557   1.002   9.126 -0.0037 -0.1755 -0.0257
 6556TIP3    H143863   0.588   1.035   9.042  2.2172  0.7597  1.0661
 6556TIP3    H243864   0.496   0.932   9.104 -0.3600  0.8037 -2.3954
 6557TIP3   OH243865   7.272   0.493   7.230  0.6071  0.0488 -0.3623
 6557TIP3    H143866   7.306   0.467   7.316  1.4376  2.1636  0.0259
 6557TIP3    H243867   7.347   0.485   7.171  0.5763  0.4484 -0.4591
 6558TIP3   OH243868   6.418   0.265   9.354 -0.3104  0.1556  0.3195
 6558TIP3    H143869   6.505   0.224   9.352 -1.0572 -1.4723 -0.8016
 6558TIP3    H243870   6.364   0.205   9.406 -0.9232  0.8087  0.4473
 6559TIP3   OH243871   3.643   3.410   8.111 -0.5888 -0.2456  0.0284
 6559TIP3    H143872   3.655   3.391   8.018 -1.3822 -0.8816  0.0401
 6559TIP3    H243873   3.599   3.332   8.146  2.3220 -1.3557  1.5758
 6560TIP3   OH243874   2.396   0.237   0.423  0.6794  0.5687 -0.1779
 6560TIP3    H143875   2.342   0.159   0.435  3.3984 -1.0834  2.7342
 6560TIP3    H243876   2.450   0.218   0.347  1.1373 -0.3182  0.3552
 6561TIP3   OH243877   2.997   4.703   9.694 -0.3273 -0.2537  0.4641
 6561TIP3    H143878   2.973   4.647   9.768 -3.0202 -1.1856 -0.9663
 6561TIP3    H243879   2.958   4.788   9.714 -1.6887 -0.7029 -0.1141
 6562TIP3   OH243880   6.686   1.979   9.173 -0.3448 -0.4510  0.4097
 6562TIP3    H143881   6.758   1.941   9.224  0.8678  0.3784 -0.6320
 6562TIP3    H243882   6.727   2.010   9.093 -1.6616  1.2003  0.3271
 6563TIP3   OH243883   4.703   2.954   9.917 -0.3169  0.2443 -0.0834
 6563TIP3    H143884   4.652   2.930   9.840  0.6604  0.8767 -0.9621
 6563TIP3    H243885   4.788   2.980   9.882 -0.1114  1.3356  1.1425
 6564TIP3   OH243886   3.298   4.936   7.319 -0.1847 -0.2953  0.2698
 6564TIP3    H143887   3.342   4.905   7.240  1.4701  1.1698  0.5588
 6564TIP3    H243888   3.363   4.925   7.389 -0.0706  2.2379  0.6509
 6565TIP3   OH243889   7.154   1.992   8.424 -0.1581 -0.0346 -0.1329
 6565TIP3    H143890   7.195   1.977   8.510  1.2661 -0.6014 -0.8792
 6565TIP3    H243891   7.089   2.060   8.441 -1.1059 -1.3013  1.7347
 6566TIP3   OH243892   1.974   7.486   1.344 -0.5475 -0.4631 -0.5970
 6566TIP3    H143893   2.043   7.440   1.390 -0.8831 -1.0503 -0.6702
 6566TIP3    H243894   1.948   7.426   1.273  0.5018  0.7335 -2.0571
 6567TIP3   OH243895   2.907   2.001   8.102  0.5583  0.3452 -0.4052
 6567TIP3    H143896   2.884   1.930   8.042  0.3814  0.3148 -0.3009
 6567TIP3    H243897   2.846   2.071   8.081 -0.1724 -0.0279  0.4219
 6568TIP3   OH243898   6.986   1.890   9.917  0.1637 -0.2069  0.4123
 6568TIP3    H143899   6.900   1.854   9.942  0.0391 -0.5743 -0.5128
 6568TIP3    H243900   7.007   1.953   9.987 -1.2961  0.5986  0.1571
 6569TIP3   OH243901   2.453   1.318   7.324 -0.0449 -0.1082  0.0427
 6569TIP3    H143902   2.485   1.407   7.341  1.0383 -0.7937  1.9194
 6569TIP3    H243903   2.466   1.305   7.230 -0.0420  1.6445 -0.2265
 6570TIP3   OH243904   7.435   2.416   0.801 -0.1588 -0.1245 -0.2947
 6570TIP3    H143905   7.380   2.493   0.808  0.1576  0.0372  0.4968
 6570TIP3    H243906   7.521   2.445   0.831  0.4074 -0.3322 -1.6644
 6571TIP3   OH243907   6.625   1.767   8.269  0.3222 -0.1151 -0.6555
 6571TIP3    H143908   6.711   1.736   8.298  1.1396  2.5443  0.0179
 6571TIP3    H243909   6.563   1.718   8.323  1.5055 -0.5298  0.3855
 6572TIP3   OH243910   1.961   4.809   7.246 -0.0108 -0.2036  0.3314
 6572TIP3    H143911   1.929   4.882   7.193  0.4497 -1.1053 -1.2482
 6572TIP3    H243912   2.046   4.839   7.279 -0.7479  0.7506  1.4491
 6573TIP3   OH243913   1.635   6.908   8.579  0.7496  0.0064  0.0145
 6573TIP3    H143914   1.729   6.910   8.558  0.7356  0.4721 -0.0153
 6573TIP3    H243915   1.611   7.001   8.588  0.2932 -0.1134  0.0264
 6574TIP3   OH243916   6.452   7.647   0.624  0.3859  0.2142  0.0803
 6574TIP3    H143917   6.452   7.741   0.644 -0.2013  0.2826 -0.2222
 6574TIP3    H243918   6.483   7.641   0.534  1.6438  0.0125  0.5064
 6575TIP3   OH243919   6.459   0.630   2.880  0.2080 -0.2116  0.1143
 6575TIP3    H143920   6.538   0.647   2.828 -0.7986 -1.2609 -1.8752
 6575TIP3    H243921   6.414   0.715   2.883 -1.4042 -0.7007 -3.8530
 6576TIP3   OH243922   1.569   6.809   1.129 -0.0430  0.0954  0.1285
 6576TIP3    H143923   1.569   6.818   1.224 -0.1675  0.1185  0.1268
 6576TIP3    H243924   1.501   6.744   1.111  0.7396 -0.7530  0.1327
 6577TIP3   OH243925   5.337   2.523   7.676  0.6157  0.2795  0.0888
 6577TIP3    H143926   5.319   2.517   7.770  0.5568 -1.6830 -0.0056
 6577TIP3    H243927   5.332   2.433   7.645  3.5681  0.4928 -1.2840
 6578TIP3   OH243928   0.315   4.408   8.974 -0.1521  0.2360  0.0296
 6578TIP3    H143929   0.378   4.379   8.908  0.4840  0.6771  0.4242
 6578TIP3    H243930   0.272   4.484   8.935 -0.1291  0.1963 -0.0728
 6579TIP3   OH243931   2.559   4.397   7.282 -0.3164 -0.0418 -0.3828
 6579TIP3    H143932   2.652   4.418   7.276 -0.3982  0.6084  0.4959
 6579TIP3    H243933   2.514   4.481   7.272 -0.8219 -0.3498 -0.8112
 6580TIP3   OH243934   3.457   5.851   7.140 -0.3446  0.7495 -0.1357
 6580TIP3    H143935   3.462   5.927   7.197 -1.9206 -0.1340  1.2600
 6580TIP3    H243936   3.546   5.839   7.107  0.6085  1.3306  2.1090
 6581TIP3   OH243937   6.826   0.129   9.557 -0.2443  0.3085 -0.4832
 6581TIP3    H143938   6.894   0.143   9.492 -0.7348  0.4808 -0.9720
 6581TIP3    H243939   6.745   0.158   9.514 -0.4922  0.9999  0.4127
 6582TIP3   OH243940   7.333   1.694   2.520 -0.1366 -0.3398 -0.0687
 6582TIP3    H143941   7.317   1.620   2.462 -1.1326 -0.3870  0.2429
 6582TIP3    H243942   7.340   1.770   2.462 -2.1248 -0.2257 -0.2288
 6583TIP3   OH243943   7.241   2.148   1.748 -0.3736  0.2666  0.2396
 6583TIP3    H143944   7.313   2.164   1.687  0.6333 -0.3939  1.2186
 6583TIP3    H243945   7.204   2.235   1.765  0.3962  0.6620 -0.0416
 6584TIP3   OH243946   3.029   0.810   0.058 -0.0311 -0.1559 -0.1813
 6584TIP3    H143947   2.959   0.810  -0.008 -0.9083 -1.7498  0.6917
 6584TIP3    H243948   3.000   0.747   0.124  1.4233  0.4465  1.1061
 6585TIP3   OH243949   2.722   6.757   1.791 -0.2185 -0.1280 -0.3801
 6585TIP3    H143950   2.813   6.787   1.794 -0.6559  1.2532 -0.2817
 6585TIP3    H243951   2.672   6.834   1.764 -1.2003 -1.2655 -1.9724
 6586TIP3   OH243952   5.366   5.554   7.249 -0.0208  0.2951 -0.1404
 6586TIP3    H143953   5.281   5.517   7.271 -0.2008  0.7506 -0.0480
 6586TIP3    H243954   5.371   5.634   7.302  0.3925  0.3562 -0.2704
 6587TIP3   OH243955   2.000   3.306   8.294 -0.0711  0.1930  0.6035
 6587TIP3    H143956   1.957   3.389   8.316  1.5010  1.3607 -0.4768
 6587TIP3    H243957   1.949   3.271   8.221  1.2004  2.0264 -1.2833
 6588TIP3   OH243958   3.383   2.323   0.511 -0.0902  0.7607 -0.2507
 6588TIP3    H143959   3.377   2.408   0.556 -0.8728  0.3021  0.5437
 6588TIP3    H243960   3.294   2.307   0.478  0.2960  0.7213 -1.3020
 6589TIP3   OH243961   1.796   5.018   1.675 -0.7097 -0.1906  0.3259
 6589TIP3    H143962   1.705   5.038   1.700 -0.7374 -0.0459  0.1163
 6589TIP3    H243963   1.796   5.025   1.579 -0.8633 -1.7854  0.1847
 6590TIP3   OH243964   2.355   4.886   7.263 -0.2669 -0.1340 -0.2531
 6590TIP3    H143965   2.416   4.871   7.335 -0.3573  0.5336 -0.0373
 6590TIP3    H243966   2.374   4.975   7.233  0.3186 -0.6668 -1.5707
 6591TIP3   OH243967   0.877   1.165   3.132 -0.1170 -0.9234 -0.1582
 6591TIP3    H143968   0.888   1.114   3.213 -0.1621 -1.1255 -0.2787
 6591TIP3    H243969   0.935   1.241   3.144 -2.1539  0.5077  1.2409
 6592TIP3   OH243970   4.843   4.349   9.680  0.9095  0.2128 -0.1651
 6592TIP3    H143971   4.869   4.369   9.770  0.1263 -0.1006  0.1435
 6592TIP3    H243972   4.807   4.260   9.685  2.2425 -0.4162 -1.0817
 6593TIP3   OH243973   2.237   0.721   9.849 -0.8517  0.3921 -0.1863
 6593TIP3    H143974   2.305   0.654   9.852 -1.4819 -0.4060 -2.1786
 6593TIP3    H243975   2.219   0.733   9.756 -2.8057  1.2263  0.2442
 6594TIP3   OH243976   2.250   1.678   1.242  0.2132 -0.0077  0.6568
 6594TIP3    H143977   2.170   1.635   1.213  2.1398 -1.9093 -2.2876
 6594TIP3    H243978   2.284   1.621   1.311  0.9255 -1.3728 -0.7648
 6595TIP3   OH243979   1.104   7.346   1.501  0.6326 -0.2957  0.4032
 6595TIP3    H143980   1.033   7.303   1.454  0.0916  1.8831 -0.9335
 6595TIP3    H243981   1.159   7.274   1.532 -0.8213 -1.9564 -0.6414
 6596TIP3   OH243982   4.968   3.949   6.792  0.2054  0.7347 -0.1665
 6596TIP3    H143983   4.979   3.892   6.868  0.7287 -0.5657 -1.1623
 6596TIP3    H243984   4.899   3.906   6.740  0.4254  1.1414 -0.8115
 6597TIP3   OH243985   4.815   4.507   8.506  0.3291 -0.3056  0.1259
 6597TIP3    H143986   4.812   4.413   8.523 -1.5605 -0.3376 -0.2238
 6597TIP3    H243987   4.856   4.544   8.584  0.5231 -1.3496  0.5385
 6598TIP3   OH243988   7.079   6.951   9.727 -0.0092 -0.8361 -0.3492
 6598TIP3    H143989   7.122   6.959   9.642  0.3422  0.9866 -0.0569
 6598TIP3    H243990   7.086   7.039   9.765 -1.4216 -1.2452  0.9559
 6599TIP3   OH243991   1.498   1.966   7.772  0.0942 -0.2791  0.1665
 6599TIP3    H143992   1.547   2.006   7.700  0.2598  0.2008  0.5379
 6599TIP3    H243993   1.553   1.980   7.849 -0.0966 -0.7590  0.3928
 6600TIP3   OH243994   6.839   7.188   8.559  0.2615 -0.3978 -0.3951
 6600TIP3    H143995   6.903   7.205   8.490  3.0367 -0.7693  1.8900
 6600TIP3    H243996   6.855   7.098   8.586  0.0543  0.0696  1.4475
 6601TIP3   OH243997   2.010   6.081   8.372  0.1548  0.1279 -0.0162
 6601TIP3    H143998   2.029   6.043   8.458 -2.1632  1.5477  1.2410
 6601TIP3    H243999   2.002   6.006   8.314  2.5623 -0.8306  0.7748
 6602TIP3   OH244000   2.708   2.766   9.844 -0.1606 -0.6945  0.0958
 6602TIP3    H144001   2.777   2.700   9.850  2.1191  1.5598  0.4102
 6602TIP3    H244002   2.715   2.815   9.926 -0.5662  1.0190 -0.8472
 6603TIP3   OH244003   3.305   4.186   0.101  0.1508 -0.6662  1.0641
 6603TIP3    H144004   3.289   4.261   0.158  0.5420  0.2849 -0.0228
 6603TIP3    H244005   3.399   4.171   0.105  0.3539  0.1226 -0.1402
 6604TIP3   OH244006   4.305   6.393   7.919 -0.5658 -0.1355 -0.2405
 6604TIP3    H144007   4.350   6.309   7.911 -1.0761 -0.6013  1.4302
 6604TIP3    H244008   4.288   6.403   8.013  0.7037  2.4843 -0.1869
 6605TIP3   OH244009   6.196   3.107   0.658 -0.1498  0.3012  0.2711
 6605TIP3    H144010   6.227   3.074   0.742  0.0015  0.3417  0.2319
 6605TIP3    H244011   6.101   3.099   0.662 -0.3229  2.1646  1.2602
 6606TIP3   OH244012   2.258   2.728   0.726  0.2787 -0.0977 -0.1752
 6606TIP3    H144013   2.291   2.690   0.645  0.9351 -0.4702  0.2600
 6606TIP3    H244014   2.181   2.779   0.699  0.8887  0.3444 -1.1265
 6607TIP3   OH244015   4.000   6.796   8.131  0.2855  0.3233 -0.1681
 6607TIP3    H144016   4.005   6.891   8.115  2.4260  0.1730 -0.6018
 6607TIP3    H244017   3.956   6.761   8.053 -1.6458  1.0250  0.5221
 6608TIP3   OH244018   4.462   4.568   9.749  0.5361  0.2115 -0.1328
 6608TIP3    H144019   4.414   4.486   9.760 -0.6430  0.8594 -0.2101
 6608TIP3    H244020   4.535   4.546   9.691  0.0725 -0.7139 -0.3872
 6609TIP3   OH244021   4.461   1.009   8.917 -0.0316 -0.1294  0.0747
 6609TIP3    H144022   4.519   0.951   8.966 -0.8577  0.1042  1.3827
 6609TIP3    H244023   4.440   0.960   8.838  0.7778 -0.8191  0.2701
 6610TIP3   OH244024   6.083   6.795   9.989 -0.0351 -0.4891 -0.0988
 6610TIP3    H144025   6.115   6.747  10.065 -0.1969 -1.1225 -0.4188
 6610TIP3    H244026   6.142   6.869   9.980 -0.5149  0.0704  1.1456
 6611TIP3   OH244027   2.468   0.824   0.531 -0.1702  0.1977 -0.2543
 6611TIP3    H144028   2.541   0.786   0.482  0.6635 -0.3275  1.3131
 6611TIP3    H244029   2.390   0.783   0.493  0.3699  0.4492 -1.6798
 6612TIP3   OH244030   5.651   1.224   0.445  0.5959 -0.6028  0.4266
 6612TIP3    H144031   5.588   1.168   0.492 -0.8059 -0.1592 -0.8365
 6612TIP3    H244032   5.699   1.165   0.388 -0.6617 -0.6152 -0.6699
 6613TIP3   OH244033   4.756   7.325   0.085  0.5551 -0.9006  0.3743
 6613TIP3    H144034   4.718   7.261   0.024 -1.0560  0.3284  0.0360
 6613TIP3    H244035   4.715   7.408   0.062  1.6457  0.0374  1.6511
 6614TIP3   OH244036   0.199   1.151   6.760  0.4070 -0.5956 -0.0367
 6614TIP3    H144037   0.289   1.184   6.762  0.7054 -1.3957  0.2405
 6614TIP3    H244038   0.207   1.060   6.788 -0.5126 -0.6319  0.1214
 6615TIP3   OH244039   6.495   0.016   8.432 -0.0101  0.1923  0.2859
 6615TIP3    H144040   6.531  -0.058   8.482 -0.5427 -0.0292  0.3506
 6615TIP3    H244041   6.402   0.018   8.457 -0.4617 -0.3755 -1.2191
 6616TIP3   OH244042   1.437   1.592   0.128 -0.7888 -0.2101 -0.0060
 6616TIP3    H144043   1.448   1.602   0.223 -0.8816  1.3545 -0.1310
 6616TIP3    H244044   1.381   1.665   0.102 -0.7384 -0.5913 -1.2777
 6617TIP3   OH244045   5.772   0.705   7.704  0.0399 -0.3854 -0.5757
 6617TIP3    H144046   5.682   0.728   7.729 -0.6340 -2.6651 -0.7176
 6617TIP3    H244047   5.791   0.762   7.630 -1.0230  0.5961 -0.1320
 6618TIP3   OH244048   0.780   5.366   0.448  0.5695 -0.3304  0.0486
 6618TIP3    H144049   0.738   5.438   0.496  0.1213 -0.2322 -0.4882
 6618TIP3    H244050   0.788   5.296   0.512  2.2857  0.6472  1.0014
 6619TIP3   OH244051   0.289   6.661   0.518  0.0567 -0.5620  0.2314
 6619TIP3    H144052   0.299   6.725   0.447  0.2544 -0.7467  0.0928
 6619TIP3    H244053   0.374   6.663   0.563 -0.6068  0.8339  1.5437
 6620TIP3   OH244054   1.372   3.914   1.255  0.1453 -0.2079  0.0543
 6620TIP3    H144055   1.442   3.856   1.282 -1.3838 -1.0523  2.4830
 6620TIP3    H244056   1.399   4.001   1.285  0.3797 -0.4486  0.5420
 6621TIP3   OH244057   0.189   6.135   7.949  0.7233  0.5375 -0.0094
 6621TIP3    H144058   0.192   6.185   8.031  2.3308 -1.0298  0.9721
 6621TIP3    H244059   0.269   6.160   7.903  2.2404 -1.9248  1.0897
 6622TIP3   OH244060   2.902   1.332   9.532  0.0448 -1.1182  0.4145
 6622TIP3    H144061   2.903   1.392   9.607 -2.2444  0.1401 -0.4771
 6622TIP3    H244062   2.962   1.371   9.469  0.0794 -0.8418  0.6165
 6623TIP3   OH244063   7.462   1.896   9.190  0.0959  0.0648  0.4778
 6623TIP3    H144064   7.468   1.951   9.112  0.2769  1.5522  1.5034
 6623TIP3    H244065   7.466   1.958   9.263  0.0566 -1.3027  1.6715
 6624TIP3   OH244066   5.781   7.412   9.718 -0.5823 -0.0113  0.0891
 6624TIP3    H144067   5.873   7.384   9.721 -0.5004  0.2950  0.4366
 6624TIP3    H244068   5.782   7.494   9.669 -0.8504 -0.7049 -1.1060
 6625TIP3   OH244069   6.972   6.701   1.318  0.2230  0.2340  0.4712
 6625TIP3    H144070   6.915   6.680   1.392  0.0472 -2.3343 -0.3165
 6625TIP3    H244071   6.914   6.701   1.242  1.0235 -1.1877 -0.1760
 6626TIP3   OH244072   5.026   4.989   7.384 -0.9492  0.2819  0.1456
 6626TIP3    H144073   4.975   4.910   7.402 -0.4527 -0.2923 -0.8598
 6626TIP3    H244074   4.991   5.021   7.300  0.2294 -0.0400 -0.4831
 6627TIP3   OH244075   6.954   5.353   7.258 -0.3562  0.4712 -0.4687
 6627TIP3    H144076   6.864   5.350   7.291 -0.7292  0.9091 -1.4269
 6627TIP3    H244077   6.949   5.405   7.178  0.1359 -2.3651 -2.4684
 6628TIP3   OH244078   2.035   6.166   0.220 -0.1694 -0.2877 -0.5553
 6628TIP3    H144079   1.999   6.251   0.245 -0.3021 -0.7188  0.8466
 6628TIP3    H244080   1.960   6.113   0.195 -0.1766 -0.2481 -0.6172
 6629TIP3   OH244081   5.049   7.449   2.384  0.0986 -0.1367 -0.0263
 6629TIP3    H144082   4.973   7.475   2.436  0.5767  0.3155  0.4601
 6629TIP3    H244083   5.096   7.531   2.370  0.6197 -0.4541 -0.1199
 6630TIP3   OH244084   7.656   1.389   7.956  0.1849 -0.5732  0.3248
 6630TIP3    H144085   7.747   1.418   7.944  0.3553 -0.0537  2.4407
 6630TIP3    H244086   7.607   1.470   7.970 -0.5956 -0.8670 -0.5843
 6631TIP3   OH244087   2.447   7.238   0.517  0.9000 -0.7750  0.2838
 6631TIP3    H144088   2.380   7.267   0.578  0.4113 -1.2503 -0.0094
 6631TIP3    H244089   2.398   7.208   0.440  1.5444  0.7298 -0.7506
 6632TIP3   OH244090   4.462   4.940   7.322  0.5878 -0.2132  0.0959
 6632TIP3    H144091   4.427   5.005   7.261 -0.4883  1.4591  2.3598
 6632TIP3    H244092   4.557   4.948   7.314  0.4745  1.1851 -0.1821
 6633TIP3   OH244093   2.218   0.448   7.994  0.0260 -0.0730  0.0886
 6633TIP3    H144094   2.135   0.405   8.010  0.1705 -1.5912 -2.6842
 6633TIP3    H244095   2.195   0.540   7.980 -0.7661  0.0934  2.1407
 6634TIP3   OH244096   7.628   1.085   7.485 -0.4546 -0.1309  0.0429
 6634TIP3    H144097   7.551   1.059   7.536 -1.2724  1.0401 -0.5630
 6634TIP3    H244098   7.639   1.015   7.421 -1.1572 -0.2021 -0.0100
 6635TIP3   OH244099   6.117   2.901   8.931  0.4998  0.4810 -0.4114
 6635TIP3    H144100   6.084   2.826   8.881  0.8451  0.6710 -0.9412
 6635TIP3    H244101   6.177   2.863   8.995  0.2492  0.2553 -0.3112
 6636TIP3   OH244102   0.696   3.379   0.553 -0.4892  0.3120 -0.0182
 6636TIP3    H144103   0.763   3.446   0.538 -0.7240  0.8001  1.0345
 6636TIP3    H244104   0.743   3.308   0.597 -0.7835  0.9808  1.4442
 6637TIP3   OH244105   7.469   1.513   2.146  0.0583  0.0210  0.0087
 6637TIP3    H144106   7.552   1.559   2.131  0.0687  0.7480  1.9514
 6637TIP3    H244107   7.495   1.427   2.179  0.0504  0.0855  0.1860
 6638TIP3   OH244108   3.061   0.683   8.006 -0.3883  0.2896 -0.3786
 6638TIP3    H144109   3.004   0.645   8.073  0.7520  0.1399  0.5312
 6638TIP3    H244110   3.085   0.609   7.950 -0.2944  0.1711 -0.1810
 6639TIP3   OH244111   6.964   2.362   0.152  0.4020  0.7893 -0.0160
 6639TIP3    H144112   6.953   2.280   0.200 -0.4587 -0.0397 -1.5753
 6639TIP3    H244113   7.056   2.363   0.126  0.1081 -0.3801 -1.1749
 6640TIP3   OH244114   4.332   1.731   1.020  0.0813  0.0783  0.4477
 6640TIP3    H144115   4.333   1.811   0.966  1.6357 -1.9217 -2.7550
 6640TIP3    H244116   4.251   1.687   0.995 -0.2850  0.1588  1.4645
 6641TIP3   OH244117   2.122   2.993   8.073 -0.0153  0.3470  0.4233
 6641TIP3    H144118   2.086   3.027   7.991 -1.7457  0.5507  1.2346
 6641TIP3    H244119   2.182   3.062   8.103 -0.4769  0.9124  0.0556
 6642TIP3   OH244120   4.474   2.294   8.223 -0.5413  0.1120  0.2396
 6642TIP3    H144121   4.489   2.209   8.263  1.8050  0.5957  0.5478
 6642TIP3    H244122   4.464   2.354   8.297  2.7582  0.8355  0.2393
 6643TIP3   OH244123   6.739   2.155   9.438 -0.1290 -0.0515 -0.1195
 6643TIP3    H144124   6.764   2.126   9.526 -2.5097 -0.8263  0.3827
 6643TIP3    H244125   6.745   2.076   9.384  2.5286  0.6756 -1.0265
 6644TIP3   OH244126  -0.007   0.583   7.050 -0.0579  0.0825  0.6192
 6644TIP3    H144127   0.054   0.641   7.094  0.8255 -1.4240  1.4755
 6644TIP3    H244128   0.042   0.548   6.976  0.0272 -0.8905  1.1226
 6645TIP3   OH244129   4.938   7.556   8.282  0.0810 -0.2187 -0.1930
 6645TIP3    H144130   4.943   7.516   8.368  1.3611 -2.1994 -1.1099
 6645TIP3    H244131   5.028   7.579   8.261  0.1273 -1.6198 -1.7732
 6646TIP3   OH244132   6.666   6.110   8.917  0.1572 -0.0171 -0.2648
 6646TIP3    H144133   6.579   6.113   8.876 -0.2448  0.2176  0.5716
 6646TIP3    H244134   6.648   6.125   9.010  0.8834 -1.8260  0.2108
 6647TIP3   OH244135   2.726   4.082   0.829  0.0806 -0.0750  0.0618
 6647TIP3    H144136   2.676   4.004   0.805 -0.3741 -0.7260  2.8192
 6647TIP3    H244137   2.790   4.051   0.893  0.7576  1.6138  0.2649
 6648TIP3   OH244138   1.321   6.189   0.951  0.5791  0.2704 -0.0655
 6648TIP3    H144139   1.288   6.246   0.881  1.0764  0.4365 -0.1736
 6648TIP3    H244140   1.411   6.169   0.924 -0.8831 -4.5361 -2.6193
 6649TIP3   OH244141   1.627   4.187   9.193 -0.0454 -0.8595 -0.7906
 6649TIP3    H144142   1.667   4.178   9.106 -0.8556 -0.1681 -1.2446
 6649TIP3    H244143   1.676   4.126   9.248  1.9445  0.2530 -1.2164
 6650TIP3   OH244144   1.177   3.947   2.268 -0.2692  0.3803 -0.4669
 6650TIP3    H144145   1.147   4.022   2.217  0.8072  0.8338 -0.4468
 6650TIP3    H244146   1.156   3.969   2.358 -0.8073  0.2315 -0.5484
 6651TIP3   OH244147   7.533   4.014   8.174  0.6282  0.0056  0.1774
 6651TIP3    H144148   7.513   4.048   8.261 -0.4133 -0.2561  0.0511
 6651TIP3    H244149   7.627   4.030   8.163  0.9051 -0.4900  1.5874
 6652TIP3   OH244150   4.239   2.002   8.445  0.2603 -0.1530 -0.2421
 6652TIP3    H144151   4.236   2.093   8.475  2.0277  0.1275 -0.7871
 6652TIP3    H244152   4.207   2.005   8.355 -1.1196 -0.3424  0.2148
 6653TIP3   OH244153   0.110   5.723   8.862 -0.2392 -0.4157  0.3509
 6653TIP3    H144154   0.192   5.769   8.842 -0.1023 -0.6750  0.3177
 6653TIP3    H244155   0.043   5.772   8.815 -0.0509 -0.4454  0.0519
 6654TIP3   OH244156   1.479   2.747   2.512  0.2608  0.3106 -0.5616
 6654TIP3    H144157   1.485   2.797   2.430 -0.8053  1.9226  0.2806
 6654TIP3    H244158   1.570   2.732   2.537  0.6981  2.6305 -0.4505
 6655TIP3   OH244159   6.348   3.887   0.777 -0.2708 -0.4765  0.2831
 6655TIP3    H144160   6.408   3.961   0.776  0.9194 -1.4061 -0.0183
 6655TIP3    H244161   6.288   3.903   0.704  0.2300 -0.0192 -0.0319
 6656TIP3   OH244162   0.131   6.142   2.347 -0.0606 -0.2083 -0.0608
 6656TIP3    H144163   0.036   6.134   2.334 -0.2719 -0.2263  1.2943
 6656TIP3    H244164   0.164   6.176   2.264 -1.6047  2.3205  0.2532
 6657TIP3   OH244165   3.923   7.339   7.266  0.2650 -0.3447 -0.6316
 6657TIP3    H144166   3.848   7.331   7.325  0.5593  0.3042 -0.1459
 6657TIP3    H244167   3.886   7.326   7.179  0.0630 -2.7051 -0.2384
 6658TIP3   OH244168   5.160   1.174   8.055 -0.4518  0.0804 -0.1203
 6658TIP3    H144169   5.205   1.122   8.121  1.3190  1.4045 -0.1954
 6658TIP3    H244170   5.149   1.260   8.096  1.3549  1.1501 -1.7351
 6659TIP3   OH244171   6.955   2.343   0.770 -0.0145 -0.3221 -0.4064
 6659TIP3    H144172   7.017   2.287   0.724 -0.4496 -1.5294  0.4375
 6659TIP3    H244173   6.869   2.303   0.752 -0.2829 -0.2279  0.6119
 6660TIP3   OH244174   2.993   0.124   9.187 -0.3930  0.0564  0.1216
 6660TIP3    H144175   3.017   0.216   9.179  1.6539 -0.4866 -0.7283
 6660TIP3    H244176   3.023   0.084   9.105 -0.4426 -1.5173  0.8281
 6661TIP3   OH244177   5.168   0.880   0.662 -0.1229 -0.6671  0.3070
 6661TIP3    H144178   5.219   0.924   0.594  1.3452 -1.0198  1.1456
 6661TIP3    H244179   5.131   0.803   0.618 -0.0925 -0.3138 -0.3514
 6662TIP3   OH244180   6.384   1.685   9.231  0.2167 -0.2639  0.3214
 6662TIP3    H144181   6.327   1.743   9.281 -1.6303 -1.0725 -0.7398
 6662TIP3    H244182   6.466   1.683   9.280 -0.3352  1.6900  1.3967
 6663TIP3   OH244183   5.430   2.140   0.799  0.0824  0.2947 -0.4596
 6663TIP3    H144184   5.352   2.152   0.853  0.7400  0.2297  0.5169
 6663TIP3    H244185   5.474   2.225   0.802  1.1669 -0.2833  0.7944
 6664TIP3   OH244186   0.515   7.126   9.620  0.3810  0.3937  0.8389
 6664TIP3    H144187   0.529   7.066   9.693 -1.6871  0.7753  1.6141
 6664TIP3    H244188   0.577   7.197   9.634  1.7236 -0.7401  0.8086
 6665TIP3   OH244189   3.882   2.128   7.381 -0.0132  0.6191  0.4109
 6665TIP3    H144190   3.898   2.094   7.293 -1.5855 -0.0023  0.3210
 6665TIP3    H244191   3.969   2.143   7.418  0.6972 -0.5752 -0.6894
 6666TIP3   OH244192   2.746   0.019   7.508  0.1154 -0.1240  0.2206
 6666TIP3    H144193   2.699  -0.022   7.581 -0.1019  1.1814  0.8337
 6666TIP3    H244194   2.837  -0.009   7.520 -0.1617 -1.1196  0.1192
 6667TIP3   OH244195   1.503   3.494   8.634  0.0297  0.2831 -0.6468
 6667TIP3    H144196   1.470   3.534   8.715 -0.6901 -1.6545  0.0748
 6667TIP3    H244197   1.459   3.409   8.630  0.3082  0.1942 -2.9242
 6668TIP3   OH244198   1.584   6.105   1.138  0.1427 -0.0365  0.6208
 6668TIP3    H144199   1.539   6.073   1.060  1.0377 -0.3619  0.2321
 6668TIP3    H244200   1.513   6.127   1.199 -0.5349 -1.6549  0.4687
 6669TIP3   OH244201   1.702   4.673   8.126  0.5468 -0.3835 -0.3355
 6669TIP3    H144202   1.714   4.750   8.181  0.3570 -0.3599 -0.3241
 6669TIP3    H244203   1.741   4.601   8.176 -0.9258 -0.6340  0.5248
 6670TIP3   OH244204   0.399   3.823   1.767 -0.3774  0.2640  0.0837
 6670TIP3    H144205   0.438   3.805   1.853 -1.2131 -1.5692  0.1171
 6670TIP3    H244206   0.308   3.844   1.787 -0.8617 -1.2687 -0.4095
 6671TIP3   OH244207   5.164   4.987   9.836  0.4705  0.1660 -0.4774
 6671TIP3    H144208   5.228   4.926   9.872  0.9420  1.2329  0.5597
 6671TIP3    H244209   5.212   5.068   9.822 -0.7969  1.3011  1.2433
 6672TIP3   OH244210   4.091   2.470   0.911 -0.1277 -0.2023 -0.4537
 6672TIP3    H144211   4.136   2.517   0.981 -1.1295  0.2911 -0.1212
 6672TIP3    H244212   4.123   2.511   0.830  0.1678 -0.0040 -0.2392
 6673TIP3   OH244213   6.316   4.620   6.947  0.1605 -0.7701  0.1764
 6673TIP3    H144214   6.314   4.706   6.988  1.6847 -0.6566  0.0696
 6673TIP3    H244215   6.401   4.583   6.972 -0.7633 -2.5678  0.8482
 6674TIP3   OH244216   0.520   1.584   1.879 -0.6598  0.0538  0.5867
 6674TIP3    H144217   0.597   1.546   1.837 -1.6609  0.2529 -1.5742
 6674TIP3    H244218   0.536   1.678   1.878 -1.7987  0.2814 -1.8752
 6675TIP3   OH244219   4.475   5.961   9.365  0.0954  0.2979 -0.3038
 6675TIP3    H144220   4.415   5.898   9.406 -0.0378 -1.0605 -2.4467
 6675TIP3    H244221   4.525   5.996   9.438 -0.1393 -1.9740  1.0693
 6676TIP3   OH244222   5.697   7.042   0.960 -0.0044 -0.6672  0.0266
 6676TIP3    H144223   5.658   7.082   1.038  1.3045  0.0593  0.3292
 6676TIP3    H244224   5.779   7.003   0.991  0.3881 -0.6321 -0.9296
 6677TIP3   OH244225   4.022   1.834   8.454  0.4484  0.2284 -0.3735
 6677TIP3    H144226   3.981   1.819   8.540 -0.2377  0.0003 -0.7318
 6677TIP3    H244227   4.094   1.894   8.473 -1.1233  2.1291  0.0503
 6678TIP3   OH244228   2.852   3.498   0.792  0.0574  0.1755  0.0130
 6678TIP3    H144229   2.845   3.407   0.819  1.6796  0.2289  0.6833
 6678TIP3    H244230   2.862   3.493   0.697 -0.1360 -0.3148  0.0113
 6679TIP3   OH244231   6.161   5.703   8.794  0.3866 -0.4292  0.2552
 6679TIP3    H144232   6.080   5.682   8.746 -1.0658 -0.5883  2.6232
 6679TIP3    H244233   6.230   5.657   8.746 -0.8083  0.0461 -2.0911
 6680TIP3   OH244234   7.636   5.479   1.885 -0.8734  0.3265  0.1394
 6680TIP3    H144235   7.553   5.511   1.852 -0.6605  0.2246 -0.5036
 6680TIP3    H244236   7.682   5.446   1.808 -0.4028  0.0121  0.5453
 6681TIP3   OH244237   6.390   5.580   1.368 -0.2511  0.1622  0.4020
 6681TIP3    H144238   6.378   5.485   1.372  0.0995  0.0294 -1.1189
 6681TIP3    H244239   6.484   5.591   1.351 -0.8063  0.5894 -3.0563
 6682TIP3   OH244240   1.651   3.412   7.677  0.2166  0.1525  0.1930
 6682TIP3    H144241   1.666   3.319   7.691  1.7369  0.2787 -0.3836
 6682TIP3    H244242   1.597   3.416   7.598 -0.5778 -0.2518  0.7045
 6683TIP3   OH244243   0.176   1.740   3.236 -0.1337  0.0327 -0.3570
 6683TIP3    H144244   0.265   1.738   3.271  0.6730  1.1007 -2.1755
 6683TIP3    H244245   0.164   1.830   3.206 -2.7121  0.5282  1.8407
 6684TIP3   OH244246   7.227   5.876   8.489  0.0029 -0.5156 -0.7605
 6684TIP3    H144247   7.224   5.970   8.507  1.1737 -0.2695 -1.7329
 6684TIP3    H244248   7.155   5.839   8.540 -2.0612  1.2224 -2.2397
 6685TIP3   OH244249   1.419   6.850   2.749 -0.2341 -0.2474  0.4814
 6685TIP3    H144250   1.362   6.774   2.736 -0.2864 -0.7037  2.8276
 6685TIP3    H244251   1.404   6.875   2.840  0.5638  1.9556  0.0574
 6686TIP3   OH244252   3.461   0.180   0.732  0.0708  0.5551  0.3095
 6686TIP3    H144253   3.439   0.273   0.729 -1.9567  0.1780  1.4832
 6686TIP3    H244254   3.403   0.139   0.668  1.3934  0.1491 -0.6568
 6687TIP3   OH244255   7.151   5.205  -0.000 -1.0092  0.0468 -0.1208
 6687TIP3    H144256   7.218   5.188   0.065 -1.9698  1.5827  1.3472
 6687TIP3    H244257   7.199   5.233  -0.078  0.0759  1.6571  1.0647
 6688TIP3   OH244258   0.039   5.946   9.670 -0.2334  0.0489 -0.2002
 6688TIP3    H144259   0.042   5.927   9.576 -0.7245  0.9074 -0.4011
 6688TIP3    H244260   0.107   5.890   9.708  0.6617  0.4308 -1.1972
 6689TIP3   OH244261   4.588   7.383   8.572  0.2227  0.0328  0.1879
 6689TIP3    H144262   4.514   7.402   8.629  1.2100  2.2920  0.8239
 6689TIP3    H244263   4.665   7.390   8.628  1.0084 -1.4687 -0.6305
 6690TIP3   OH244264   4.857   4.967   0.290  0.0616 -0.3493 -0.3565
 6690TIP3    H144265   4.783   4.977   0.231  0.0332  2.2309 -0.0005
 6690TIP3    H244266   4.895   5.055   0.296  1.3527 -0.9761  1.7618
 6691TIP3   OH244267   7.145   4.772   1.984  0.4765  0.1397  0.2095
 6691TIP3    H144268   7.143   4.816   1.899 -2.6306 -0.2839 -0.0661
 6691TIP3    H244269   7.136   4.843   2.048 -0.1185  0.2654 -0.0023
 6692TIP3   OH244270   2.013   2.972   2.743 -0.4328  0.3930 -0.5901
 6692TIP3    H144271   2.079   3.003   2.681  0.5051  1.1914  0.7457
 6692TIP3    H244272   2.063   2.947   2.821 -1.6214 -0.0143  0.0654
 6693TIP3   OH244273   5.387   3.781   9.632  0.4011  0.9342 -0.2504
 6693TIP3    H144274   5.385   3.731   9.714 -1.6088  0.1247 -0.7097
 6693TIP3    H244275   5.404   3.871   9.659 -0.0962  0.6605  1.0652
 6694TIP3   OH244276   1.754   4.927   7.724 -0.3301 -0.7217  0.0510
 6694TIP3    H144277   1.693   4.869   7.677  0.7305 -1.6742 -0.1970
 6694TIP3    H244278   1.760   5.005   7.668  0.5102 -1.6229 -1.1884
 6695TIP3   OH244279   3.757   0.066   8.663  0.3408 -0.7022 -0.0163
 6695TIP3    H144280   3.744   0.159   8.643  0.1687 -1.0283 -1.5092
 6695TIP3    H244281   3.674   0.038   8.701  0.5009 -0.1772  0.7381
 6696TIP3   OH244282   4.917   0.576   1.543  0.1179 -0.3257  0.2513
 6696TIP3    H144283   4.831   0.610   1.516  0.1024 -0.3988  0.2093
 6696TIP3    H244284   4.899   0.525   1.622  0.2314  0.2746  0.6670
 6697TIP3   OH244285   7.511   3.642   9.234 -0.6991  0.3963  0.1355
 6697TIP3    H144286   7.468   3.719   9.272  0.6270  0.7922  0.9232
 6697TIP3    H244287   7.570   3.678   9.168  1.0352  0.2505  1.5294
 6698TIP3   OH244288   4.067   0.965   1.376  0.0946  0.3152 -0.6557
 6698TIP3    H144289   4.162   0.954   1.374  0.0157 -0.4224 -1.1942
 6698TIP3    H244290   4.035   0.900   1.312 -0.9978 -2.0450  2.0641
 6699TIP3   OH244291   0.179   3.916   1.959 -0.2100 -0.6387 -0.7217
 6699TIP3    H144292   0.132   3.913   2.042 -0.2474  1.6451 -0.5832
 6699TIP3    H244293   0.271   3.924   1.984  0.1080 -3.0114 -0.9726
 6700TIP3   OH244294   0.543   2.694   0.671  0.2344 -0.0995  0.4105
 6700TIP3    H144295   0.629   2.677   0.633  0.6485  0.0116  1.2809
 6700TIP3    H244296   0.546   2.653   0.758 -0.4969  0.1264  0.5488
 6701TIP3   OH244297   2.717   0.986   7.583  0.5352 -0.6216  0.0955
 6701TIP3    H144298   2.684   1.018   7.499 -2.1182 -1.9112  0.5431
 6701TIP3    H244299   2.671   1.039   7.648  0.8050 -1.1877  0.7582
 6702TIP3   OH244300   1.848   6.270   8.105 -0.3077  0.5543  0.0880
 6702TIP3    H144301   1.943   6.271   8.097 -0.3195  1.6477 -0.0156
 6702TIP3    H244302   1.831   6.215   8.182  0.3818  0.1332 -0.0533
 6703TIP3   OH244303   3.907   2.330   9.220  0.0593  0.4230  0.3334
 6703TIP3    H144304   3.867   2.267   9.280  0.0080  0.8469  0.7491
 6703TIP3    H244305   3.837   2.392   9.201 -0.1883 -0.2032 -0.8747
 6704TIP3   OH244306   2.340   6.736   1.116  0.3518  0.4600 -0.2107
 6704TIP3    H144307   2.385   6.718   1.198  1.2867 -0.7398 -0.9573
 6704TIP3    H244308   2.348   6.831   1.104  1.2296  0.4844  0.4941
 6705TIP3   OH244309   1.620   2.075   9.400 -0.3201  0.4724 -0.0245
 6705TIP3    H144310   1.533   2.047   9.429 -0.5833  1.0504 -0.2234
 6705TIP3    H244311   1.638   2.024   9.322 -0.7684  0.8065 -0.3530
 6706TIP3   OH244312   2.779   3.551   8.909 -0.1792  0.2921 -0.1145
 6706TIP3    H144313   2.706   3.566   8.849  0.2806 -0.0669 -0.7714
 6706TIP3    H244314   2.784   3.456   8.918  0.4686  0.2968 -0.3985
 6707TIP3   OH244315   1.634   5.135   2.234  0.0991  0.2772 -0.2940
 6707TIP3    H144316   1.632   5.220   2.188 -0.2220  0.2178 -0.3936
 6707TIP3    H244317   1.581   5.077   2.179 -1.6437  0.6141  0.9491
 6708TIP3   OH244318   4.247   2.247   0.220 -0.3261  0.6644 -0.2489
 6708TIP3    H144319   4.303   2.308   0.172  0.2458  1.9297  1.8851
 6708TIP3    H244320   4.159   2.283   0.211 -0.3602  0.4149 -1.0097
 6709TIP3   OH244321   5.781   3.310   0.353 -0.0415 -0.3906 -0.1766
 6709TIP3    H144322   5.758   3.379   0.415  0.0215 -1.6998  1.3840
 6709TIP3    H244323   5.873   3.291   0.371  0.7756  0.9663 -2.5180
 6710TIP3   OH244324   2.048   6.919   0.140  0.2233 -0.5409  0.0884
 6710TIP3    H144325   2.113   6.863   0.180  0.2399 -0.3625  0.3144
 6710TIP3    H244326   1.995   6.951   0.213  0.3526 -0.0883 -0.0140
 6711TIP3   OH244327   6.285   6.471   3.076  0.1396  0.1106 -0.4740
 6711TIP3    H144328   6.328   6.538   3.024 -0.2516  0.6009 -0.1806
 6711TIP3    H244329   6.294   6.501   3.166 -0.3363 -0.0539 -0.3665
 6712TIP3   OH244330   3.703   2.134   1.010  0.4402 -0.0568  0.0597
 6712TIP3    H144331   3.629   2.176   0.966  1.6166  0.3546 -1.6308
 6712TIP3    H244332   3.730   2.197   1.077  0.6882  0.8551 -0.8702
 6713TIP3   OH244333   5.790   4.495   0.232 -0.2609  0.0044  0.3147
 6713TIP3    H144334   5.699   4.474   0.255  0.0988 -2.6793 -0.4023
 6713TIP3    H244335   5.841   4.466   0.307  0.0708  1.0286  0.4970
 6714TIP3   OH244336   4.999   6.798   8.240 -0.0407 -0.3727  0.4468
 6714TIP3    H144337   5.068   6.731   8.238  0.2402 -0.1132  1.3192
 6714TIP3    H244338   5.044   6.879   8.261 -0.3950  0.0978 -0.5189
 6715TIP3   OH244339   4.720   5.147   0.498 -0.0945 -0.1814  0.7136
 6715TIP3    H144340   4.734   5.057   0.469 -1.1794 -0.9854  2.5054
 6715TIP3    H244341   4.761   5.151   0.584  1.5848  1.6254 -0.0962
 6716TIP3   OH244342   2.109   3.649   9.546  0.0933  0.2928 -0.0964
 6716TIP3    H144343   2.022   3.636   9.507 -0.4395  0.3337  1.0423
 6716TIP3    H244344   2.143   3.561   9.560  0.3532  0.2801 -0.7894
 6717TIP3   OH244345   7.523   4.900   7.433 -0.5130  0.3872  0.5250
 6717TIP3    H144346   7.520   4.956   7.355  0.0674 -0.0269  0.1890
 6717TIP3    H244347   7.463   4.940   7.495 -2.6119 -0.4182 -0.8855
 6718TIP3   OH244348   6.420   7.675   9.141  0.2950  0.0893  0.6039
 6718TIP3    H144349   6.486   7.719   9.087 -0.2992  1.1653  0.7156
 6718TIP3    H244350   6.470   7.624   9.204  1.0211  0.8600  0.6656
 6719TIP3   OH244351   5.657   7.170   6.986  0.2427  0.2211 -0.3786
 6719TIP3    H144352   5.692   7.157   7.074  1.0064  0.1514 -0.6794
 6719TIP3    H244353   5.718   7.123   6.929  0.3625  1.1436 -1.0385
 6720TIP3   OH244354   4.438   0.578   0.211 -0.0271 -0.1759  0.5652
 6720TIP3    H144355   4.347   0.607   0.207  0.0134 -0.1469 -0.5025
 6720TIP3    H244356   4.455   0.566   0.304 -1.7522 -2.1716  0.7026
 6721TIP3   OH244357   3.776   1.872   1.183  0.2288  0.0045 -0.4424
 6721TIP3    H144358   3.822   1.920   1.253  0.0868 -2.0957  1.1917
 6721TIP3    H244359   3.823   1.789   1.176 -0.4049 -0.2526 -2.1702
 6722TIP3   OH244360   0.539   6.061   7.358 -0.2454 -0.1273  0.2795
 6722TIP3    H144361   0.472   6.129   7.365 -1.6456 -1.2436 -1.4360
 6722TIP3    H244362   0.530   6.027   7.269  1.6716 -1.3043  0.4680
 6723TIP3   OH244363   0.988   1.253   7.662 -0.0008  0.2334 -0.7615
 6723TIP3    H144364   1.028   1.334   7.632  0.7056  0.1165 -0.1764
 6723TIP3    H244365   1.047   1.221   7.730 -0.2313 -0.8100 -1.0313
 6724TIP3   OH244366   3.452   7.118   9.657 -0.0019  0.5382  0.0479
 6724TIP3    H144367   3.527   7.151   9.608  1.0774 -0.1903  1.1397
 6724TIP3    H244368   3.412   7.196   9.695  0.9313  0.8467  0.4325
 6725TIP3   OH244369   3.117   7.355   8.977  0.1898  0.8676  0.2433
 6725TIP3    H144370   3.085   7.393   8.896 -0.0485  0.6514  0.2367
 6725TIP3    H244371   3.075   7.408   9.046  2.1271  2.5362  0.2459
 6726TIP3   OH244372   0.434   3.128   9.582 -0.4689 -0.6671 -0.1126
 6726TIP3    H144373   0.405   3.161   9.666  0.8350  1.5786 -0.4425
 6726TIP3    H244374   0.356   3.130   9.526 -0.7321  0.6525  0.2726
 6727TIP3   OH244375   1.942   3.797   8.394 -0.5299  0.3657  0.7338
 6727TIP3    H144376   2.022   3.813   8.445 -0.8176  0.2775  1.2136
 6727TIP3    H244377   1.872   3.798   8.458 -0.7527 -1.1692  0.5511
 6728TIP3   OH244378   6.775   2.467   2.278  0.0721 -0.1611 -0.0679
 6728TIP3    H144379   6.694   2.511   2.305 -0.0773 -0.7220  0.4135
 6728TIP3    H244380   6.755   2.432   2.191 -0.9692 -2.1461  0.8958
 6729TIP3   OH244381   1.007   1.655   9.733 -0.0794 -0.0076  0.7755
 6729TIP3    H144382   0.980   1.563   9.739  1.0022 -0.5608 -1.6392
 6729TIP3    H244383   0.926   1.705   9.745 -1.4082 -1.4346 -1.4749
 6730TIP3   OH244384   0.984   6.775   8.730  0.2530 -0.4228  0.1981
 6730TIP3    H144385   0.957   6.780   8.822  0.5642  1.4267  0.2131
 6730TIP3    H244386   1.070   6.733   8.733  0.5299  0.1645  0.8288
 6731TIP3   OH244387   1.452   5.061   7.051 -0.2515 -0.0524 -0.4628
 6731TIP3    H144388   1.539   5.027   7.071  0.1851  1.7700  1.0191
 6731TIP3    H244389   1.443   5.050   6.956  2.0447  0.6989 -0.8087
 6732TIP3   OH244390   0.047   6.596   0.586  0.0301  0.3822  0.0591
 6732TIP3    H144391   0.031   6.510   0.548  1.0033 -1.0419  2.6570
 6732TIP3    H244392   0.135   6.620   0.554 -0.3611  0.5981 -0.9049
 6733TIP3   OH244393   2.942   1.272   1.464  0.8369  0.0764  0.6312
 6733TIP3    H144394   2.849   1.270   1.444  1.4876  1.2093 -3.1078
 6733TIP3    H244395   2.959   1.187   1.505 -1.4534 -1.0781 -0.6319
 6734TIP3   OH244396   0.141   4.199   9.381  0.4748 -0.0385 -0.4024
 6734TIP3    H144397   0.058   4.193   9.333 -0.4474 -2.3839  1.2816
 6734TIP3    H244398   0.209   4.194   9.313 -0.7224  0.5554 -1.7029
 6735TIP3   OH244399   6.310   5.741   3.122  0.2082 -0.9501 -0.2348
 6735TIP3    H144400   6.279   5.674   3.183 -2.0119  1.2499  1.2840
 6735TIP3    H244401   6.371   5.794   3.174 -2.1677  1.3171  0.4935
 6736TIP3   OH244402   7.004   2.620   1.449 -0.6838 -0.0633  0.3594
 6736TIP3    H144403   7.015   2.525   1.444 -0.7289 -0.0279 -0.8674
 6736TIP3    H244404   7.052   2.653   1.373 -1.8179  0.7722 -0.0335
 6737TIP3   OH244405   5.341   0.249   7.533 -0.1523 -0.2314 -0.0420
 6737TIP3    H144406   5.284   0.235   7.457  0.4659 -0.6493 -0.4291
 6737TIP3    H244407   5.294   0.208   7.605  0.0497 -1.3379 -0.5262
 6738TIP3   OH244408   0.106   0.640   8.653 -0.2137  0.5625 -0.1431
 6738TIP3    H144409   0.037   0.579   8.680  1.8183 -0.9052  2.2169
 6738TIP3    H244410   0.076   0.725   8.684 -1.6011  0.2094 -0.4511
 6739TIP3   OH244411   2.138   1.828   1.023 -0.6108 -0.4198  0.3227
 6739TIP3    H144412   2.085   1.754   0.993  0.8406 -1.3635 -0.0130
 6739TIP3    H244413   2.191   1.792   1.094 -0.3871  0.5057  0.6395
 6740TIP3   OH244414   0.097   2.982   2.210  0.2066  0.2638  0.3235
 6740TIP3    H144415   0.142   2.906   2.248 -3.1006 -1.0012  2.1750
 6740TIP3    H244416   0.083   3.041   2.285 -0.9445  0.7093 -0.2207
 6741TIP3   OH244417   3.430   2.353   1.994  0.2472  0.1964  0.2398
 6741TIP3    H144418   3.386   2.433   2.020  1.2449  0.4786  1.1169
 6741TIP3    H244419   3.364   2.284   2.007 -0.1102  0.6694  1.0050
 6742TIP3   OH244420   5.933   0.489   0.426 -0.8849  0.2547 -0.2891
 6742TIP3    H144421   5.965   0.556   0.485 -2.1032  2.2998 -1.8157
 6742TIP3    H244422   5.877   0.433   0.480  0.6293  0.0477  1.1353
 6743TIP3   OH244423   1.138   1.508   8.914  0.0484 -0.2143  0.1727
 6743TIP3    H144424   1.167   1.417   8.921 -1.2909 -0.6573  0.1359
 6743TIP3    H244425   1.100   1.515   8.827  0.6414  0.5506 -0.0409
 6744TIP3   OH244426   4.126   2.157   7.499  0.1005  0.1364  0.1265
 6744TIP3    H144427   4.198   2.205   7.540 -0.2691  0.3134  0.5800
 6744TIP3    H244428   4.166   2.110   7.427  0.4956  1.0602 -0.2743
 6745TIP3   OH244429   2.179   1.275   8.478 -0.1821 -0.0846 -0.1746
 6745TIP3    H144430   2.105   1.275   8.417 -1.0136 -0.6127  0.8002
 6745TIP3    H244431   2.241   1.337   8.440  0.2070 -1.7707 -2.5838
 6746TIP3   OH244432   1.903   1.672   0.979 -0.0054 -0.1111 -0.5628
 6746TIP3    H144433   1.818   1.708   1.006  1.4081  1.8383  1.6292
 6746TIP3    H244434   1.893   1.657   0.885 -2.8662 -0.2674 -0.3321
 6747TIP3   OH244435   3.428   4.640   7.712  0.0913 -0.4112  0.4796
 6747TIP3    H144436   3.359   4.683   7.763  1.6437 -1.5795  3.9079
 6747TIP3    H244437   3.381   4.591   7.645 -2.0118  2.4111 -0.2996
 6748TIP3   OH244438   7.046   4.283   8.792 -0.0761 -0.6811 -0.1209
 6748TIP3    H144439   7.072   4.360   8.742  0.5214 -1.4418 -1.0159
 6748TIP3    H244440   7.067   4.209   8.735  1.1246 -1.6148  1.4427
 6749TIP3   OH244441   4.174   1.590   1.875 -0.1163  0.4022  0.2381
 6749TIP3    H144442   4.122   1.515   1.906  0.5255 -0.7478 -1.2973
 6749TIP3    H244443   4.123   1.625   1.801  0.5735  0.1613 -0.3655
 6750TIP3   OH244444   1.920   5.591   1.473 -0.0881 -0.2874  0.2793
 6750TIP3    H144445   1.827   5.587   1.495  0.3181  0.0406  2.2773
 6750TIP3    H244446   1.963   5.614   1.555  1.4901  2.5587 -1.1540
 6751TIP3   OH244447   4.989   0.886   8.154  0.3100 -0.2713 -0.6522
 6751TIP3    H144448   4.932   0.948   8.107  1.4705  0.1844 -1.4910
 6751TIP3    H244449   5.057   0.940   8.193  1.7226 -1.0513 -1.9452
 6752TIP3   OH244450   1.276   5.754   3.008  0.2126  0.7620 -0.7479
 6752TIP3    H144451   1.189   5.762   3.045  0.5998  1.0779  0.1213
 6752TIP3    H244452   1.312   5.675   3.047  0.4254  0.7902 -0.8832
 6753TIP3   OH244453   4.931   4.265   9.213  0.1606 -0.4163 -0.2418
 6753TIP3    H144454   4.964   4.176   9.227  0.0369 -0.0971  2.7461
 6753TIP3    H244455   4.995   4.321   9.258 -1.4973  0.6646  0.8845
 6754TIP3   OH244456   6.031   4.348   9.211 -0.1535 -0.3809  0.1377
 6754TIP3    H144457   6.078   4.265   9.197 -0.1678 -0.5369  0.9446
 6754TIP3    H244458   6.010   4.379   9.123  0.4287 -0.9077 -0.1968
 6755TIP3   OH244459   0.847   3.865   2.386 -0.3637 -0.4592  0.1738
 6755TIP3    H144460   0.783   3.917   2.435 -1.4691 -1.5419 -0.0574
 6755TIP3    H244461   0.804   3.780   2.375  0.1413 -0.4807 -2.0126
 6756TIP3   OH244462   5.134   0.573   9.374 -0.4562  0.0761  0.2759
 6756TIP3    H144463   5.130   0.479   9.357  0.6731  0.2734 -1.2793
 6756TIP3    H244464   5.100   0.583   9.462  0.1710 -1.8910  0.7845
 6757TIP3   OH244465   1.170   5.073   1.578  0.0908  0.3517 -0.0760
 6757TIP3    H144466   1.133   5.159   1.557 -0.6164  0.3156  0.8964
 6757TIP3    H244467   1.213   5.044   1.498  0.7890  1.8351 -0.2725
 6758TIP3   OH244468   2.105   4.657   1.366  0.6797 -0.1781 -0.2785
 6758TIP3    H144469   2.073   4.593   1.302  0.4841 -0.3256 -0.0351
 6758TIP3    H244470   2.186   4.691   1.327  1.8002 -1.9037  0.3952
 6759TIP3   OH244471   1.292   6.322   2.320 -0.5207  0.1060  0.0833
 6759TIP3    H144472   1.340   6.323   2.403 -0.8164  1.0555  0.2583
 6759TIP3    H244473   1.222   6.259   2.334  1.5746 -2.6212 -0.7458
 6760TIP3   OH244474   1.703   0.035   2.091  0.1022 -0.4597  0.1626
 6760TIP3    H144475   1.609   0.042   2.078 -0.3789 -1.6769  2.4570
 6760TIP3    H244476   1.739   0.115   2.053 -1.7024 -0.4889 -1.7615
 6761TIP3   OH244477   1.885   5.683   2.682 -0.1141 -0.5425 -0.2694
 6761TIP3    H144478   1.952   5.740   2.644 -0.5539 -0.5535 -1.0841
 6761TIP3    H244479   1.830   5.742   2.733  1.5961 -0.7904  2.0531
 6762TIP3   OH244480   3.407   1.223   8.067  0.1178  0.1841 -0.3275
 6762TIP3    H144481   3.375   1.224   8.158 -0.9891 -1.0173 -0.6623
 6762TIP3    H244482   3.330   1.197   8.016  0.2529  2.5551 -1.8527
 6763TIP3   OH244483   7.001   0.438   1.724  0.0862  0.5076 -0.1981
 6763TIP3    H144484   6.992   0.471   1.813  1.9628 -0.7203  0.4988
 6763TIP3    H244485   7.093   0.453   1.701 -0.2024  0.1949 -1.6950
 6764TIP3   OH244486   7.112   4.960   8.376  0.6903  0.4399 -0.2168
 6764TIP3    H144487   7.187   4.922   8.332  0.6142 -0.2222  0.2237
 6764TIP3    H244488   7.087   5.035   8.320  1.4809  0.4836 -0.5149
 6765TIP3   OH244489   1.142   5.928   0.557 -0.1145 -0.0925 -0.4418
 6765TIP3    H144490   1.160   5.864   0.488  0.3109 -0.3392 -0.1075
 6765TIP3    H244491   1.171   5.886   0.638 -0.8460  0.0909 -0.0691
 6766TIP3   OH244492   0.983   6.862   0.213  0.9139 -0.2526 -0.1223
 6766TIP3    H144493   1.012   6.783   0.259 -0.0863 -0.0332  0.9467
 6766TIP3    H244494   0.949   6.830   0.129  1.3656 -0.8535 -0.0793
 6767TIP3   OH244495   0.392   3.009   1.178  0.3427  0.4371 -0.0221
 6767TIP3    H144496   0.435   3.084   1.219  2.7074 -0.5052 -0.6212
 6767TIP3    H244497   0.440   2.996   1.096  0.2868 -1.9720  0.2622
 6768TIP3   OH244498   6.368   5.976   2.340 -0.1088  0.5720 -0.8743
 6768TIP3    H144499   6.439   5.994   2.402  0.1181  0.5990 -1.1393
 6768TIP3    H244500   6.399   5.901   2.290 -1.1064 -0.6968  0.3186
 6769TIP3   OH244501   2.841   3.176   7.718  0.4787  0.1669 -0.1698
 6769TIP3    H144502   2.774   3.230   7.676 -0.7146 -1.4912 -0.5368
 6769TIP3    H244503   2.817   3.176   7.811 -0.7758 -1.3062 -0.4415
 6770TIP3   OH244504   6.065   2.793   8.161 -0.0852 -0.5438  0.3423
 6770TIP3    H144505   6.044   2.713   8.112  1.6107 -1.2138  0.6204
 6770TIP3    H244506   6.033   2.776   8.250 -0.3957 -0.6070  0.2182
 6771TIP3   OH244507   2.376   1.728   3.081 -0.0251  0.0822 -0.2406
 6771TIP3    H144508   2.358   1.741   3.175 -1.0681 -2.3882 -0.0155
 6771TIP3    H244509   2.469   1.747   3.072  0.2811 -0.4194  1.4783
 6772TIP3   OH244510   4.060   7.251   1.788 -0.1649  0.0015 -0.3880
 6772TIP3    H144511   4.097   7.181   1.735  1.3990  0.4901 -0.0002
 6772TIP3    H244512   4.092   7.233   1.877  2.3249  2.4230 -0.6405
 6773TIP3   OH244513   7.579   0.723   7.673  0.0140  0.1629 -0.1052
 6773TIP3    H144514   7.537   0.644   7.640 -0.5883  0.8984 -1.1548
 6773TIP3    H244515   7.625   0.695   7.752  1.0580 -1.5381 -1.2646
 6774TIP3   OH244516   3.351   4.960   9.350  0.1436 -0.1781  0.0402
 6774TIP3    H144517   3.395   4.876   9.341  0.5150 -0.1216  1.1347
 6774TIP3    H244518   3.281   4.944   9.414  0.9289  0.5744  1.1394
 6775TIP3   OH244519   5.360   4.355   0.114  0.0224 -0.2530  0.0652
 6775TIP3    H144520   5.414   4.383   0.188 -0.5487 -0.5985  0.6270
 6775TIP3    H244521   5.422   4.315   0.053  0.9654  2.6785 -1.0433
 6776TIP3   OH244522   4.048   0.515   1.667 -0.3161  0.3399  0.2730
 6776TIP3    H144523   4.070   0.496   1.758 -0.1088  1.8928  0.5792
 6776TIP3    H244524   4.127   0.492   1.618 -0.9243 -1.9054  0.2476
 6777TIP3   OH244525   3.485   0.850   9.866 -0.5514 -0.5720 -0.1109
 6777TIP3    H144526   3.460   0.940   9.844 -1.7769 -0.8576  0.0029
 6777TIP3    H244527   3.465   0.843   9.959 -0.5782 -0.9957 -0.1495
 6778TIP3   OH244528   0.285   1.603   9.578  0.2195 -0.1249 -0.1228
 6778TIP3    H144529   0.302   1.556   9.496  2.7877 -2.6468  1.6204
 6778TIP3    H244530   0.191   1.619   9.578 -0.2540 -2.2438 -2.4567
 6779TIP3   OH244531   4.416   1.436   2.641 -0.0616  0.1643  0.1495
 6779TIP3    H144532   4.508   1.440   2.664 -0.4423  0.1251  1.8305
 6779TIP3    H244533   4.402   1.346   2.610  0.4813  0.2117 -0.2417
 6780TIP3   OH244534   7.330   6.877   2.219 -0.0229  0.2108  0.0530
 6780TIP3    H144535   7.401   6.939   2.204  0.2505  0.1360  0.9872
 6780TIP3    H244536   7.305   6.848   2.131  0.7780  0.5963 -0.3135
 6781TIP3   OH244537   6.844   4.069   1.876  0.0973 -0.6025 -0.1880
 6781TIP3    H144538   6.871   4.083   1.967 -0.7726 -1.3233  0.2004
 6781TIP3    H244539   6.816   4.155   1.846 -1.3793 -0.6619  0.8589
 6782TIP3   OH244540   6.326   3.258   3.078 -0.1110 -0.0782 -0.3469
 6782TIP3    H144541   6.327   3.347   3.113  0.9422 -0.2572  0.0843
 6782TIP3    H244542   6.244   3.221   3.111 -0.7814  0.8652 -0.8942
 6783TIP3   OH244543   6.711   5.206   7.956 -0.3146 -0.1954  0.2356
 6783TIP3    H144544   6.701   5.181   8.048  0.4838 -1.8547 -0.1036
 6783TIP3    H244545   6.805   5.215   7.944 -0.3418 -1.0589 -0.6780
 6784TIP3   OH244546   6.482   3.782   7.059  0.5713 -0.2059  0.5531
 6784TIP3    H144547   6.518   3.784   7.148 -0.8772 -2.4116  1.2844
 6784TIP3    H244548   6.395   3.743   7.070  0.0745  0.1376 -1.7650
 6785TIP3   OH244549   1.997   6.995   0.465 -0.5327 -0.4226 -0.2981
 6785TIP3    H144550   1.970   7.070   0.518 -0.3836  1.1000 -2.2573
 6785TIP3    H244551   1.917   6.943   0.455 -1.0759  0.4111 -0.3646
 6786TIP3   OH244552   4.801   2.677   7.498  0.3367  0.6766  0.1744
 6786TIP3    H144553   4.836   2.706   7.582 -1.1956  0.1137  1.0513
 6786TIP3    H244554   4.713   2.715   7.494 -0.0871 -0.3311 -0.5887
 6787TIP3   OH244555   6.694   0.213   9.344 -0.2789  0.3788 -0.1586
 6787TIP3    H144556   6.701   0.291   9.289  1.1263  1.1391  1.0167
 6787TIP3    H244557   6.766   0.157   9.315 -1.5108 -0.6994 -1.2566
 6788TIP3   OH244558   3.598   3.113   9.745 -0.0043  0.0284  0.6268
 6788TIP3    H144559   3.633   3.071   9.667 -0.3872 -1.6080  1.2887
 6788TIP3    H244560   3.668   3.106   9.810 -0.2060  0.0493  0.8507
 6789TIP3   OH244561   4.133   2.155   2.696 -0.3841  0.4388  0.1350
 6789TIP3    H144562   4.138   2.075   2.749 -0.6845 -1.7836 -2.8734
 6789TIP3    H244563   4.207   2.149   2.636 -0.6030  2.2847 -0.3844
 6790TIP3   OH244564   6.844   5.837   1.095 -0.0133 -0.2055 -0.0650
 6790TIP3    H144565   6.906   5.817   1.166 -0.7187 -0.3111  0.5290
 6790TIP3    H244566   6.856   5.931   1.080 -0.4914  0.0160  0.8288
 6791TIP3   OH244567   0.055   0.173   9.199  0.2427 -0.7395 -0.7257
 6791TIP3    H144568   0.021   0.129   9.120 -5.5221  0.7225  0.4650
 6791TIP3    H244569   0.037   0.111   9.270  2.8536 -0.9170 -0.1250
 6792TIP3   OH244570   6.117   4.114   0.534  1.0904  0.4737  0.1524
 6792TIP3    H144571   6.146   4.079   0.450  1.9939  1.1797  0.1496
 6792TIP3    H244572   6.142   4.206   0.532  1.9520  0.3073  1.5302
 6793TIP3   OH244573   4.777   3.195   9.597 -0.2650  0.3501  0.4818
 6793TIP3    H144574   4.849   3.191   9.535 -1.6109  0.8575 -1.2222
 6793TIP3    H244575   4.740   3.283   9.585 -1.4739 -0.0704  0.9215
 6794TIP3   OH244576   4.833   2.497   1.909 -0.3050 -0.0935  0.2423
 6794TIP3    H144577   4.763   2.458   1.961  0.6935 -0.1516  1.6013
 6794TIP3    H244578   4.905   2.507   1.971 -0.0094  2.5341 -0.4268
 6795TIP3   OH244579   2.306   1.576   0.797  0.5902  0.0662 -0.3131
 6795TIP3    H144580   2.287   1.551   0.707 -2.6599 -0.2417  0.3187
 6795TIP3    H244581   2.337   1.667   0.791  0.3811  0.0666 -1.7296
 6796TIP3   OH244582   6.223   5.224   0.101 -0.3342 -0.3777 -0.6492
 6796TIP3    H144583   6.158   5.156   0.116  0.1644 -0.8339 -0.5473
 6796TIP3    H244584   6.175   5.292   0.052 -0.2369 -1.8856 -2.9936
 6797TIP3   OH244585   6.706   3.873   8.053  0.0338 -0.3007  0.3710
 6797TIP3    H144586   6.614   3.880   8.080 -0.3332 -2.2829 -0.1750
 6797TIP3    H244587   6.705   3.890   7.959 -0.4477 -3.7241 -0.4025
 6798TIP3   OH244588   3.323   7.084   0.446  0.0568  0.1857  0.0286
 6798TIP3    H144589   3.387   7.068   0.376  0.8128  1.9457  0.2586
 6798TIP3    H244590   3.376   7.093   0.525 -0.6254  0.0746  0.5030
 6799TIP3   OH244591   7.352   1.402   2.946  0.2798 -0.0689  0.0075
 6799TIP3    H144592   7.370   1.362   2.861  0.2820 -0.3819  0.1532
 6799TIP3    H244593   7.336   1.494   2.927  3.3073  0.5422 -0.0090
 6800TIP3   OH244594   2.228   2.424   8.922  0.5679  0.4024 -0.2240
 6800TIP3    H144595   2.138   2.392   8.918  0.5925  0.3822 -0.7540
 6800TIP3    H244596   2.220   2.515   8.952  0.5053 -0.0975  1.3348
 6801TIP3   OH244597   1.156   0.239   7.736  0.5904  0.1079 -0.3782
 6801TIP3    H144598   1.150   0.318   7.681 -0.2069 -0.2450 -0.8272
 6801TIP3    H244599   1.122   0.169   7.680 -2.0570  0.0466  1.1618
 6802TIP3   OH244600   3.884   6.949   0.553 -0.2187  0.7448 -0.2390
 6802TIP3    H144601   3.918   7.024   0.504  1.2911  0.6617  0.6080
 6802TIP3    H244602   3.916   6.963   0.643  1.6943 -1.8042 -0.4213
 6803TIP3   OH244603   1.595   1.784   1.783 -0.0905 -0.0603  0.3764
 6803TIP3    H144604   1.520   1.789   1.724  0.5206  0.7377 -0.3645
 6803TIP3    H244605   1.596   1.693   1.813  0.4271 -0.9279 -2.0025
 6804TIP3   OH244606   4.347   7.365   2.129  1.4359 -0.0233  0.2712
 6804TIP3    H144607   4.371   7.458   2.132  3.4801 -0.5296  2.7262
 6804TIP3    H244608   4.428   7.320   2.106  0.4910 -1.2488 -0.7770
 6805TIP3   OH244609   4.648   4.581   8.038 -0.0872 -0.1170 -0.2714
 6805TIP3    H144610   4.725   4.596   7.982  0.6619 -1.1339  0.4546
 6805TIP3    H244611   4.685   4.552   8.121 -1.2491  0.0174  0.3054
 6806TIP3   OH244612   4.610   0.703   1.842  0.1221  0.3386 -0.3958
 6806TIP3    H144613   4.535   0.647   1.864  1.9539 -2.4569 -0.6999
 6806TIP3    H244614   4.670   0.693   1.916  1.3006  0.3515 -1.3100
 6807TIP3   OH244615   5.578   6.883   7.164  0.2565 -0.1781 -0.0495
 6807TIP3    H144616   5.581   6.938   7.242 -1.6629  0.6117 -0.4675
 6807TIP3    H244617   5.589   6.794   7.197 -2.3165 -0.0557  1.4377
 6808TIP3   OH244618   7.073   7.634   1.426 -0.1374 -0.3542  0.1735
 6808TIP3    H144619   7.044   7.720   1.455 -0.2197  0.2838 -1.6997
 6808TIP3    H244620   7.014   7.573   1.469 -1.6099  0.6818 -0.3266
 6809TIP3   OH244621   4.536   2.707   1.469  0.3885  0.7075  0.3812
 6809TIP3    H144622   4.512   2.714   1.561 -1.0512 -2.4564  0.3638
 6809TIP3    H244623   4.622   2.663   1.470 -1.2116 -2.7639  0.3395
 6810TIP3   OH244624   3.223   0.389   8.347 -0.7018 -0.2459  0.2343
 6810TIP3    H144625   3.186   0.476   8.363  1.3621  0.3959  1.9145
 6810TIP3    H244626   3.276   0.400   8.268  2.1393  0.9888  2.1669
 6811TIP3   OH244627   3.933   6.987   0.221  0.1723  0.2739 -0.9414
 6811TIP3    H144628   3.990   7.030   0.286 -2.5839 -0.4102  2.2055
 6811TIP3    H244629   3.881   7.058   0.183 -0.1860  0.3965 -0.2374
 6812TIP3   OH244630   7.146   0.558   0.988  0.6026  0.3105 -0.4814
 6812TIP3    H144631   7.064   0.603   1.005  0.6629 -0.1854  1.2590
 6812TIP3    H244632   7.128   0.466   1.008  1.3962  0.0831 -0.7654
 6813TIP3   OH244633   5.507   4.797   8.972 -0.1560 -0.0449 -0.0173
 6813TIP3    H144634   5.544   4.708   8.969 -2.5264 -1.1124 -0.2535
 6813TIP3    H244635   5.533   4.836   8.889  1.3705 -0.2825  0.3100
 6814TIP3   OH244636   6.525   4.041   1.039  0.6027 -0.1872 -0.1495
 6814TIP3    H144637   6.606   3.992   1.025  1.5644  1.0010  1.0673
 6814TIP3    H244638   6.546   4.131   1.015 -0.9306 -0.1527 -1.6229
 6815TIP3   OH244639   5.097   6.762   9.628  0.0979  0.3878 -0.2410
 6815TIP3    H144640   5.042   6.835   9.600 -1.9636 -1.2206 -0.6389
 6815TIP3    H244641   5.085   6.757   9.723  1.0369  1.1617 -0.0746
 6816TIP3   OH244642   3.202   6.302   0.315 -0.2490  0.2822  0.0466
 6816TIP3    H144643   3.233   6.220   0.355 -2.7972 -0.3503  0.9421
 6816TIP3    H244644   3.239   6.301   0.227  1.6724 -0.6601  0.8027
 6817TIP3   OH244645   2.065   3.170   0.956 -0.7730 -0.6682  0.0857
 6817TIP3    H144646   2.094   3.261   0.957  1.9829 -1.4019 -1.6439
 6817TIP3    H244647   2.041   3.151   1.047  1.2394  1.0277  1.0574
 6818TIP3   OH244648   5.179   1.655   0.643  0.7973  0.4357  0.2099
 6818TIP3    H144649   5.226   1.739   0.642 -0.7709  1.3737 -0.9528
 6818TIP3    H244650   5.087   1.680   0.638  0.2098 -1.3598  1.1949
 6819TIP3   OH244651   4.914   1.779   8.042 -0.3643  0.5509  0.3580
 6819TIP3    H144652   4.998   1.816   8.016 -0.2462  1.4057  1.8113
 6819TIP3    H244653   4.853   1.853   8.042 -0.6690  0.3174  1.0714
 6820TIP3   OH244654   4.866   6.817   0.162  0.0933  0.4331 -0.4501
 6820TIP3    H144655   4.806   6.885   0.193 -2.8340 -1.8024 -0.8584
 6820TIP3    H244656   4.822   6.735   0.181  3.0581 -1.4015 -0.8624
 6821TIP3   OH244657   1.569   3.560   7.321 -0.5236  0.5020  0.3856
 6821TIP3    H144658   1.583   3.516   7.237  2.8666  1.2710  0.3921
 6821TIP3    H244659   1.574   3.654   7.300 -3.0187  0.8449  1.0368
 6822TIP3   OH244660   5.728   1.902   9.463 -0.4625  0.3180 -0.5050
 6822TIP3    H144661   5.765   1.818   9.436  0.0409  0.4500 -0.2490
 6822TIP3    H244662   5.783   1.968   9.421  0.0554  0.5216  0.4532
 6823TIP3   OH244663   3.164   4.712   7.769  0.2054 -0.2923 -0.2699
 6823TIP3    H144664   3.131   4.751   7.688  0.1474 -0.5149 -0.3542
 6823TIP3    H244665   3.118   4.760   7.838  1.3519  0.9273 -0.3027
 6824TIP3   OH244666   5.732   4.770   7.325  0.0638  0.4645  0.4350
 6824TIP3    H144667   5.704   4.689   7.367 -1.8184  1.0164  0.3413
 6824TIP3    H244668   5.737   4.748   7.232  0.7417  0.1595  0.5383
 6825TIP3   OH244669   6.343   6.198   0.336  0.4096 -0.2215  0.4279
 6825TIP3    H144670   6.391   6.243   0.266  1.2545  0.0995  1.1836
 6825TIP3    H244671   6.370   6.243   0.416  0.9263 -1.7624  1.1632
 6826TIP3   OH244672   1.728   3.150   8.392 -0.1348 -0.1794 -0.0098
 6826TIP3    H144673   1.747   3.159   8.299  1.4356 -1.2617  0.1706
 6826TIP3    H244674   1.782   3.217   8.434  1.1099 -1.3257  0.2849
 6827TIP3   OH244675   6.184   0.625   0.260  0.1878  0.2647 -0.0892
 6827TIP3    H144676   6.153   0.713   0.280  3.1564  0.7204  3.6958
 6827TIP3    H244677   6.266   0.639   0.212 -0.7038 -0.6014 -1.9485
 6828TIP3   OH244678   6.371   7.286   0.856 -0.3500 -0.4744 -0.0879
 6828TIP3    H144679   6.325   7.369   0.852 -1.4828 -0.9656  1.5937
 6828TIP3    H244680   6.421   7.290   0.938 -1.6815 -2.0129  0.8711
 6829TIP3   OH244681   1.898   6.219   7.449  0.9655 -0.4589  0.5795
 6829TIP3    H144682   1.955   6.149   7.419  1.0525 -0.6036  1.0801
 6829TIP3    H244683   1.880   6.199   7.541 -2.0228 -1.8912 -0.1858
 6830TIP3   OH244684   3.926   3.223   7.678  0.0624  0.0232 -0.4197
 6830TIP3    H144685   3.902   3.312   7.655  0.1610  0.3588  0.7142
 6830TIP3    H244686   3.945   3.180   7.595 -0.7419  0.8349 -1.0324
 6831TIP3   OH244687   2.387   5.445   7.698 -0.1329  0.1424  0.6447
 6831TIP3    H144688   2.409   5.505   7.626  1.2016 -1.6096 -0.5126
 6831TIP3    H244689   2.432   5.481   7.774  1.3868  0.1713 -0.2299
 6832TIP3   OH244690   0.241   1.514   2.610  0.4237 -0.2179 -0.0360
 6832TIP3    H144691   0.264   1.424   2.633  0.3560 -0.1887  0.1451
 6832TIP3    H244692   0.159   1.507   2.561  1.4439 -0.4433 -1.7914
 6833TIP3   OH244693   3.273   6.116   9.458  0.0948  0.5411 -0.5238
 6833TIP3    H144694   3.219   6.057   9.406  0.2881  0.8319 -1.0629
 6833TIP3    H244695   3.248   6.203   9.430  2.6135  0.6856 -2.6951
 6834TIP3   OH244696   7.095   4.908   9.651  0.3689 -0.2656 -0.1052
 6834TIP3    H144697   7.118   4.818   9.630 -0.8415 -0.2845 -1.4558
 6834TIP3    H244698   7.119   4.917   9.744  0.1490 -2.0952  0.1775
 6835TIP3   OH244699   4.763   0.442   0.940  0.1215 -0.4419  0.1609
 6835TIP3    H144700   4.738   0.523   0.985 -0.7361 -1.1892  1.0923
 6835TIP3    H244701   4.831   0.468   0.878 -0.0358  0.9577  0.5503
 6836TIP3   OH244702   4.878   7.552   2.599 -0.2741  0.0730  0.9506
 6836TIP3    H144703   4.786   7.575   2.610 -0.1565  0.8529  0.3594
 6836TIP3    H244704   4.919   7.631   2.563  0.1062 -1.1088 -1.3708
 6837TIP3   OH244705   1.055   5.965   7.588 -0.3520  0.4075 -0.3477
 6837TIP3    H144706   1.103   5.917   7.656 -1.1584  1.2523  0.8586
 6837TIP3    H244707   0.963   5.943   7.604 -0.5237  0.3444 -1.4023
 6838TIP3   OH244708   5.808   6.904   7.001 -0.8356 -0.4066 -0.0078
 6838TIP3    H144709   5.838   6.814   7.015 -1.1368 -0.3451  1.1708
 6838TIP3    H244710   5.727   6.910   7.053 -0.5461  0.6748  0.3344
 6839TIP3   OH244711   1.330   1.145   8.737  0.0653  0.7396  0.1571
 6839TIP3    H144712   1.328   1.111   8.647  0.9251  1.0608  0.0151
 6839TIP3    H244713   1.400   1.097   8.780 -0.5196  0.3921  0.7506
 6840TIP3   OH244714   0.616   4.165   9.198  0.5692  0.0952 -0.1982
 6840TIP3    H144715   0.672   4.124   9.131  0.5743  1.2133 -0.9087
 6840TIP3    H244716   0.573   4.091   9.242  0.4410 -0.6647 -1.5460
 6841TIP3   OH244717   4.668   1.612   1.851 -0.3380 -0.0719  0.4291
 6841TIP3    H144718   4.675   1.592   1.757 -1.0439 -1.6723  0.6874
 6841TIP3    H244719   4.749   1.660   1.871  0.4048 -0.7825 -0.7484
 6842TIP3   OH244720   3.082   2.131   0.176 -0.1486  0.3454  0.0495
 6842TIP3    H144721   3.051   2.207   0.126 -0.6777 -0.6315 -1.1615
 6842TIP3    H244722   3.010   2.068   0.170 -0.0107 -0.0070  1.6314
 6843TIP3   OH244723   5.953   7.406   7.659 -0.1821 -0.1309 -0.4096
 6843TIP3    H144724   6.003   7.386   7.738  0.1534 -1.0840 -0.8544
 6843TIP3    H244725   5.863   7.381   7.679 -0.5956  1.8316  0.4872
 6844TIP3   OH244726   1.066   6.086   1.049  0.4921 -0.5933 -0.4628
 6844TIP3    H144727   1.137   6.129   1.002 -0.5593  1.5710 -0.1939
 6844TIP3    H244728   0.986   6.117   1.006 -0.4252  0.0834  1.6088
 6845TIP3   OH244729   4.948   4.787  10.062 -0.0163  0.2506 -0.7518
 6845TIP3    H144730   4.943   4.761   9.970  1.3329  1.4505 -1.1979
 6845TIP3    H244731   4.920   4.879  10.062  4.1191  1.7126 -0.7526
 6846TIP3   OH244732   2.478   3.099   7.503  0.2378  0.1198 -0.0986
 6846TIP3    H144733   2.439   3.180   7.535 -1.4201  0.7138 -3.1791
 6846TIP3    H244734   2.404   3.038   7.500  1.0179 -0.8591  0.1868
 6847TIP3   OH244735   0.701   3.302   7.451 -0.4952  0.2042 -0.2240
 6847TIP3    H144736   0.723   3.353   7.373  0.0902  0.6308  0.2072
 6847TIP3    H244737   0.697   3.367   7.522 -1.8867 -0.0492 -0.0429
 6848TIP3   OH244738   3.685   2.963   7.584 -0.5029  0.3663  0.2163
 6848TIP3    H144739   3.650   2.887   7.538  2.5393 -1.3735  0.5039
 6848TIP3    H244740   3.733   3.011   7.517  3.0082 -1.5845  1.0861
 6849TIP3   OH244741   3.405   0.304   3.408  0.0473 -0.3444  0.1443
 6849TIP3    H144742   3.500   0.295   3.401 -0.1552 -1.0606 -2.7031
 6849TIP3    H244743   3.372   0.215   3.415 -0.4461 -0.1336  0.5833
 6850TIP3   OH244744   0.083   3.524   0.071 -0.5893  0.2216 -0.5271
 6850TIP3    H144745   0.001   3.488   0.038 -0.0776 -1.6045  0.0812
 6850TIP3    H244746   0.140   3.527  -0.005 -0.0631 -2.0600 -0.2942
 6851TIP3   OH244747   1.830   7.154   8.702  0.5529 -0.6398  0.0777
 6851TIP3    H144748   1.885   7.107   8.638  0.7844 -2.5863  1.6248
 6851TIP3    H244749   1.860   7.122   8.787 -1.1540  0.3359  1.0874
 6852TIP3   OH244750   7.271   4.298   0.749  0.0244  0.1621  0.0720
 6852TIP3    H144751   7.300   4.381   0.712 -1.0831 -0.1809 -1.7145
 6852TIP3    H244752   7.304   4.232   0.689  0.1353 -0.6390  0.9861
 6853TIP3   OH244753   5.043   5.849   0.320  0.4023 -0.3586  0.3416
 6853TIP3    H144754   5.016   5.938   0.342  1.2110  0.1725 -0.7492
 6853TIP3    H244755   5.137   5.848   0.335  0.1306 -1.6757  2.3901
 6854TIP3   OH244756   5.646   2.201   7.018 -0.3879  0.6553 -0.2090
 6854TIP3    H144757   5.729   2.198   6.969  1.9510  2.1624  3.2735
 6854TIP3    H244758   5.617   2.291   7.010 -1.2742  0.3486 -0.6388
 6855TIP3   OH244759   6.726   1.759  10.011 -0.3070  0.4328  0.2280
 6855TIP3    H144760   6.646   1.727  10.053 -1.1190  0.2201 -1.3796
 6855TIP3    H244761   6.698   1.836   9.963  0.0401 -0.5975 -1.7362
 6856TIP3   OH244762   4.148   1.468   8.629  0.2591 -0.1180  0.5570
 6856TIP3    H144763   4.171   1.554   8.593 -0.5941 -0.1005  0.0392
 6856TIP3    H244764   4.226   1.442   8.678  0.7080  0.7383  0.3276
 6857TIP3   OH244765   7.250   2.309   8.118 -0.0087  0.5408  0.3886
 6857TIP3    H144766   7.166   2.263   8.113  0.6095 -0.5303 -0.3855
 6857TIP3    H244767   7.291   2.276   8.198  1.4154 -2.0617 -1.2862
 6858TIP3   OH244768   2.707   7.156   9.081  0.2658 -0.5266  0.3938
 6858TIP3    H144769   2.729   7.206   9.003 -0.8879 -0.5684  0.0241
 6858TIP3    H244770   2.696   7.066   9.049  1.5439 -0.8799  0.9165
 6859TIP3   OH244771   6.345   6.424   1.074 -0.2707  0.2884 -0.2398
 6859TIP3    H144772   6.373   6.505   1.031 -0.9859  1.4306  1.3609
 6859TIP3    H244773   6.349   6.443   1.167 -1.2976 -1.2546  0.1608
 6860TIP3   OH244774   5.842   6.193   7.253  0.3517 -0.0895 -0.5221
 6860TIP3    H144775   5.867   6.275   7.210  0.4406 -0.5131 -1.3093
 6860TIP3    H244776   5.855   6.126   7.185 -1.0695 -0.5791 -0.3320
 6861TIP3   OH244777   1.686   6.229   0.582 -0.6287  0.1626  0.1581
 6861TIP3    H144778   1.748   6.275   0.639  0.4878  1.1215 -1.7697
 6861TIP3    H244779   1.718   6.138   0.581  0.0756  0.4048  0.0893
 6862TIP3   OH244780   4.903   1.540   9.043 -0.2346  0.1621 -0.0044
 6862TIP3    H144781   4.815   1.514   9.015  0.4479  0.3802 -2.5838
 6862TIP3    H244782   4.907   1.513   9.135 -2.2447 -1.8007 -0.3856
 6863TIP3   OH244783   1.509   4.358   9.392  0.0164  0.5504 -0.6116
 6863TIP3    H144784   1.417   4.334   9.398 -0.1442  1.1071 -0.7700
 6863TIP3    H244785   1.542   4.310   9.316 -0.4010  1.1363 -1.1740
 6864TIP3   OH244786   7.352   0.497   1.179 -0.3063  0.1187  0.0329
 6864TIP3    H144787   7.397   0.522   1.259  0.0638 -1.0153  0.1949
 6864TIP3    H244788   7.271   0.549   1.180  0.9185  2.1636 -0.2459
 6865TIP3   OH244789   6.632   2.311   9.189  0.4247 -0.4554 -0.1935
 6865TIP3    H144790   6.721   2.285   9.212  0.7875  0.4401 -0.5418
 6865TIP3    H244791   6.642   2.398   9.151 -0.6964  0.0043  0.5303
 6866TIP3   OH244792   4.153   2.189   7.866  0.1761 -0.3628  0.7482
 6866TIP3    H144793   4.204   2.158   7.942 -0.2628 -1.2425  0.6965
 6866TIP3    H244794   4.184   2.278   7.852 -0.6819  0.3277  2.8153
 6867TIP3   OH244795   2.551   1.438   2.440 -0.3469 -0.1239  0.7979
 6867TIP3    H144796   2.558   1.467   2.349 -0.0711  1.2747  1.2372
 6867TIP3    H244797   2.461   1.405   2.448 -0.4432 -0.0477  0.0641
 6868TIP3   OH244798   3.374   3.890   6.933 -0.0470 -0.0682  0.0206
 6868TIP3    H144799   3.444   3.948   6.905  0.1971 -0.6453 -0.6140
 6868TIP3    H244800   3.401   3.803   6.901 -0.6249 -0.4463  0.5326
 6869TIP3   OH244801   4.445   7.206   8.885  0.3986  0.3226  0.3416
 6869TIP3    H144802   4.374   7.192   8.947  0.4829  1.2495  0.6645
 6869TIP3    H244803   4.403   7.200   8.799  0.0980  0.0244  0.5034
 6870TIP3   OH244804   7.381   7.302   9.451 -0.0600  0.3703  0.0420
 6870TIP3    H144805   7.420   7.236   9.507  0.0493  0.9241  0.6317
 6870TIP3    H244806   7.410   7.279   9.362 -0.4620 -0.6710  0.1655
 6871TIP3   OH244807   6.407   7.352   8.553 -0.1276 -0.1323  0.9726
 6871TIP3    H144808   6.384   7.281   8.613 -0.9114 -1.6487 -1.0147
 6871TIP3    H244809   6.335   7.354   8.490  1.2868  0.4726 -0.7000
 6872TIP3   OH244810   6.916   2.735   9.962  0.1835 -0.0467  0.0139
 6872TIP3    H144811   6.954   2.724  10.049  0.1896 -0.0066  0.0160
 6872TIP3    H244812   6.960   2.668   9.908 -1.1652 -1.3577  0.4713
 6873TIP3   OH244813   1.119   0.777   1.659  0.1647  0.3013  0.0364
 6873TIP3    H144814   1.167   0.801   1.580 -0.5567  1.6074 -0.0405
 6873TIP3    H244815   1.037   0.740   1.626  0.6411 -0.9482  0.1806
 6874TIP3   OH244816   2.572   2.549   0.643 -0.1876 -0.3653 -0.1093
 6874TIP3    H144817   2.579   2.591   0.729 -1.4655 -0.0871 -0.1259
 6874TIP3    H244818   2.539   2.461   0.662  0.9811 -0.8479 -0.2085
 6875TIP3   OH244819   7.418   1.579   7.626 -0.3927 -0.0261 -0.0847
 6875TIP3    H144820   7.369   1.660   7.645  2.6753  1.5739  1.6964
 6875TIP3    H244821   7.486   1.606   7.564  0.2521 -1.4386 -0.0311
 6876TIP3   OH244822   5.548   2.288   8.450 -0.0075 -0.6169 -0.5316
 6876TIP3    H144823   5.531   2.197   8.475 -1.1771 -0.1466  0.4914
 6876TIP3    H244824   5.461   2.326   8.439  0.4322  0.8323  0.7519
 6877TIP3   OH244825   3.256   4.905   0.025  0.4364 -0.2238 -0.3654
 6877TIP3    H144826   3.335   4.948   0.057 -0.8466  1.5816  0.6269
 6877TIP3    H244827   3.195   4.909   0.100 -1.2998  0.4067 -1.7362
 6878TIP3   OH244828   0.604   7.194   0.559 -0.2439 -0.4023 -1.0794
 6878TIP3    H144829   0.683   7.141   0.542 -0.4705 -1.3450  0.5575
 6878TIP3    H244830   0.533   7.130   0.563 -0.6938  0.1436 -0.0527
 6879TIP3   OH244831   0.988   2.203   1.054  0.2378  0.4004 -0.0707
 6879TIP3    H144832   0.919   2.148   1.016  0.5937  0.2431 -0.4920
 6879TIP3    H244833   1.058   2.143   1.077 -0.4172  0.3267  1.9379
 6880TIP3   OH244834   4.537   0.183   7.729  0.2841  0.5253  0.3889
 6880TIP3    H144835   4.451   0.188   7.770 -0.2784 -0.7795 -0.5666
 6880TIP3    H244836   4.518   0.173   7.636  1.5053  3.1133 -0.2462
 6881TIP3   OH244837   5.235   0.167   1.562  0.2163 -0.4485 -0.7996
 6881TIP3    H144838   5.257   0.259   1.576 -0.1400 -0.2687 -1.3931
 6881TIP3    H244839   5.140   0.162   1.574  0.1769 -0.6582 -1.1799
 6882TIP3   OH244840   6.836   3.268   1.796 -0.2627  0.3861 -0.5989
 6882TIP3    H144841   6.773   3.339   1.802  0.6979  1.1656  0.7901
 6882TIP3    H244842   6.873   3.276   1.708  0.8963  2.5887  0.0113
 6883TIP3   OH244843   4.415   1.472   0.124 -0.4368 -0.6314  0.1088
 6883TIP3    H144844   4.374   1.558   0.135 -0.3779 -0.7655  1.5433
 6883TIP3    H244845   4.343   1.413   0.104 -0.5494 -0.3642 -0.2929
 6884TIP3   OH244846   4.430   6.170   7.477  0.0257 -0.7322  0.1452
 6884TIP3    H144847   4.478   6.178   7.394 -0.6851  1.2984 -0.1343
 6884TIP3    H244848   4.339   6.185   7.453 -0.0727  1.0787  1.4020
 6885TIP3   OH244849   4.717   0.031   2.087 -0.2536 -0.6835 -0.2949
 6885TIP3    H144850   4.649   0.042   2.021 -0.1728 -0.3520 -0.3221
 6885TIP3    H244851   4.729  -0.064   2.093 -0.9209 -0.7599 -0.0775
 6886TIP3   OH244852   7.157   7.224   9.794 -0.5905 -0.0377  0.1009
 6886TIP3    H144853   7.089   7.271   9.746 -2.2177 -0.1684  2.1315
 6886TIP3    H244854   7.233   7.283   9.793 -1.9842  1.8856  1.0423
 6887TIP3   OH244855   6.902   1.334   9.592 -0.6754 -0.0348 -0.8400
 6887TIP3    H144856   6.994   1.316   9.612 -0.2922  2.1320 -0.3634
 6887TIP3    H244857   6.853   1.273   9.647  0.4795  0.5028  0.8733
 6888TIP3   OH244858   2.220   4.915   1.573 -0.2907  0.1761  0.6089
 6888TIP3    H144859   2.186   4.915   1.663  0.6802 -1.1097  1.0031
 6888TIP3    H244860   2.208   5.005   1.544  1.3043  1.2026  2.8046
 6889TIP3   OH244861   2.084   3.429   2.759 -0.0781  0.1627 -0.3461
 6889TIP3    H144862   2.166   3.447   2.715  0.0603 -1.5163 -0.8440
 6889TIP3    H244863   2.037   3.371   2.700 -0.9248 -0.2039  0.6477
 6890TIP3   OH244864   2.103   6.689   9.476  0.2120 -0.1576 -0.1943
 6890TIP3    H144865   2.177   6.738   9.441 -0.3926  1.1278  0.2757
 6890TIP3    H244866   2.125   6.675   9.568 -0.2726  0.5162  0.0261
 6891TIP3   OH244867   3.236   2.299   8.474  0.6261  0.5936 -0.0251
 6891TIP3    H144868   3.260   2.271   8.562 -1.6784 -1.1439  0.1315
 6891TIP3    H244869   3.226   2.394   8.481  0.7637  0.5135  1.5072
 6892TIP3   OH244870   5.905   4.665   0.789  0.0315  0.5130  0.5876
 6892TIP3    H144871   5.997   4.665   0.817  0.3667 -0.9459 -0.4056
 6892TIP3    H244872   5.882   4.572   0.780 -1.0244  0.8722 -0.7758
 6893TIP3   OH244873   5.879   5.006   9.672  0.4038 -0.3024 -0.0455
 6893TIP3    H144874   5.849   4.943   9.737 -0.0150  1.2244  1.3247
 6893TIP3    H244875   5.815   5.078   9.677  0.4206 -0.0775 -2.0949
 6894TIP3   OH244876   7.075   3.845   0.445 -0.6038  0.1625  0.2778
 6894TIP3    H144877   7.156   3.804   0.415 -1.7381 -1.0116 -1.4043
 6894TIP3    H244878   7.023   3.772   0.479 -1.7494  0.5364 -0.6099
 6895TIP3   OH244879   6.783   1.133   9.734 -0.0885 -0.1570  0.5348
 6895TIP3    H144880   6.702   1.183   9.749 -0.7424 -0.5141 -1.5912
 6895TIP3    H244881   6.760   1.043   9.756  0.0520 -0.0953  0.9447
 6896TIP3   OH244882   0.972   5.225   7.844 -0.4380  0.1910  0.2621
 6896TIP3    H144883   0.975   5.189   7.756 -0.3778  0.7264  0.0415
 6896TIP3    H244884   1.011   5.158   7.899 -0.3079 -0.0689 -0.1457
 6897TIP3   OH244885   1.768   1.967   1.890  0.0611  0.5965 -0.2948
 6897TIP3    H144886   1.704   1.907   1.852 -0.5110  1.0230 -0.0066
 6897TIP3    H244887   1.722   2.011   1.960  0.0341  2.4006 -1.3708
 6898TIP3   OH244888   5.633   6.073   0.939 -0.0313  0.1050  0.1184
 6898TIP3    H144889   5.719   6.091   0.900  0.4169 -0.6218  0.7389
 6898TIP3    H244890   5.632   6.125   1.019  0.3707 -0.8616  0.7752
 6899TIP3   OH244891   2.469   0.469   8.392  0.5578 -0.0375  0.7764
 6899TIP3    H144892   2.519   0.505   8.465  0.2520  1.1906  0.4043
 6899TIP3    H244893   2.421   0.396   8.430  1.5690 -0.3759  1.4469
 6900TIP3   OH244894   2.538   4.172   0.472 -0.3492  0.2941 -0.2535
 6900TIP3    H144895   2.487   4.199   0.396 -2.0893 -0.0183  0.7461
 6900TIP3    H244896   2.494   4.213   0.546  1.3318  0.6316  0.6004
 6901TIP3   OH244897   3.522   5.779   8.536 -0.2881 -0.0153  0.3394
 6901TIP3    H144898   3.477   5.863   8.546 -0.8817 -0.2920  0.0690
 6901TIP3    H244899   3.541   5.751   8.625  4.1192  2.5630  0.4724
 6902TIP3   OH244900   6.931   5.166   1.485 -0.3617  0.1747  0.5092
 6902TIP3    H144901   6.914   5.172   1.391  1.5500 -0.0434  0.1074
 6902TIP3    H244902   6.867   5.225   1.525 -0.7960  0.7537 -0.9844
 6903TIP3   OH244903   0.069   2.835   0.046 -0.1745 -0.3692 -0.2368
 6903TIP3    H144904  -0.006   2.778   0.029 -0.5078  0.2875 -1.0547
 6903TIP3    H244905   0.126   2.823  -0.030  0.6829 -1.0341  0.4836
 6904TIP3   OH244906   6.456   4.746   8.474 -0.4051 -0.6176  0.1433
 6904TIP3    H144907   6.500   4.831   8.477  0.6151 -1.1228 -0.1370
 6904TIP3    H244908   6.508   4.690   8.531  0.4575 -1.7142 -1.6254
 6905TIP3   OH244909   2.302   7.543   0.250 -0.1343 -0.8818  0.5396
 6905TIP3    H144910   2.226   7.505   0.207  0.2564 -0.3887 -0.6405
 6905TIP3    H244911   2.371   7.478   0.237  0.4154 -0.0338 -1.0838
 6906TIP3   OH244912   0.022   4.458   7.688  0.5679  0.2778 -0.5126
 6906TIP3    H144913   0.100   4.513   7.684  1.0154 -0.3313 -0.2106
 6906TIP3    H244914   0.009   4.427   7.598  0.9547 -0.0078 -0.4717
 6907TIP3   OH244915   3.414   6.528   9.903 -0.3031 -0.2081  0.0355
 6907TIP3    H144916   3.507   6.506   9.895  0.0853  1.3235 -0.0044
 6907TIP3    H244917   3.383   6.533   9.813  0.1227  1.3367 -0.0566
 6908TIP3   OH244918   7.192   5.518   1.228  0.4125 -0.3413  0.1551
 6908TIP3    H144919   7.288   5.519   1.223  0.4978 -3.3976 -0.4142
 6908TIP3    H244920   7.164   5.465   1.154 -1.6456 -0.6488  1.0787
 6909TIP3   OH244921   7.339   0.261   8.038  0.1152 -0.0482 -0.6948
 6909TIP3    H144922   7.418   0.211   8.015  0.7146 -2.2023  4.6821
 6909TIP3    H244923   7.364   0.352   8.027  3.3913 -0.6569  0.5603
 6910TIP3   OH244924   6.247   7.071   9.129 -0.0338 -0.4343  0.9456
 6910TIP3    H144925   6.201   7.009   9.186 -0.4732 -1.7808 -0.7516
 6910TIP3    H244926   6.176   7.115   9.081  0.2998  1.0795  1.8015
 6911TIP3   OH244927   2.186   3.349   1.160  0.3493  0.6707 -0.2342
 6911TIP3    H144928   2.246   3.277   1.142  0.0791  0.7356 -1.4445
 6911TIP3    H244929   2.242   3.426   1.171  0.4854  0.9835 -2.5827
 6912TIP3   OH244930   3.752   6.527   8.947 -0.0653  0.9404 -0.1904
 6912TIP3    H144931   3.836   6.500   8.912 -0.2665 -4.0692  2.3009
 6912TIP3    H244932   3.691   6.457   8.920 -1.9706  1.1610  3.0126
 6913TIP3   OH244933   0.329   6.234   7.444  0.0324  0.1731  0.0256
 6913TIP3    H144934   0.261   6.167   7.451  0.5432 -0.4570 -0.7362
 6913TIP3    H244935   0.286   6.307   7.398 -0.8175  0.8168  1.7610
 6914TIP3   OH244936   0.204   5.823   0.410 -0.1655 -0.5585 -0.0772
 6914TIP3    H144937   0.175   5.878   0.483  0.5223  0.1566 -0.3358
 6914TIP3    H244938   0.125   5.805   0.360 -0.3369  0.5462 -0.2220
 6915TIP3   OH244939   1.448   4.429   0.705  0.6425  0.3690 -0.0413
 6915TIP3    H144940   1.367   4.377   0.706 -0.4758  2.0468 -0.0826
 6915TIP3    H244941   1.431   4.500   0.643  1.2504  2.1040  1.6706
 6916TIP3   OH244942   6.786   6.320   2.068  0.1366  0.0879 -0.4634
 6916TIP3    H144943   6.731   6.336   2.144 -0.7532 -1.3531 -0.7777
 6916TIP3    H244944   6.849   6.254   2.097  0.6156  0.4758 -0.6081
 6917TIP3   OH244945   6.252   1.235   2.363  0.0846  0.1047 -0.0017
 6917TIP3    H144946   6.175   1.241   2.306 -0.2680 -1.0076  0.3347
 6917TIP3    H244947   6.216   1.219   2.450  0.5179  3.4528  0.9323
 6918TIP3   OH244948   6.400   4.861   7.930 -0.0786 -0.2453  0.3976
 6918TIP3    H144949   6.430   4.894   7.845 -0.4208 -1.2959 -0.1466
 6918TIP3    H244950   6.460   4.900   7.993 -0.0024  0.7955 -0.2884
 6919TIP3   OH244951   1.800   5.992   0.742  0.0575  0.0800  0.2527
 6919TIP3    H144952   1.884   5.991   0.789  0.2367  3.4851  0.2315
 6919TIP3    H244953   1.824   5.981   0.650  0.4289  0.2619  0.3234
 6920TIP3   OH244954   0.427   0.135   0.008  0.3181 -0.0501 -0.9593
 6920TIP3    H144955   0.345   0.156  -0.038 -0.6345 -1.6588 -0.0670
 6920TIP3    H244956   0.437   0.040  -0.002  2.0621  0.0963 -0.9774
 6921TIP3   OH244957   0.836   4.517   2.602 -0.1972  0.0232 -0.4373
 6921TIP3    H144958   0.767   4.453   2.619 -0.2398 -0.2036 -1.4222
 6921TIP3    H244959   0.862   4.501   2.511  0.9328  0.3192 -0.1818
 6922TIP3   OH244960   0.485   2.057   0.209 -0.0441  0.1902 -0.1284
 6922TIP3    H144961   0.389   2.058   0.200  0.0253 -1.3237 -1.5190
 6922TIP3    H244962   0.501   1.998   0.283 -0.1751 -0.0410 -0.2818
 6923TIP3   OH244963   3.964   5.837   8.441  0.0644 -0.2534 -0.0478
 6923TIP3    H144964   3.940   5.797   8.524  1.5381  0.8591  0.9636
 6923TIP3    H244965   4.019   5.772   8.398 -1.3405 -1.1512 -0.5386
 6924TIP3   OH244966   4.957   2.436   7.497  0.0134  0.0254  0.3250
 6924TIP3    H144967   4.946   2.402   7.408  1.8499  0.1080  0.0251
 6924TIP3    H244968   4.886   2.500   7.507  1.3021  1.9898 -2.0978
 6925TIP3   OH244969   0.378   3.395   2.696 -0.2963  0.0601  0.1058
 6925TIP3    H144970   0.455   3.339   2.704 -0.8733 -0.6205  1.1047
 6925TIP3    H244971   0.381   3.451   2.773 -0.8638 -0.0442  0.2072
 6926TIP3   OH244972   7.069   4.312   1.586  0.0031 -0.0540 -0.6778
 6926TIP3    H144973   7.002   4.252   1.551  1.0062 -1.2416 -0.6445
 6926TIP3    H244974   7.026   4.397   1.589 -1.3465 -0.6892 -1.1310
 6927TIP3   OH244975   2.254   6.346   7.543  0.1822  0.0324  0.5339
 6927TIP3    H144976   2.302   6.427   7.559 -0.0095  0.4173 -0.7426
 6927TIP3    H244977   2.167   6.375   7.517  0.3934 -0.5366 -0.8718
 6928TIP3   OH244978   3.595   0.705   8.766 -0.2338 -0.5262 -0.5120
 6928TIP3    H144979   3.689   0.723   8.776 -0.4216  0.0459  0.3424
 6928TIP3    H244980   3.589   0.656   8.684  0.9554 -1.6639  0.0402
 6929TIP3   OH244981   2.947   2.421   1.708 -0.1393 -0.2426 -0.4826
 6929TIP3    H144982   3.013   2.473   1.662  0.6550 -2.0416 -1.5002
 6929TIP3    H244983   2.865   2.442   1.663  0.0384  0.6077 -0.4338
 6930TIP3   OH244984   5.757   4.992   7.940 -0.2723  0.5563 -0.1445
 6930TIP3    H144985   5.748   4.936   7.862 -1.5311 -0.6103  0.7782
 6930TIP3    H244986   5.668   5.025   7.956 -0.1002  0.5340  0.9443
 6931TIP3   OH244987   5.667   1.524   9.920  0.0128  0.2810 -0.2158
 6931TIP3    H144988   5.641   1.517   9.828 -2.1377  0.7872  0.3096
 6931TIP3    H244989   5.645   1.613   9.945 -1.9034 -0.5838  1.4549
 6932TIP3   OH244990   3.244   1.974   9.925  0.0997  0.4852  0.3759
 6932TIP3    H144991   3.204   2.060   9.925  0.6253  0.8359  3.4397
 6932TIP3    H244992   3.335   1.989   9.899 -0.1793  0.6045 -0.5513
 6933TIP3   OH244993   5.346   6.649   9.776  0.7907  0.1283 -0.4276
 6933TIP3    H144994   5.367   6.726   9.828  1.3640 -1.4413  1.7747
 6933TIP3    H244995   5.330   6.683   9.688 -1.2775  3.0415  0.9360
 6934TIP3   OH244996   4.139   2.536   0.665 -0.1634  0.0954 -0.3780
 6934TIP3    H144997   4.190   2.617   0.656 -0.9751  0.4555 -2.3256
 6934TIP3    H244998   4.187   2.472   0.613 -1.7976  0.5412 -2.5743
 6935TIP3   OH244999   2.826   3.247   8.991  0.2604 -0.1405 -0.0956
 6935TIP3    H145000   2.843   3.224   8.900  0.1908  0.4293 -0.2557
 6935TIP3    H245001   2.784   3.169   9.028 -2.3148  0.5714 -1.2924
 6936TIP3   OH245002   3.333   6.406   7.059 -0.2462 -0.0910  0.0343
 6936TIP3    H145003   3.250   6.387   7.102  0.3195  2.0185  2.2926
 6936TIP3    H245004   3.398   6.404   7.130  1.1747  1.1033 -1.1651
 6937TIP3   OH245005   3.686   5.957   0.533 -0.2358 -0.0582 -0.2575
 6937TIP3    H145006   3.684   5.904   0.613  1.1431  0.7924  0.3863
 6937TIP3    H245007   3.716   5.897   0.465 -0.3487 -0.5208  0.0962
 6938TIP3   OH245008   3.473   6.043   7.333  0.0034  0.1772 -0.1528
 6938TIP3    H145009   3.383   6.054   7.365  0.1073 -1.3868  0.7825
 6938TIP3    H245010   3.524   6.021   7.411  1.1706  0.8488 -0.7023
 6939TIP3   OH245011   1.552   3.585   7.941 -0.0455  0.0719  0.7446
 6939TIP3    H145012   1.569   3.525   7.868 -0.0740  1.1036 -0.1347
 6939TIP3    H245013   1.552   3.672   7.901 -3.0161  0.4798  1.4330
 6940TIP3   OH245014   2.150   2.515   7.762  0.5280 -0.0701 -0.6580
 6940TIP3    H145015   2.107   2.601   7.765  1.8798  0.6747 -1.5863
 6940TIP3    H245016   2.116   2.469   7.838  0.2532  1.5287  0.2401
 6941TIP3   OH245017   6.816   5.743   6.824 -0.1494 -0.2171  0.2848
 6941TIP3    H145018   6.823   5.838   6.834  0.7185 -0.3274  0.9069
 6941TIP3    H245019   6.723   5.727   6.810 -0.1070  0.8860 -1.6366
 6942TIP3   OH245020   2.103   7.117   7.305 -0.4244 -0.5294  0.2348
 6942TIP3    H145021   2.020   7.135   7.262 -0.3963  1.1051  0.8018
 6942TIP3    H245022   2.082   7.116   7.399 -0.0192 -1.3885  0.3283
 6943TIP3   OH245023  -0.045   5.309   1.028 -0.6748 -0.0814 -0.2595
 6943TIP3    H145024  -0.009   5.243   0.969  1.0137 -0.6528  1.3135
 6943TIP3    H245025   0.026   5.327   1.090 -1.6874  1.9651  0.3851
 6944TIP3   OH245026   6.497   5.645   0.227 -0.0605  0.0480 -0.2674
 6944TIP3    H145027   6.413   5.661   0.184 -0.0336  1.9012  0.2736
 6944TIP3    H245028   6.503   5.713   0.295  2.9181  1.6186 -1.8529
 6945TIP3   OH245029   0.793   3.867   1.493 -0.3484 -0.3648 -0.2891
 6945TIP3    H145030   0.827   3.802   1.432  0.1569  0.5854 -1.0545
 6945TIP3    H245031   0.717   3.825   1.533 -0.0507 -1.4093 -0.7797
 6946TIP3   OH245032   6.097   6.093   2.501  0.3568  0.1667  0.3243
 6946TIP3    H145033   6.180   6.058   2.468 -0.2394  0.7604 -1.9704
 6946TIP3    H245034   6.030   6.037   2.463 -0.3822  0.9221  0.4777
 6947TIP3   OH245035   3.313   2.939   7.365  0.1265 -0.7424  0.0679
 6947TIP3    H145036   3.227   2.928   7.324 -0.1785  1.1701  0.1270
 6947TIP3    H245037   3.371   2.964   7.293  0.1458  0.1126  0.3722
 6948TIP3   OH245038   3.310   0.301   0.029 -0.4717 -0.0248 -0.0021
 6948TIP3    H145039   3.308   0.394   0.009 -0.6760 -0.1703 -0.6908
 6948TIP3    H245040   3.401   0.282   0.050 -0.5246  0.4316  0.6680
 6949TIP3   OH245041   0.638   3.899  -0.015 -0.1015  0.1299 -0.7110
 6949TIP3    H145042   0.709   3.932   0.041  1.4700 -2.2935 -1.0926
 6949TIP3    H245043   0.593   3.835   0.040  0.6805 -1.3609 -1.7230
 6950TIP3   OH245044   0.538   4.999   8.361 -0.3266 -0.3604  0.1878
 6950TIP3    H145045   0.457   4.948   8.366 -0.1112 -0.7498 -0.2574
 6950TIP3    H245046   0.509   5.089   8.349 -0.6884 -0.6512 -1.3041
 6951TIP3   OH245047   2.027   1.242   7.946 -0.1313  0.0798  0.5373
 6951TIP3    H145048   2.112   1.257   7.906  0.1503 -0.5553  0.8686
 6951TIP3    H245049   2.032   1.152   7.980 -2.0061 -1.1678 -2.1435
 6952TIP3   OH245050   5.834   5.602   0.204 -0.0799  0.2669  0.9709
 6952TIP3    H145051   5.852   5.580   0.296  0.3017 -0.2986  0.7647
 6952TIP3    H245052   5.817   5.518   0.162  1.6838  0.3046  0.1032
 6953TIP3   OH245053   3.337   0.055   7.071 -0.5719 -0.0694  1.0405
 6953TIP3    H145054   3.409   0.085   7.126 -1.2587  1.6839  1.0494
 6953TIP3    H245055   3.284  -0.000   7.129  1.8098 -3.1990  0.4632
 6954TIP3   OH245056   3.615   6.430   7.212  0.6556  0.1251  0.0240
 6954TIP3    H145057   3.711   6.431   7.212  0.7028 -1.3157 -0.7197
 6954TIP3    H245058   3.590   6.516   7.179  1.6504  0.9177  1.2269
 6955TIP3   OH245059   0.513   5.623   8.242 -0.4717 -0.0821  0.4668
 6955TIP3    H145060   0.546   5.686   8.306  0.7613 -0.7267  0.4956
 6955TIP3    H245061   0.568   5.545   8.255 -3.3832 -2.0615  1.9973
 6956TIP3   OH245062   6.888   4.046   9.725  0.0927 -0.2239 -0.2300
 6956TIP3    H145063   6.845   3.993   9.792  1.0672 -1.3899 -0.5097
 6956TIP3    H245064   6.913   4.127   9.771 -0.6020 -0.3680  0.4156
 6957TIP3   OH245065   1.393   2.106   6.817 -0.4144  0.1181  0.1597
 6957TIP3    H145066   1.340   2.171   6.864 -0.5546  0.0142  0.1463
 6957TIP3    H245067   1.483   2.123   6.846 -0.0757  2.0455 -1.8530
 6958TIP3   OH245068   2.091   6.371   0.506 -0.1970  0.4850  0.2567
 6958TIP3    H145069   2.160   6.418   0.552  0.0255  0.1444  0.2705
 6958TIP3    H245070   2.022   6.359   0.572 -0.0272  0.3161  0.4064
 6959TIP3   OH245071   3.004   3.519   7.298 -0.2291  0.4642  0.7955
 6959TIP3    H145072   2.947   3.477   7.363 -2.1354  0.6982 -0.6296
 6959TIP3    H245073   2.943   3.564   7.239  1.5226  1.5947 -0.2367
 6960TIP3   OH245074   7.032   6.070   0.987  0.3158  0.0448 -0.5674
 6960TIP3    H145075   7.050   6.145   0.931  0.8876  0.5074  0.2107
 6960TIP3    H245076   7.093   6.003   0.958 -1.3694 -0.7899 -2.4448
 6961TIP3   OH245077   0.976   1.865   8.871  0.2461  0.1124 -0.0363
 6961TIP3    H145078   0.988   1.812   8.793 -0.6946  0.3870 -0.3839
 6961TIP3    H245079   0.910   1.930   8.846  0.7309  0.8939  0.6488
 6962TIP3   OH245080   3.481   1.522   8.617 -0.4011  0.6240 -0.1544
 6962TIP3    H145081   3.411   1.494   8.558  0.0559  1.3649 -1.0656
 6962TIP3    H245082   3.513   1.441   8.656 -0.9292  0.1513 -0.6842
 6963TIP3   OH245083   1.263   3.683   0.867 -0.1451 -0.0119  0.9378
 6963TIP3    H145084   1.333   3.637   0.913 -2.6645 -3.0066  2.1569
 6963TIP3    H245085   1.281   3.668   0.774  0.6944 -0.9860  1.2401
 6964TIP3   OH245086   1.435   5.297   8.993  0.5408 -0.1950  0.4036
 6964TIP3    H145087   1.380   5.245   8.934 -0.6568  0.0918  1.2521
 6964TIP3    H245088   1.403   5.387   8.982  1.3063  0.0808  0.3923
 6965TIP3   OH245089   1.492   5.842   1.703  0.2634 -0.5074  0.6142
 6965TIP3    H145090   1.432   5.831   1.777  0.6640  2.5180  1.5499
 6965TIP3    H245091   1.435   5.865   1.630  0.0909 -0.1902  0.8446
 6966TIP3   OH245092   5.438   0.823   0.023  0.0894  0.8320  0.1205
 6966TIP3    H145093   5.346   0.795   0.028  0.8741 -1.9710  0.4306
 6966TIP3    H245094   5.460   0.814  -0.070  0.5358 -0.3876  0.3235
 6967TIP3   OH245095   1.407   4.355   7.699  0.1250 -0.0494  0.1784
 6967TIP3    H145096   1.378   4.366   7.790  1.6250 -0.8744  0.7944
 6967TIP3    H245097   1.371   4.270   7.673  0.0120  0.0143  0.1245
 6968TIP3   OH245098   7.099   3.942   1.685  0.3319 -0.4569  0.4280
 6968TIP3    H145099   7.009   3.970   1.671  0.4407 -0.6294 -0.7030
 6968TIP3    H245100   7.130   3.915   1.598  1.9959  1.1505  0.4751
 6969TIP3   OH245101   6.239   1.825   2.635 -0.3070 -0.4921  0.3650
 6969TIP3    H145102   6.187   1.868   2.703 -1.5427  0.2846 -1.0029
 6969TIP3    H245103   6.177   1.768   2.590 -0.0149  0.4236 -1.2811
 6970TIP3   OH245104   5.250   7.649   1.120 -0.3526 -0.2057 -0.0070
 6970TIP3    H145105   5.225   7.674   1.031  0.4017  3.1170  0.5729
 6970TIP3    H245106   5.342   7.623   1.113 -0.4095 -0.3361 -0.2619
 6971TIP3   OH245107   1.921   3.292   1.277  0.2737  0.8118  0.0668
 6971TIP3    H145108   2.014   3.303   1.255  0.6659 -0.8652  0.6999
 6971TIP3    H245109   1.922   3.244   1.360 -1.1093 -1.6995 -1.2382
 6972TIP3   OH245110   5.288   2.288   7.530 -0.1348  0.3151  0.3601
 6972TIP3    H145111   5.207   2.282   7.479 -0.0440  1.9335 -0.0502
 6972TIP3    H245112   5.302   2.200   7.563 -0.8577 -0.5360 -1.4286
 6973TIP3   OH245113   0.658   0.867   0.727 -0.4189  0.6316 -0.2068
 6973TIP3    H145114   0.669   0.785   0.775 -0.8440 -0.7675 -2.3236
 6973TIP3    H245115   0.565   0.866   0.701 -0.3613  1.6430 -0.4738
 6974TIP3   OH245116   1.446   0.507   2.610 -0.3048  0.5194  0.5991
 6974TIP3    H145117   1.383   0.453   2.659  2.5454 -2.7406  1.0621
 6974TIP3    H245118   1.474   0.452   2.537  2.2073  1.6327  0.6002
 6975TIP3   OH245119   0.857   1.211   2.484 -0.0800  0.1814 -0.3804
 6975TIP3    H145120   0.866   1.244   2.573 -1.1090  0.1104 -0.2433
 6975TIP3    H245121   0.767   1.232   2.459 -0.1421 -0.7764 -1.0098
 6976TIP3   OH245122   6.557   5.816   0.780 -0.5171  0.3654 -0.2870
 6976TIP3    H145123   6.477   5.836   0.828  1.2196 -0.7805  3.4641
 6976TIP3    H245124   6.600   5.748   0.832  1.7488 -0.8849 -3.4575
 6977TIP3   OH245125   5.978   1.228   0.667 -0.2539  0.0429 -0.0685
 6977TIP3    H145126   6.028   1.257   0.743  1.7287  0.3485 -1.4236
 6977TIP3    H245127   5.888   1.256   0.685 -0.1906 -1.2304  2.8237
 6978TIP3   OH245128   5.617   6.985   2.404 -0.3236  0.3580  0.3775
 6978TIP3    H145129   5.569   6.905   2.384 -0.5320  1.0452 -2.1927
 6978TIP3    H245130   5.582   7.015   2.487  0.0051 -2.3712  1.5858
 6979TIP3   OH245131   2.397   3.184   1.746  0.0948  0.0226 -0.0403
 6979TIP3    H145132   2.388   3.261   1.690 -0.5373 -0.0851 -0.1010
 6979TIP3    H245133   2.351   3.208   1.827 -1.7112 -0.9223 -0.7326
 6980TIP3   OH245134   6.696   0.025   8.991  0.9908  0.5265 -0.6521
 6980TIP3    H145135   6.682  -0.034   8.917 -0.5848 -0.4164  0.3374
 6980TIP3    H245136   6.760   0.089   8.959  1.8624 -1.0154 -2.1479
 6981TIP3   OH245137   2.442   0.277   0.823  0.2449 -0.4018  0.1818
 6981TIP3    H145138   2.353   0.293   0.855 -0.2393 -0.3108 -1.1663
 6981TIP3    H245139   2.478   0.364   0.808 -0.8024 -0.3921 -2.8519
 6982TIP3   OH245140   2.350   2.306   6.866 -0.0651  0.3661 -0.3310
 6982TIP3    H145141   2.349   2.224   6.916  1.1060  0.2204 -0.5026
 6982TIP3    H245142   2.260   2.318   6.837 -0.9885  0.8767  2.4348
 6983TIP3   OH245143   3.435   1.226   2.661  0.7908  0.0942 -0.0714
 6983TIP3    H145144   3.363   1.243   2.721  0.3539  0.4575 -0.6867
 6983TIP3    H245145   3.512   1.262   2.705  0.7345 -0.9209  0.9086
 6984TIP3   OH245146   1.693   3.608   9.151 -0.0576 -0.6363 -0.2150
 6984TIP3    H145147   1.767   3.663   9.128 -0.3842  0.2433  0.7553
 6984TIP3    H245148   1.673   3.559   9.071  0.6030  0.2283 -0.9229
 6985TIP3   OH245149   6.378   6.208   7.579  0.3548  0.1990 -0.7019
 6985TIP3    H145150   6.288   6.198   7.548  0.2297  0.8175 -0.5621
 6985TIP3    H245151   6.404   6.295   7.549  0.5129  0.4760  0.2113
 6986TIP3   OH245152   4.980   3.829   0.138 -0.2404 -0.3222 -0.0287
 6986TIP3    H145153   4.899   3.867   0.104 -0.3724  0.1084  0.7414
 6986TIP3    H245154   5.050   3.885   0.104 -0.1622 -1.2861 -1.5345
 6987TIP3   OH245155   1.899   5.982   7.927  0.1633 -0.3584  0.0826
 6987TIP3    H145156   1.810   5.972   7.894  0.3340 -1.1854 -0.1232
 6987TIP3    H245157   1.929   5.893   7.944  1.3406 -0.1607 -0.8625
 6988TIP3   OH245158   7.379   6.859   7.632 -0.3073  0.2747  0.2490
 6988TIP3    H145159   7.423   6.937   7.667  0.6335  0.1043 -0.5153
 6988TIP3    H245160   7.314   6.837   7.699  2.5626 -1.0842  2.8790
 6989TIP3   OH245161   0.843   4.437   7.540  0.6781 -0.1103 -0.8921
 6989TIP3    H145162   0.807   4.487   7.466  0.8265  0.0344 -0.8679
 6989TIP3    H245163   0.938   4.445   7.530  0.8315  3.4483  1.6149
 6990TIP3   OH245164   2.216   5.567   8.077  0.2184 -0.2038  0.4905
 6990TIP3    H145165   2.224   5.548   8.171  2.5597 -1.8827  0.0720
 6990TIP3    H245166   2.280   5.508   8.036 -0.0673  1.1382 -2.0885
 6991TIP3   OH245167   0.607   0.793   8.502  0.2780  0.2635 -0.7494
 6991TIP3    H145168   0.669   0.792   8.575  1.1178 -0.0825 -1.4535
 6991TIP3    H245169   0.521   0.797   8.544  0.7266 -0.4479  0.2666
 6992TIP3   OH245170   2.620   0.104   0.718  0.2199  0.3836 -0.6813
 6992TIP3    H145171   2.568   0.036   0.676 -0.7330  1.9230 -2.1318
 6992TIP3    H245172   2.555   0.169   0.745  1.2275  1.4610 -0.7929
 6993TIP3   OH245173   2.522   7.354   0.850 -0.6122  0.4064 -0.6075
 6993TIP3    H145174   2.559   7.269   0.875  0.4571  1.2592  0.8859
 6993TIP3    H245175   2.435   7.334   0.817 -0.3748 -1.2691 -0.2802
 6994TIP3   OH245176   2.852   0.993   1.417 -0.2514 -0.3505  0.1451
 6994TIP3    H145177   2.914   0.970   1.486  1.3370  2.2701 -0.2671
 6994TIP3    H245178   2.885   0.949   1.339  0.7867  0.5192  0.0698
 6995TIP3   OH245179   5.698   2.016   0.989  0.0898  0.7404 -0.2615
 6995TIP3    H145180   5.661   2.095   1.031  0.0135  0.5837 -0.0309
 6995TIP3    H245181   5.628   1.951   0.995  0.1642  0.6447 -0.4250
 6996TIP3   OH245182   3.844   0.475   7.878 -0.0170  0.4761  0.2907
 6996TIP3    H145183   3.775   0.532   7.845  0.6845  1.5683  0.6810
 6996TIP3    H245184   3.897   0.454   7.800  0.5878  1.5837  0.3909
 6997TIP3   OH245185   1.492  -0.021   2.739 -0.0010  0.2834  0.4297
 6997TIP3    H145186   1.454   0.006   2.823  0.2947 -0.2957  0.7538
 6997TIP3    H245187   1.558  -0.087   2.762 -0.4049 -0.3987 -0.3185
 6998TIP3   OH245188   4.258   7.464   7.696 -0.0159 -0.0973 -0.2954
 6998TIP3    H145189   4.256   7.553   7.660 -0.1619  0.4275  0.9502
 6998TIP3    H245190   4.172   7.428   7.674 -0.7631  0.8240  0.9312
 6999TIP3   OH245191   4.240   1.659   8.398  0.5577 -0.0864  0.4178
 6999TIP3    H145192   4.172   1.721   8.424  0.8250 -0.5513  2.4334
 6999TIP3    H245193   4.226   1.645   8.305 -0.4574  1.8202  0.2289
 7000TIP3   OH245194   3.720   7.308   0.180  0.0342  0.2655  0.3743
 7000TIP3    H145195   3.785   7.303   0.110 -0.5835  1.4211 -0.3131
 7000TIP3    H245196   3.642   7.267   0.144  0.0606 -0.1904  0.8252
 7001TIP3   OH245197   5.320   3.758   7.984  0.2477 -0.1152  0.1432
 7001TIP3    H145198   5.331   3.707   8.064  2.6565  0.4261  0.2568
 7001TIP3    H245199   5.321   3.694   7.913 -0.6898 -0.4972  0.4637
 7002TIP3   OH245200   1.617   0.948   6.694  0.6204  0.2993 -0.3819
 7002TIP3    H145201   1.602   1.003   6.618  0.6147 -0.1987 -0.7502
 7002TIP3    H245202   1.655   1.006   6.760  1.1683  0.6119 -0.9672
 7003TIP3   OH245203   6.828   7.601   7.301 -0.5043 -0.1022  0.2571
 7003TIP3    H145204   6.862   7.689   7.285 -0.7495 -0.2069 -0.9139
 7003TIP3    H245205   6.853   7.551   7.224  0.8914 -1.4606  1.5438
 7004TIP3   OH245206   6.964   1.291   0.183 -0.1879 -0.1943  0.4426
 7004TIP3    H145207   6.914   1.209   0.182  0.7048 -0.7610  1.2536
 7004TIP3    H245208   6.978   1.311   0.090 -0.5743 -0.8552  0.2349
 7005TIP3   OH245209   1.452   4.652   7.323  0.0141 -0.5331 -0.2837
 7005TIP3    H145210   1.522   4.647   7.258  2.3924  0.2626  2.0175
 7005TIP3    H245211   1.494   4.626   7.405 -2.6203 -0.7312  1.1076
 7006TIP3   OH245212   4.315   6.895   8.835 -0.1728  0.2035  0.0131
 7006TIP3    H145213   4.307   6.988   8.858  0.6768  0.5623 -1.0289
 7006TIP3    H245214   4.225   6.861   8.841 -0.2887  0.7082  1.8435
 7007TIP3   OH245215   0.830   5.259   9.825 -0.1260 -0.2031  0.4886
 7007TIP3    H145216   0.876   5.298   9.751 -0.0335  0.6289  0.9797
 7007TIP3    H245217   0.739   5.287   9.814 -0.0986 -0.0189  0.7321
 7008TIP3   OH245218   1.827   3.231   8.108  0.1276  0.0341 -0.3640
 7008TIP3    H145219   1.848   3.226   8.014 -0.0996 -1.3458 -0.3742
 7008TIP3    H245220   1.742   3.275   8.111 -0.5890 -1.2247 -0.9611
 7009TIP3   OH245221   3.806   5.210   8.800  0.6121 -0.4192  0.1614
 7009TIP3    H145222   3.901   5.201   8.791  0.6636 -1.8046  1.6477
 7009TIP3    H245223   3.770   5.160   8.727  1.0164 -0.6468  0.1147
 7010TIP3   OH245224   4.912   2.326   7.271  0.3534  0.2208 -0.1977
 7010TIP3    H145225   5.001   2.300   7.246  0.8048  0.4098  1.1406
 7010TIP3    H245226   4.872   2.244   7.302 -0.3222 -0.0857 -1.7537
 7011TIP3   OH245227   3.665   1.123   1.197 -0.9262  0.2173  0.5432
 7011TIP3    H145228   3.641   1.119   1.105 -1.2908  0.5521  0.6264
 7011TIP3    H245229   3.657   1.215   1.221 -3.1836 -0.1650  1.5324
 7012TIP3   OH245230   0.494   6.502   7.561  0.2220 -0.2002  0.3789
 7012TIP3    H145231   0.563   6.535   7.503 -1.0835  0.0259 -1.1306
 7012TIP3    H245232   0.473   6.575   7.619  2.1179 -0.6914  1.7634
 7013TIP3   OH245233   2.713   3.558   1.629  0.1333  0.0162 -0.2263
 7013TIP3    H145234   2.715   3.653   1.624 -0.2637  0.1867  1.9927
 7013TIP3    H245235   2.638   3.538   1.685 -0.1585 -1.6447 -1.1440
 7014TIP3   OH245236   2.689   2.604   0.138  0.3513  0.4444  0.1882
 7014TIP3    H145237   2.642   2.525   0.162  1.5980  0.2002  1.9632
 7014TIP3    H245238   2.770   2.573   0.099  1.0145  0.8204  1.2366
 7015TIP3   OH245239   6.617   5.483   7.988 -0.3830  0.5576 -0.2252
 7015TIP3    H145240   6.698   5.431   7.986 -0.4705  0.4144 -0.0203
 7015TIP3    H245241   6.627   5.538   8.066 -1.9729 -1.8683  1.8702
 7016TIP3   OH245242   3.639   4.941   8.284  0.0859  0.7542  0.6065
 7016TIP3    H145243   3.726   4.966   8.315 -0.0442  0.7577  0.9755
 7016TIP3    H245244   3.640   4.960   8.190  0.5617  0.5314  0.5626
 7017TIP3   OH245245   2.056   6.193   9.416 -0.3274  0.0971  0.0275
 7017TIP3    H145246   2.040   6.276   9.462  0.0352 -1.1282  2.5948
 7017TIP3    H245247   1.979   6.140   9.438 -1.3726  0.2086 -2.9592
 7018TIP3   OH245248   1.306   2.481   2.483 -0.0185  0.3616  0.2981
 7018TIP3    H145249   1.380   2.498   2.425 -1.7715  0.5415 -2.0249
 7018TIP3    H245250   1.262   2.405   2.445 -3.2539  2.5955 -0.8601
 7019TIP3   OH245251   3.597   1.383   1.277 -0.1510  0.0442  0.1091
 7019TIP3    H145252   3.561   1.440   1.345  1.8216  0.7910  0.5898
 7019TIP3    H245253   3.632   1.443   1.211  0.3972 -0.6294 -0.2219
 7020TIP3   OH245254   6.687   5.296   7.328  0.0493  0.0411 -0.3506
 7020TIP3    H145255   6.675   5.208   7.364  3.0274 -0.2115  0.2228
 7020TIP3    H245256   6.610   5.309   7.272 -0.2385 -3.1135 -0.8718
 7021TIP3   OH245257   0.867   6.131   7.203 -0.5532  0.7907 -0.7409
 7021TIP3    H145258   0.913   6.051   7.177  0.1296  1.0989 -0.5071
 7021TIP3    H245259   0.891   6.143   7.295  0.8862  2.2672 -1.2541
 7022TIP3   OH245260   0.223   3.943   2.310  0.7762  0.0111  0.2343
 7022TIP3    H145261   0.141   3.960   2.265  0.1466  0.9901  1.6996
 7022TIP3    H245262   0.199   3.889   2.386  1.5331  0.0144  0.4876
 7023TIP3   OH245263   5.389   1.821   8.418  0.0374 -0.0250 -0.1540
 7023TIP3    H145264   5.446   1.893   8.390  1.1341 -1.0356 -0.5889
 7023TIP3    H245265   5.448   1.748   8.435 -1.1457 -1.3323 -1.3188
 7024TIP3   OH245266   3.031   6.546   0.855  0.0248 -0.4267 -0.0153
 7024TIP3    H145267   3.115   6.500   0.856  0.1175 -0.2954  2.3980
 7024TIP3    H245268   2.997   6.538   0.944 -1.4624  1.4882 -0.3389
 7025TIP3   OH245269   3.871   1.151   2.556 -0.1136  0.4378 -0.2659
 7025TIP3    H145270   3.875   1.056   2.542 -0.5575  0.4208 -0.2776
 7025TIP3    H245271   3.949   1.185   2.512  0.7980 -0.0598  0.9201
 7026TIP3   OH245272   0.917   5.008   2.188 -0.1147 -0.2420  0.3566
 7026TIP3    H145273   0.918   4.955   2.268 -0.8842  0.0928  0.6000
 7026TIP3    H245274   0.831   5.051   2.190 -0.6936 -1.2235 -1.2807
 7027TIP3   OH245275   1.468   4.046   0.807  0.1436  0.2124 -0.3025
 7027TIP3    H145276   1.537   4.109   0.786  0.0109  0.3623 -0.2851
 7027TIP3    H245277   1.431   4.077   0.890 -0.5979  0.6810 -0.7967
 7028TIP3   OH245278   6.588   5.373   0.266  0.3363  0.4248  0.2219
 7028TIP3    H145279   6.545   5.351   0.348 -1.0671  1.8606 -0.0650
 7028TIP3    H245280   6.579   5.469   0.260  0.9493  0.4141 -1.2964
 7029TIP3   OH245281   1.050   0.251   8.826  0.7864 -0.0433 -0.1376
 7029TIP3    H145282   1.052   0.273   8.919  0.7964 -1.0805  0.1209
 7029TIP3    H245283   0.957   0.235   8.807  1.0212 -2.1133  0.2759
 7030TIP3   OH245284   2.321   7.687   0.880  0.0758  0.5269  0.3650
 7030TIP3    H145285   2.368   7.762   0.843 -1.9817  1.2359 -1.0044
 7030TIP3    H245286   2.291   7.718   0.966  0.2820  0.8325  0.3287
 7031TIP3   OH245287   1.925   1.543   9.536 -0.0358 -0.4122 -0.1376
 7031TIP3    H145288   1.949   1.635   9.536 -1.1992 -0.0892 -0.2192
 7031TIP3    H245289   1.841   1.540   9.582  0.1544 -1.4797  0.1831
 7032TIP3   OH245290   0.307   1.668   7.581 -0.1703 -0.2639  0.1229
 7032TIP3    H145291   0.390   1.666   7.534  0.2657 -2.1095  0.8711
 7032TIP3    H245292   0.328   1.629   7.666 -1.3945  1.0472  1.0619
 7033TIP3   OH245293   7.633   5.248   7.304  0.1231 -0.1110 -0.0983
 7033TIP3    H145294   7.596   5.163   7.279 -0.2839 -0.0512  0.2853
 7033TIP3    H245295   7.597   5.265   7.391  0.3436  0.3725 -0.1009
 7034TIP3   OH245296   6.362   7.076   8.634 -0.1161  0.3966 -0.3410
 7034TIP3    H145297   6.358   7.122   8.718 -0.4631  0.9935 -0.6796
 7034TIP3    H245298   6.272   7.050   8.616 -0.2331  1.2614 -1.0647
 7035TIP3   OH245299   0.147   6.379   9.562 -0.0874 -0.2501  0.3290
 7035TIP3    H145300   0.151   6.297   9.611 -0.7220 -0.0880  0.6671
 7035TIP3    H245301   0.062   6.417   9.586  0.2266  0.5357  0.2247
 7036TIP3   OH245302   3.950   2.839   7.310 -0.5044  0.2497 -0.5260
 7036TIP3    H145303   3.900   2.919   7.326 -1.7664 -0.7637  0.8812
 7036TIP3    H245304   3.892   2.784   7.258  0.0890 -0.0167 -0.9168
 7037TIP3   OH245305   5.876   3.334   7.225  0.8830  0.1604 -0.1786
 7037TIP3    H145306   5.941   3.263   7.229  1.3446  0.5863  0.0630
 7037TIP3    H245307   5.792   3.290   7.237  1.1811 -0.3232  0.2302
 7038TIP3   OH245308   3.175   6.262   8.904 -0.0248  0.2858 -0.0521
 7038TIP3    H145309   3.119   6.301   8.971 -1.0030  0.5560 -0.9940
 7038TIP3    H245310   3.230   6.334   8.874 -0.3551  0.4317 -0.3094
 7039TIP3   OH245311   0.548   6.781   7.671 -0.0604 -0.3675 -0.1188
 7039TIP3    H145312   0.545   6.789   7.766  0.4006  0.6464 -0.1775
 7039TIP3    H245313   0.636   6.808   7.647 -0.2830 -0.2736 -0.8676
 7040TIP3   OH245314   6.369   6.054   8.011  0.0617  0.5856 -0.2211
 7040TIP3    H145315   6.354   6.027   7.921  1.7390 -0.6302 -0.1590
 7040TIP3    H245316   6.332   6.143   8.015 -1.7039 -0.0208 -1.5684
 7041TIP3   OH245317   1.610   1.561   1.276 -0.1806  0.1374  0.2088
 7041TIP3    H145318   1.520   1.576   1.246  0.4957  1.5657 -1.3004
 7041TIP3    H245319   1.612   1.596   1.365 -1.1397  0.0597  0.2704
 7042TIP3   OH245320   4.428   2.547   8.750  0.5224  0.0982 -0.3078
 7042TIP3    H145321   4.494   2.482   8.724 -0.1245 -0.6128 -0.2024
 7042TIP3    H245322   4.344   2.502   8.738  0.1354  0.0565  2.1273
 7043TIP3   OH245323   6.105   1.057   8.866  0.4388  0.2122 -0.4088
 7043TIP3    H145324   6.031   1.116   8.850 -0.5710 -1.0780 -0.7425
 7043TIP3    H245325   6.113   1.006   8.785  0.5580 -0.8428  0.2469
 7044TIP3   OH245326   4.413   7.474   9.912 -0.3068  0.4373  0.2655
 7044TIP3    H145327   4.476   7.515   9.971 -1.1595  0.9035  0.8696
 7044TIP3    H245328   4.459   7.397   9.877  0.7336  0.9976  0.3665
 7045TIP3   OH245329   4.606   6.623   6.763  0.0871  0.1944 -0.1275
 7045TIP3    H145330   4.666   6.679   6.812 -0.7153  0.4780  0.5583
 7045TIP3    H245331   4.579   6.675   6.688 -3.3152  2.2203  2.2310
 7046TIP3   OH245332   7.476   4.554   6.858 -0.2867  0.6633  0.3900
 7046TIP3    H145333   7.493   4.465   6.826  0.0913  1.4631 -1.8037
 7046TIP3    H245334   7.562   4.595   6.861 -0.6197  1.4406 -0.2549
 7047TIP3   OH245335   0.389   7.110   6.658 -0.5879  0.1979 -0.2924
 7047TIP3    H145336   0.302   7.076   6.677 -1.3006  0.5188 -2.7033
 7047TIP3    H245337   0.426   7.048   6.595  1.5223 -0.6531  1.5914
 7048TIP3   OH245338   3.681   7.076   0.915  0.5470  0.1660  0.1642
 7048TIP3    H145339   3.671   6.994   0.965  0.6059  0.3368  0.4619
 7048TIP3    H245340   3.667   7.145   0.980  0.7593  0.3940 -0.0295
 7049TIP3   OH245341   5.174   7.417   7.743 -0.6073 -0.2251  0.3738
 7049TIP3    H145342   5.219   7.394   7.662 -0.2562  0.0094  0.4999
 7049TIP3    H245343   5.240   7.465   7.794 -1.3963  1.3479 -0.0215
 7050TIP3   OH245344   0.449   6.983   8.530  0.0019 -0.1838 -0.4988
 7050TIP3    H145345   0.368   7.014   8.489 -0.3301  0.9635  0.9385
 7050TIP3    H245346   0.507   7.059   8.531  1.4424 -1.1861 -2.1961
 7051TIP3   OH245347   2.503   6.606   2.313  0.1458 -0.4636  0.3863
 7051TIP3    H145348   2.470   6.668   2.378 -2.4061  1.3213 -2.3747
 7051TIP3    H245349   2.531   6.660   2.240  2.2654 -2.4177 -0.3766
 7052TIP3   OH245350   0.213   2.845   0.469 -0.0467 -0.7685  0.1839
 7052TIP3    H145351   0.195   2.889   0.552 -0.4283  1.2679 -0.8992
 7052TIP3    H245352   0.145   2.876   0.410  0.1835 -2.2015 -0.9002
 7053TIP3   OH245353   4.848   5.013   7.860  0.8539  0.0323  0.0659
 7053TIP3    H145354   4.904   4.943   7.827  0.7254  0.3118 -0.7939
 7053TIP3    H245355   4.825   5.064   7.782  0.9475  1.0378  0.6721
 7054TIP3   OH245356   6.619   2.647   9.966 -0.3291  0.3934  0.1200
 7054TIP3    H145357   6.705   2.688   9.957  0.7627 -1.7948  0.0975
 7054TIP3    H245358   6.635   2.568  10.017 -1.7639 -1.6619 -2.3854
 7055TIP3   OH245359   6.711   3.997   9.311  0.2231  0.0997  0.2473
 7055TIP3    H145360   6.742   3.907   9.308 -0.0525 -0.0250  0.8534
 7055TIP3    H245361   6.711   4.026   9.220 -2.2354 -1.4084 -0.3453
 7056TIP3   OH245362   4.441   7.039   2.624  0.2172  0.2712  0.1506
 7056TIP3    H145363   4.365   6.983   2.613  1.3114 -1.0982 -0.8456
 7056TIP3    H245364   4.448   7.087   2.542  1.1238 -0.5516 -0.2764
 7057TIP3   OH245365   1.028   0.411   7.365 -0.8084  0.7142 -0.1073
 7057TIP3    H145366   0.982   0.434   7.446 -1.9665 -0.8561 -0.2725
 7057TIP3    H245367   1.118   0.394   7.393 -0.7085  2.1129  0.5104
 7058TIP3   OH245368   4.706   2.060   8.981  0.1779 -0.0844  0.2350
 7058TIP3    H145369   4.624   2.013   8.996 -0.0612  0.1187 -0.3921
 7058TIP3    H245370   4.757   2.001   8.927  0.8206 -0.5932  1.3689
 7059TIP3   OH245371   5.858   0.272   0.244 -0.5842  0.5201  0.2947
 7059TIP3    H145372   5.831   0.321   0.322 -2.3142  0.3942 -0.1797
 7059TIP3    H245373   5.841   0.181   0.266 -0.6208  0.4393 -0.0704
 7060TIP3   OH245374   3.625   1.038   8.077  0.1340  0.1252  0.2198
 7060TIP3    H145375   3.699   1.090   8.047 -0.2694 -0.3690 -1.8273
 7060TIP3    H245376   3.550   1.096   8.069 -0.0890 -0.2488 -0.5301
 7061TIP3   OH245377   2.731   1.888   7.682 -0.4441  0.2264 -0.1735
 7061TIP3    H145378   2.791   1.949   7.640 -0.3964  0.4922  0.2775
 7061TIP3    H245379   2.787   1.820   7.718 -0.4368  0.3197 -0.0084
 7062TIP3   OH245380   4.229   0.838   3.183  0.1100 -0.3675 -0.6502
 7062TIP3    H145381   4.233   0.792   3.267 -1.4595  1.6362  0.6168
 7062TIP3    H245382   4.157   0.795   3.136  1.1005 -1.6018 -1.0854
 7063TIP3   OH245383   2.139   2.741   0.077  0.2967 -0.1400 -0.3743
 7063TIP3    H145384   2.112   2.829   0.053  0.7305 -0.3540 -1.7307
 7063TIP3    H245385   2.235   2.743   0.074  0.3180 -0.5966 -0.1928
 7064TIP3   OH245386   7.092   3.187   7.511 -0.1290  0.4062 -0.4307
 7064TIP3    H145387   7.099   3.121   7.442 -0.0417 -1.0524  0.9115
 7064TIP3    H245388   7.152   3.257   7.483 -0.1629 -0.0934 -1.8512
 7065TIP3   OH245389   3.838   2.167   8.584 -0.1685 -0.4366 -0.3468
 7065TIP3    H145390   3.750   2.136   8.606 -1.0488  0.6699 -2.1537
 7065TIP3    H245391   3.854   2.136   8.495  1.8068 -1.6585  0.3620
 7066TIP3   OH245392   2.218   3.853   1.368 -0.2405  0.0013 -0.2332
 7066TIP3    H145393   2.137   3.904   1.364 -0.4835 -0.4258 -0.7572
 7066TIP3    H245394   2.226   3.813   1.282  1.8798  2.1006 -1.1356
 7067TIP3   OH245395   1.989   3.578   9.959 -0.0456 -0.0769 -0.2378
 7067TIP3    H145396   1.998   3.635  10.035 -0.3822  0.2583 -0.4438
 7067TIP3    H245397   2.067   3.594   9.906 -0.0183  0.0074 -0.1704
 7068TIP3   OH245398   5.010   2.381   8.486 -0.1699 -0.0255 -0.4308
 7068TIP3    H145399   5.013   2.286   8.489 -0.3910 -0.1580 -2.5710
 7068TIP3    H245400   5.040   2.409   8.572 -0.9916 -2.0208  0.5708
 7069TIP3   OH245401   7.568   4.722   8.855  0.0487 -0.1380  0.2727
 7069TIP3    H145402   7.601   4.693   8.940 -1.6759  1.5702  1.6154
 7069TIP3    H245403   7.474   4.731   8.868 -0.0895  1.3489 -1.4366
 7070TIP3   OH245404   6.782   2.973   9.906  0.5041  0.4735  0.0180
 7070TIP3    H145405   6.844   2.900   9.918 -0.5528 -0.4591 -0.0519
 7070TIP3    H245406   6.712   2.956   9.969  0.3811  1.6047  0.2093
 7071TIP3   OH245407   5.279   4.699   7.523 -0.6783 -0.0056 -0.1509
 7071TIP3    H145408   5.318   4.664   7.442 -0.9502  3.4565 -1.9603
 7071TIP3    H245409   5.235   4.623   7.563  0.9785 -2.2461 -2.2852
 7072TIP3   OH245410   0.128   2.317   9.956 -0.3801  0.2563  0.1088
 7072TIP3    H145411   0.168   2.336   9.871  0.4044 -0.2264  0.3520
 7072TIP3    H245412   0.168   2.380  10.016  4.2094 -3.3712  1.4619
 7073TIP3   OH245413   2.116   5.283   0.150 -0.6239 -0.0311  0.1048
 7073TIP3    H145414   2.190   5.328   0.191 -2.0923  0.9862  1.8244
 7073TIP3    H245415   2.132   5.190   0.169 -0.0931  0.2244  1.0272
 7074TIP3   OH245416   5.175   1.315   1.062  0.2760 -0.0068  0.8141
 7074TIP3    H145417   5.241   1.273   1.117  1.6036  0.4514 -0.3631
 7074TIP3    H245418   5.102   1.253   1.060  1.5162 -1.5029  0.4735
 7075TIP3   OH245419   4.213   6.202   8.139  0.3705 -0.1921  0.2237
 7075TIP3    H145420   4.290   6.148   8.123  0.6387 -0.0469  0.9428
 7075TIP3    H245421   4.203   6.202   8.235 -0.6506 -0.3779  0.1342
 7076TIP3   OH245422   2.393   5.098   9.077 -0.3923 -0.8204 -0.7297
 7076TIP3    H145423   2.343   5.103   9.158 -0.4262 -0.8080 -0.7514
 7076TIP3    H245424   2.437   5.013   9.081 -1.7651 -1.6026 -1.5052
 7077TIP3   OH245425   2.523   3.343   0.321  0.2580 -0.7899 -0.6792
 7077TIP3    H145426   2.520   3.256   0.360 -1.3698  0.0547  1.3117
 7077TIP3    H245427   2.589   3.390   0.372  0.5963 -0.6608 -1.2402
 7078TIP3   OH245428   2.006   4.839   7.613  0.1964 -0.1657 -0.4795
 7078TIP3    H145429   2.032   4.921   7.570  2.4640 -0.2867  0.5114
 7078TIP3    H245430   1.933   4.864   7.670  1.6081  1.4850  0.7147
 7079TIP3   OH245431   2.612   3.617   0.733  0.0309 -0.1931  0.6869
 7079TIP3    H145432   2.607   3.522   0.746  0.1574 -0.6457 -1.9623
 7079TIP3    H245433   2.704   3.638   0.748 -0.2400 -0.1729  2.6721
 7080TIP3   OH245434   1.561   2.725   1.967  0.2850  0.6177 -0.5214
 7080TIP3    H145435   1.534   2.642   1.928 -2.0620  0.9327  0.2627
 7080TIP3    H245436   1.537   2.791   1.902  0.8894  0.7877 -0.5764
 7081TIP3   OH245437   1.361   3.022   8.662 -0.0975 -0.2012 -0.3517
 7081TIP3    H145438   1.398   2.953   8.606 -0.4244  0.2367 -1.1267
 7081TIP3    H245439   1.270   2.995   8.676 -0.1354 -0.0938 -0.3899
 7082TIP3   OH245440   5.325   6.150   9.927  0.4771 -0.2595 -0.0439
 7082TIP3    H145441   5.273   6.070   9.923  0.8014 -0.4994  0.4284
 7082TIP3    H245442   5.406   6.129   9.880  0.4758 -0.1412 -0.1001
 7083TIP3   OH245443   2.055   4.530   9.643 -0.0587 -0.0977 -0.0222
 7083TIP3    H145444   1.965   4.556   9.627 -0.3996 -1.5648 -0.6880
 7083TIP3    H245445   2.050   4.467   9.715  0.4572 -0.0525  0.0620
 7084TIP3   OH245446   2.125   5.083   9.439 -0.0790 -0.2256  0.3175
 7084TIP3    H145447   2.220   5.074   9.433  0.0445 -1.8901  3.1838
 7084TIP3    H245448   2.092   4.995   9.422 -1.1309  0.3032 -0.4542
 7085TIP3   OH245449   7.526   7.342   1.932 -0.4985 -0.0311  0.5272
 7085TIP3    H145450   7.605   7.298   1.902 -0.5147 -0.3456  0.9390
 7085TIP3    H245451   7.520   7.321   2.025 -1.7026 -0.9892  0.2595
 7086TIP3   OH245452   4.319   7.045   0.185  0.6394 -0.1677 -0.4029
 7086TIP3    H145453   4.328   7.137   0.159 -0.9442 -0.1728 -1.0462
 7086TIP3    H245454   4.276   7.003   0.111 -3.2176 -0.3762  1.7294
 7087TIP3   OH245455   5.280   0.083   1.899 -0.0875 -0.2770 -0.5970
 7087TIP3    H145456   5.359   0.032   1.915 -0.6315 -1.2321 -0.8923
 7087TIP3    H245457   5.227   0.027   1.843 -1.6597 -0.3113  0.8706
 7088TIP3   OH245458   0.471   4.065   1.637 -0.4157 -0.6471  0.3806
 7088TIP3    H145459   0.469   3.975   1.667  2.6138 -0.9239  0.0235
 7088TIP3    H245460   0.494   4.116   1.714 -0.7027 -0.3279  0.2610
 7089TIP3   OH245461   7.291   6.158   8.463 -0.2631  0.0675  0.3054
 7089TIP3    H145462   7.352   6.220   8.424 -0.1577  0.4238  1.0233
 7089TIP3    H245463   7.204   6.191   8.440 -0.2347 -1.3026 -2.0841
 7090TIP3   OH245464   2.071   1.948   7.075  0.1557  0.3905  0.1513
 7090TIP3    H145465   2.075   1.978   7.165 -1.5414  3.4143 -0.6641
 7090TIP3    H245466   1.988   1.900   7.069  0.6133 -0.4488  0.3198
 7091TIP3   OH245467   1.907   1.929   2.218 -0.1563 -0.4098 -0.2322
 7091TIP3    H145468   1.986   1.914   2.270  0.8060  0.6186 -1.3322
 7091TIP3    H245469   1.845   1.970   2.278  0.5245 -0.2629  0.3729
 7092TIP3   OH245470   0.289   3.535   6.631  0.5228 -0.6099  0.3943
 7092TIP3    H145471   0.264   3.617   6.672  1.3462  0.4780 -1.1548
 7092TIP3    H245472   0.240   3.468   6.678 -1.7713  0.9535  0.3792
 7093TIP3   OH245473   0.649   4.908   0.886 -0.0302  0.0931  0.0653
 7093TIP3    H145474   0.643   4.906   0.790 -0.3423 -0.8568  0.0982
 7093TIP3    H245475   0.698   4.829   0.909 -0.8482 -0.2313  0.7463
 7094TIP3   OH245476   5.005   3.381   7.012  0.2210 -0.1030  0.3629
 7094TIP3    H145477   5.023   3.295   6.975 -0.6451 -0.4814  0.7969
 7094TIP3    H245478   5.050   3.442   6.954 -0.9158 -0.6903 -1.1984
 7095TIP3   OH245479   1.930   4.429   1.711  0.1144  0.5599  0.0817
 7095TIP3    H145480   1.880   4.439   1.792  1.1144 -1.0484  0.9503
 7095TIP3    H245481   1.996   4.497   1.715 -0.0726  0.7220  0.4301
 7096TIP3   OH245482   3.130   5.201   9.499  0.4133  0.0997 -0.6618
 7096TIP3    H145483   3.035   5.192   9.492  0.2375  1.3190 -0.1855
 7096TIP3    H245484   3.149   5.190   9.592  0.7993 -0.6104 -0.8232
 7097TIP3   OH245485   0.977   4.433   8.103 -0.1822 -0.5801 -0.0487
 7097TIP3    H145486   0.994   4.519   8.142  0.7888  0.3192 -2.2936
 7097TIP3    H245487   1.030   4.372   8.154 -0.2237  0.2672  1.0350
 7098TIP3   OH245488   0.827   2.027   2.837 -0.5403  0.0882  0.2391
 7098TIP3    H145489   0.815   2.117   2.870  0.4621  1.1222 -1.9775
 7098TIP3    H245490   0.860   2.039   2.748  0.3975 -2.5109  0.1633
 7099TIP3   OH245491   3.267   4.171   9.737 -0.3191 -0.3231 -0.4584
 7099TIP3    H145492   3.287   4.079   9.723  1.1392  0.2129 -2.1716
 7099TIP3    H245493   3.193   4.188   9.679 -0.3806 -0.3426 -0.3850
 7100TIP3   OH245494   7.603   2.710   9.569  0.3805 -0.3488 -0.0142
 7100TIP3    H145495   7.527   2.712   9.511 -0.2973  1.2205  0.8551
 7100TIP3    H245496   7.601   2.622   9.608 -0.3433 -0.6927 -0.7873
 7101TIP3   OH245497   1.471   1.046   0.581 -0.0330  0.0269 -0.3058
 7101TIP3    H145498   1.539   1.113   0.587 -0.6251  0.6277 -0.1888
 7101TIP3    H245499   1.455   1.036   0.487  0.6506 -0.5675 -0.3641
 7102TIP3   OH245500   6.430   7.720   9.543 -0.2774 -0.1330 -0.4798
 7102TIP3    H145501   6.477   7.698   9.462  1.5879  0.3695  0.4267
 7102TIP3    H245502   6.490   7.696   9.613 -1.1723  1.0343  0.7269
 7103TIP3   OH245503   3.985   2.082   0.946  0.9696  0.1547 -0.0289
 7103TIP3    H145504   3.999   2.169   0.908  0.3874  0.9674  1.5745
 7103TIP3    H245505   3.896   2.084   0.980  1.7294 -0.2576  2.0891
 7104TIP3   OH245506   1.893   5.138   0.346  0.0654  0.2134 -1.1631
 7104TIP3    H145507   1.978   5.179   0.330  0.1334  0.1606 -0.9528
 7104TIP3    H245508   1.901   5.102   0.435 -0.6421  1.3761 -0.6086
 7105TIP3   OH245509   4.253   2.907   0.171 -0.2947 -0.4292  0.0119
 7105TIP3    H145510   4.192   2.954   0.115  0.3915  1.8926  1.0973
 7105TIP3    H245511   4.331   2.896   0.118 -0.7585 -1.1768 -0.5377
 7106TIP3   OH245512   2.395   5.303   9.523  0.1933 -0.5454  0.2876
 7106TIP3    H145513   2.419   5.396   9.522  1.1761 -0.7413 -2.1175
 7106TIP3    H245514   2.353   5.290   9.608 -0.6403  2.2505  0.4250
 7107TIP3   OH245515   0.198   3.978   1.577  0.1165  0.0009  0.3143
 7107TIP3    H145516   0.274   4.021   1.539  0.6197 -2.7841 -2.1882
 7107TIP3    H245517   0.125   4.001   1.520  0.1373 -1.2710 -0.2708
 7108TIP3   OH245518   0.581   1.327   9.416  0.0966  0.2786  0.1771
 7108TIP3    H145519   0.669   1.290   9.410  0.0964  0.4271 -1.2245
 7108TIP3    H245520   0.536   1.272   9.480  1.2383  0.2891  1.0133
 7109TIP3   OH245521   3.532   6.570   7.657 -0.4570  0.0147  0.8148
 7109TIP3    H145522   3.507   6.481   7.682  0.3305 -0.5346 -0.2777
 7109TIP3    H245523   3.622   6.580   7.688  0.2028 -0.3451 -0.8922
 7110TIP3   OH245524   3.692   3.992   7.881  0.4036 -0.3153 -0.4844
 7110TIP3    H145525   3.648   4.076   7.865  0.3948  0.8178  4.1047
 7110TIP3    H245526   3.640   3.928   7.833 -1.9216  1.8193 -1.0488
 7111TIP3   OH245527   7.616   5.364   0.449 -0.2109  0.6412 -0.2105
 7111TIP3    H145528   7.532   5.319   0.440 -0.4421  0.5914  1.7880
 7111TIP3    H245529   7.638   5.356   0.542  0.6322  3.0642 -0.1288
 7112TIP3   OH245530   5.487   1.754   1.395  0.0803 -0.8243  0.5714
 7112TIP3    H145531   5.479   1.703   1.314  0.9685  0.2954 -0.2553
 7112TIP3    H245532   5.397   1.776   1.418 -0.1686 -0.8307 -0.3394
 7113TIP3   OH245533   3.504   0.589   8.233 -0.0666 -0.1126 -0.1965
 7113TIP3    H145534   3.443   0.534   8.185  0.1787  0.2183 -0.9013
 7113TIP3    H245535   3.573   0.610   8.170  1.5030 -1.5580  0.9321
 7114TIP3   OH245536   5.643   5.383   9.121 -0.3257 -0.2174  0.8954
 7114TIP3    H145537   5.547   5.390   9.125 -0.3201  0.0113  0.6465
 7114TIP3    H245538   5.660   5.289   9.118 -0.5154 -0.2769  1.5486
 7115TIP3   OH245539   3.210   2.901   6.844  0.3324 -0.3120 -0.2941
 7115TIP3    H145540   3.219   2.969   6.777  1.2457  1.5169  1.5526
 7115TIP3    H245541   3.295   2.900   6.888 -0.5104 -0.7845  1.4027
 7116TIP3   OH245542   0.919   5.706   0.401 -0.4064  0.2152 -0.0760
 7116TIP3    H145543   0.921   5.631   0.342 -3.4970  0.0317 -0.1109
 7116TIP3    H245544   0.985   5.686   0.468  0.8460 -1.1262 -1.6375
 7117TIP3   OH245545   4.558   0.232   3.045 -1.0647  0.3549 -0.5011
 7117TIP3    H145546   4.493   0.220   3.114  0.4928  1.9003  1.3502
 7117TIP3    H245547   4.593   0.320   3.061  2.2276 -0.8074 -0.6773
 7118TIP3   OH245548   1.730   4.420   0.151  0.1132  0.0351  0.2454
 7118TIP3    H145549   1.768   4.491   0.098  0.8869  1.5808  2.6893
 7118TIP3    H245550   1.787   4.415   0.228 -2.9329  0.4575  2.7061
 7119TIP3   OH245551   4.887   1.916   8.829  0.1912  0.1401 -0.4285
 7119TIP3    H145552   4.931   1.897   8.746 -2.0885 -1.7896 -1.3095
 7119TIP3    H245553   4.848   1.833   8.855 -0.1359  0.9698  2.0368
 7120TIP3   OH245554   0.448   0.521   0.012 -0.5436  0.6157 -0.1129
 7120TIP3    H145555   0.430   0.614   0.014  0.0220  0.7198  0.4573
 7120TIP3    H245556   0.448   0.498  -0.081 -2.3740  0.8308 -0.1960
 7121TIP3   OH245557   6.844   2.897   7.661 -0.5188 -0.2891  0.2460
 7121TIP3    H145558   6.780   2.923   7.595  0.7168  0.7588 -0.6108
 7121TIP3    H245559   6.923   2.875   7.610  1.1266  2.4688  1.3387
 7122TIP3   OH245560   2.271   1.705   9.157  0.0471  0.3831 -0.1391
 7122TIP3    H145561   2.180   1.728   9.173 -0.0357  1.3278 -1.7735
 7122TIP3    H245562   2.318   1.788   9.159  0.4461  0.2337 -1.7623
 7123TIP3   OH245563   7.100   3.049   8.121  0.4405  0.7784 -0.4572
 7123TIP3    H145564   7.098   2.953   8.113 -0.9310  0.4723  2.2393
 7123TIP3    H245565   7.013   3.077   8.096  0.8245  1.3408 -1.1851
 7124TIP3   OH245566   2.554   4.461   1.464 -0.3961  0.5752  1.0752
 7124TIP3    H145567   2.516   4.381   1.502 -0.7568  0.8768  1.3555
 7124TIP3    H245568   2.487   4.528   1.477 -1.1677  0.3656 -1.4518
 7125TIP3   OH245569   5.286   4.111   6.637  0.1246 -0.0765 -0.1596
 7125TIP3    H145570   5.339   4.031   6.639  0.8471  0.3869 -0.8048
 7125TIP3    H245571   5.222   4.095   6.568  1.0168  0.3632 -1.1109
 7126TIP3   OH245572   5.856   4.371   8.958 -0.1692  0.2243 -0.0263
 7126TIP3    H145573   5.781   4.347   8.903  0.6916 -0.8025 -0.8044
 7126TIP3    H245574   5.932   4.363   8.900  0.6342  0.4272  0.9633
 7127TIP3   OH245575   7.665   5.943   7.910 -0.4673 -0.3661  0.0259
 7127TIP3    H145576   7.742   5.999   7.896 -0.1013 -0.5939  1.0523
 7127TIP3    H245577   7.591   5.996   7.880  0.0685 -0.0867 -0.8419
 7128TIP3   OH245578   0.544   4.407   8.108 -0.0234 -0.2924 -0.0918
 7128TIP3    H145579   0.560   4.348   8.034 -0.5136 -1.6338  0.8361
 7128TIP3    H245580   0.469   4.368   8.154 -1.1837  1.7530 -0.1472
 7129TIP3   OH245581   3.188   7.398   8.277 -0.3800  0.7748  0.0272
 7129TIP3    H145582   3.203   7.462   8.208 -0.0468 -0.7582 -1.3788
 7129TIP3    H245583   3.163   7.318   8.231  1.9992 -0.9483  1.4797
 7130TIP3   OH245584   1.802   3.485   6.974  0.0179 -0.0737  0.0307
 7130TIP3    H145585   1.737   3.547   6.939 -2.5867 -1.4293  2.0963
 7130TIP3    H245586   1.799   3.412   6.913  0.0300  0.1195 -0.2042
 7131TIP3   OH245587   1.564   0.254   0.382  0.1466 -0.0508  0.5294
 7131TIP3    H145588   1.529   0.301   0.307  0.7635  0.4455  0.5414
 7131TIP3    H245589   1.618   0.184   0.344  1.5849  1.0469  0.4796
 7132TIP3   OH245590   0.204   3.177   2.752  0.2304  0.7609 -0.1154
 7132TIP3    H145591   0.154   3.244   2.705  1.1519  1.4091 -0.2089
 7132TIP3    H245592   0.283   3.223   2.781  1.2723 -0.4835 -0.8897
 7133TIP3   OH245593   4.522   0.271   1.798  0.3841 -0.0811 -0.2061
 7133TIP3    H145594   4.462   0.196   1.793 -0.7286  0.8313 -0.9181
 7133TIP3    H245595   4.465   0.348   1.791  1.6435  0.8152 -0.9540
 7134TIP3   OH245596   6.307   2.839   3.262 -0.0571 -0.1146 -0.0991
 7134TIP3    H145597   6.378   2.862   3.201 -0.1544  2.1791  0.5683
 7134TIP3    H245598   6.329   2.885   3.342 -1.7960 -0.2088  0.4579
 7135TIP3   OH245599   7.106   2.142   7.258  0.3885  0.6339 -0.3454
 7135TIP3    H145600   7.024   2.193   7.251  1.6585  2.6930 -1.2884
 7135TIP3    H245601   7.140   2.141   7.168  1.9898  0.8745  0.2348
 7136TIP3   OH245602   1.248   6.677   1.334 -0.0575  0.4664 -0.6550
 7136TIP3    H145603   1.264   6.765   1.300  0.9462  0.5421 -0.0360
 7136TIP3    H245604   1.155   6.678   1.359 -0.4577  0.8345 -2.0921
 7137TIP3   OH245605   3.110   3.916   7.009  0.1449  0.5965 -0.1414
 7137TIP3    H145606   3.050   3.872   6.949 -1.2817  3.1633 -0.7607
 7137TIP3    H245607   3.197   3.897   6.973 -0.4384 -0.9930 -0.8074
 7138TIP3   OH245608   7.348   5.697   0.577 -0.3737 -0.0834  0.3824
 7138TIP3    H145609   7.389   5.645   0.647  2.6204 -0.8908 -1.7807
 7138TIP3    H245610   7.421   5.737   0.531 -2.2101  0.3964 -2.3261
 7139TIP3   OH245611   2.387   6.275   8.431  0.1896 -0.1525  0.2159
 7139TIP3    H145612   2.471   6.295   8.472  0.1071 -0.6074  0.6125
 7139TIP3    H245613   2.366   6.354   8.381  1.2799 -0.3683 -0.6139
 7140TIP3   OH245614   0.578   0.283   1.377  0.0041 -0.6067 -0.2354
 7140TIP3    H145615   0.564   0.193   1.349 -0.5314 -0.5867 -0.0468
 7140TIP3    H245616   0.664   0.283   1.419 -0.5594 -1.3241  0.9601
 7141TIP3   OH245617   0.556   3.752   1.567 -0.4758 -0.1352 -0.1950
 7141TIP3    H145618   0.495   3.800   1.623 -0.6642 -0.4514 -0.1248
 7141TIP3    H245619   0.594   3.686   1.625  0.9356  0.9112  0.1138
 7142TIP3   OH245620   6.388   3.209   0.275 -0.1488 -0.3577  0.2354
 7142TIP3    H145621   6.315   3.184   0.332 -1.3125 -1.3032 -1.5910
 7142TIP3    H245622   6.348   3.261   0.206  0.9030 -0.8381 -0.7658
 7143TIP3   OH245623   3.909   2.463   8.454 -0.5444  0.4572 -0.1271
 7143TIP3    H145624   3.856   2.425   8.525  0.4300  0.9935  0.9149
 7143TIP3    H245625   3.971   2.520   8.498  1.0353 -0.2749 -1.2885
 7144TIP3   OH245626   0.389   2.729   1.190  0.0008  0.6738 -0.7599
 7144TIP3    H145627   0.402   2.820   1.216  1.4142  0.3269 -0.1340
 7144TIP3    H245628   0.367   2.684   1.271 -1.7058  0.6090 -1.2342
 7145TIP3   OH245629   4.127   1.471   1.403  0.1987  0.4431 -0.0761
 7145TIP3    H145630   4.061   1.437   1.463 -1.1145  0.8957 -1.1991
 7145TIP3    H245631   4.080   1.534   1.349  1.4592  0.4589 -1.2155
 7146TIP3   OH245632   0.997   2.479   9.312  0.4553 -0.1167  0.6059
 7146TIP3    H145633   1.055   2.425   9.365 -1.6821  0.0127  3.3163
 7146TIP3    H245634   0.989   2.561   9.362 -0.9883  0.3625 -0.3565
 7147TIP3   OH245635   5.871   3.972   1.001 -0.2015 -0.6320  0.0852
 7147TIP3    H145636   5.907   3.883   0.993  0.7789 -0.4508  1.9915
 7147TIP3    H245637   5.868   4.004   0.911  2.3473 -1.4944 -0.4001
 7148TIP3   OH245638   1.049   3.300   7.670 -0.2239  0.3022  0.5936
 7148TIP3    H145639   1.098   3.371   7.629 -0.4699  1.2951  1.9393
 7148TIP3    H245640   1.005   3.341   7.745  0.0078 -1.3571  1.6975
 7149TIP3   OH245641   7.206   0.039   7.505 -0.1570  0.3449  0.4372
 7149TIP3    H145642   7.284   0.032   7.450 -0.9868  1.6918 -0.9970
 7149TIP3    H245643   7.238   0.024   7.594  1.4824 -0.4911 -0.2591
 7150TIP3   OH245644   7.106   2.369   6.895 -0.0588  0.1295 -0.1798
 7150TIP3    H145645   7.014   2.350   6.912 -0.2805  0.7443 -0.6375
 7150TIP3    H245646   7.131   2.428   6.966 -0.5910  1.5579 -1.1129
 7151TIP3   OH245647   3.668   6.804   0.008 -0.5875  0.2749  0.2506
 7151TIP3    H145648   3.679   6.877  -0.053 -0.5784  1.0240  1.1299
 7151TIP3    H245649   3.756   6.768   0.018  0.0350  2.0883  2.1417
 7152TIP3   OH245650   4.205   0.642   0.354 -0.0797  0.4784 -0.1033
 7152TIP3    H145651   4.167   0.708   0.296  0.0349  0.1974 -0.5059
 7152TIP3    H245652   4.150   0.643   0.432 -0.1381  0.9785 -0.1491
 7153TIP3   OH245653   4.962   6.605   8.597 -0.1192  0.3202  0.0301
 7153TIP3    H145654   4.989   6.514   8.592  2.7474  0.7944  3.2703
 7153TIP3    H245655   4.880   6.604   8.647 -0.5812 -0.4500 -0.7108
 7154TIP3   OH245656   1.079   7.449   9.346 -0.0631  0.5042 -0.1096
 7154TIP3    H145657   1.146   7.447   9.414 -1.6047  2.5622  1.6300
 7154TIP3    H245658   1.091   7.533   9.303 -0.9806  0.5406 -0.3189
 7155TIP3   OH245659   3.856   0.999   7.913 -0.1245 -0.0853  0.0327
 7155TIP3    H145660   3.841   0.932   7.847 -0.9335 -0.6232  0.7436
 7155TIP3    H245661   3.885   0.952   7.990  2.2017  0.6649 -0.3181
 7156TIP3   OH245662   1.350   5.505   9.866 -0.1361 -0.0842  0.6738
 7156TIP3    H145663   1.259   5.524   9.842  0.1194  0.3505  0.0104
 7156TIP3    H245664   1.360   5.412   9.848  0.3868  0.4389 -2.2144
 7157TIP3   OH245665   1.656   1.755   1.061 -0.2644  0.1013 -0.6792
 7157TIP3    H145666   1.626   1.671   1.096  0.8316  0.5911  1.6192
 7157TIP3    H245667   1.600   1.820   1.103 -0.6175  0.5885 -1.8676
 7158TIP3   OH245668   6.259   2.007   7.456 -0.2944 -0.0190  0.1183
 7158TIP3    H145669   6.207   1.940   7.411  1.5647 -1.7178  0.3111
 7158TIP3    H245670   6.247   2.086   7.404 -2.3385 -0.5505 -0.3128
 7159TIP3   OH245671   2.226   5.876   0.086 -0.2742 -0.0199  0.4691
 7159TIP3    H145672   2.225   5.940   0.015 -0.5132 -0.4214  0.1052
 7159TIP3    H245673   2.161   5.810   0.061  0.7220 -0.9776  0.3040
 7160TIP3   OH245674   6.972   4.003   7.383  0.1966  0.3901 -0.2605
 7160TIP3    H145675   7.046   4.041   7.337  1.4473 -1.1441  0.4076
 7160TIP3    H245676   6.956   3.920   7.339  1.3905 -1.0910  1.9318
 7161TIP3   OH245677   4.675   1.356   8.078 -0.4458  0.2377  0.5575
 7161TIP3    H145678   4.661   1.446   8.108 -1.9045 -0.2479  1.4591
 7161TIP3    H245679   4.586   1.321   8.065  0.0870 -1.1248  0.3955
 7162TIP3   OH245680   5.728   1.761   8.823 -0.1526  0.1291 -0.2017
 7162TIP3    H145681   5.734   1.791   8.914 -1.0097 -1.0938  0.2801
 7162TIP3    H245682   5.784   1.821   8.775  0.7637  0.4646  1.2149
 7163TIP3   OH245683   7.470   0.063   8.676  0.2621  0.3260  0.3538
 7163TIP3    H145684   7.509   0.129   8.619  1.6965 -1.0521 -0.3594
 7163TIP3    H245685   7.450  -0.010   8.618 -0.9990  0.0059  1.1634
 7164TIP3   OH245686   3.521   3.889   7.666  0.6147  0.0197 -0.6943
 7164TIP3    H145687   3.537   3.980   7.640  0.0566 -0.0647 -1.3457
 7164TIP3    H245688   3.429   3.888   7.693 -0.4114 -1.0390 -3.8267
 7165TIP3   OH245689   6.715   3.958   7.802  0.1573  0.4399  0.1482
 7165TIP3    H145690   6.799   3.936   7.761  0.1248 -0.1285  0.3802
 7165TIP3    H245691   6.685   4.035   7.754  0.5277  0.2925 -0.3287
 7166TIP3   OH245692   2.736   3.606   9.424 -0.3033  0.1695 -0.1085
 7166TIP3    H145693   2.649   3.645   9.410  0.4225  1.6334 -0.7976
 7166TIP3    H245694   2.720   3.533   9.483 -1.9964  0.4678 -0.1419
 7167TIP3   OH245695   6.976   6.700   6.925  0.0214 -0.1885 -0.0502
 7167TIP3    H145696   7.011   6.681   7.012 -1.6014  0.2184  0.7330
 7167TIP3    H245697   6.930   6.783   6.936 -0.9363 -0.5649 -1.0832
 7168TIP3   OH245698   7.443   1.133   9.791 -0.3528  0.0237 -0.3643
 7168TIP3    H145699   7.499   1.064   9.828 -0.7784  0.3151  0.8923
 7168TIP3    H245700   7.503   1.192   9.747  0.2162 -0.2151  0.0803
 7169TIP3   OH245701   1.176   5.444   7.716 -0.1368  0.1029 -0.1255
 7169TIP3    H145702   1.151   5.500   7.642 -0.2392  0.5141  0.2174
 7169TIP3    H245703   1.268   5.424   7.701  0.1552  1.1356  0.2395
 7170TIP3   OH245704   7.029   5.404   9.005  0.5746  0.1362  0.2521
 7170TIP3    H145705   6.971   5.411   9.081  0.3504  0.5480  0.0444
 7170TIP3    H245706   7.004   5.322   8.963 -0.6105  0.8241 -0.4472
 7171TIP3   OH245707   2.313   1.969   2.592  0.1474  0.0003  0.1000
 7171TIP3    H145708   2.258   1.903   2.550  1.2417  0.0989 -1.5878
 7171TIP3    H245709   2.370   1.920   2.651  1.5828 -0.7591 -1.8121
 7172TIP3   OH245710   6.316   5.477   0.533  0.4914  0.0662 -0.1711
 7172TIP3    H145711   6.264   5.554   0.510 -1.0192 -0.3909  1.4942
 7172TIP3    H245712   6.400   5.512   0.562  0.2500  1.0057 -0.5723
 7173TIP3   OH245713   0.115   3.053   2.515 -0.2928 -0.7227 -0.2931
 7173TIP3    H145714   0.130   3.069   2.608 -1.6346 -0.7963 -0.0477
 7173TIP3    H245715   0.151   3.131   2.471 -0.6974 -0.1469  0.3776
 7174TIP3   OH245716   7.359   3.377   0.377  0.1664 -0.3689  0.1495
 7174TIP3    H145717   7.313   3.301   0.411  1.1506 -0.4121  1.4414
 7174TIP3    H245718   7.448   3.346   0.360  0.5897  0.4749  0.7228
 7175TIP3   OH245719   6.145   1.125   8.091 -0.2486  0.3393 -0.3149
 7175TIP3    H145720   6.089   1.170   8.029 -1.2346  0.2151  0.4553
 7175TIP3    H245721   6.092   1.051   8.121  0.6101 -0.2051 -0.1169
 7176TIP3   OH245722   6.788   3.268   8.275  0.5941  0.1249 -0.3826
 7176TIP3    H145723   6.854   3.282   8.207  0.9254 -0.2195 -0.1328
 7176TIP3    H245724   6.750   3.355   8.289  2.3137  0.7442  0.8241
 7177TIP3   OH245725   2.823   3.527   8.068 -0.4588 -0.1833  0.0176
 7177TIP3    H145726   2.803   3.509   8.160  0.0439  2.4181  0.7213
 7177TIP3    H245727   2.749   3.490   8.020 -0.4830 -2.0390  1.3918
 7178TIP3   OH245728   1.188   4.829   2.287  0.2952 -0.0644 -0.4451
 7178TIP3    H145729   1.120   4.800   2.226  0.3369  0.0684 -0.5537
 7178TIP3    H245730   1.145   4.894   2.342  0.7382  1.1573 -1.5000
 7179TIP3   OH245731   3.825   7.144   7.696  0.2539  0.0637  0.5087
 7179TIP3    H145732   3.778   7.217   7.738 -0.0188 -0.5200  1.2351
 7179TIP3    H245733   3.772   7.067   7.714  0.2553 -0.2515 -0.7283
 7180TIP3   OH245734   4.095   2.002   2.342  0.6661 -0.1862 -0.0436
 7180TIP3    H145735   4.090   1.970   2.432 -1.0322  0.6148  0.1787
 7180TIP3    H245736   4.164   2.068   2.343  0.4196  0.0648  0.7542
 7181TIP3   OH245737   3.026   4.756   6.949 -0.0731  0.1853 -0.8077
 7181TIP3    H145738   2.945   4.786   6.990  0.8859  0.1208  1.2615
 7181TIP3    H245739   3.039   4.667   6.981  1.9656  0.9842  0.8386
 7182TIP3   OH245740   4.683   1.234   1.422  0.1675 -0.0641  0.4307
 7182TIP3    H145741   4.592   1.205   1.433 -0.3396  1.2413 -0.1384
 7182TIP3    H245742   4.735   1.156   1.440 -1.0679 -0.8580  0.6933
 7183TIP3   OH245743   6.419   2.809   1.730 -0.1278  0.0056 -0.4168
 7183TIP3    H145744   6.358   2.882   1.723 -1.9634 -1.5081 -1.2451
 7183TIP3    H245745   6.393   2.750   1.659  1.0296 -1.6449  0.4677
 7184TIP3   OH245746   0.424   5.136   2.166 -0.0376  0.0600 -0.4670
 7184TIP3    H145747   0.501   5.187   2.190  0.3019 -1.2809  1.5018
 7184TIP3    H245748   0.456   5.072   2.103  0.5650 -0.6653  0.5407
 7185TIP3   OH245749   1.898   5.542   9.608 -0.0889 -0.1375 -0.5092
 7185TIP3    H145750   1.958   5.596   9.660 -1.1753  0.7447 -0.1299
 7185TIP3    H245751   1.952   5.470   9.577  0.5775 -0.9051  2.1124
 7186TIP3   OH245752  -0.021   7.400   1.542  0.0066  0.1684 -0.0442
 7186TIP3    H145753  -0.051   7.406   1.451 -1.1946  1.4205  0.3965
 7186TIP3    H245754  -0.039   7.309   1.567  0.8583 -0.3407 -1.2024
 7187TIP3   OH245755   0.647   2.749   2.402  0.5150  0.3510 -0.8800
 7187TIP3    H145756   0.600   2.721   2.323  0.0955  1.4514 -1.0349
 7187TIP3    H245757   0.666   2.842   2.387  0.7537  0.4804  0.1625
 7188TIP3   OH245758   1.917   6.716   7.417 -0.0653  0.3695 -0.9201
 7188TIP3    H145759   1.858   6.779   7.459 -2.3098 -1.8784 -0.4768
 7188TIP3    H245760   1.921   6.746   7.326 -2.7536  0.1035 -1.2185
 7189TIP3   OH245761   4.109   2.887   8.452 -0.5232 -0.0174  0.1087
 7189TIP3    H145762   4.117   2.946   8.527 -0.6698 -0.4935  0.4994
 7189TIP3    H245763   4.046   2.930   8.395 -1.1246 -0.1024  0.6977
 7190TIP3   OH245764   4.462   1.872   0.524 -0.1391  0.4216 -0.2961
 7190TIP3    H145765   4.371   1.843   0.523  0.0048 -0.0596  0.1425
 7190TIP3    H245766   4.459   1.960   0.562 -0.1733 -0.5239  2.0474
 7191TIP3   OH245767   7.368   7.607   9.702  0.4624 -0.4951 -0.2595
 7191TIP3    H145768   7.440   7.666   9.680  1.7332 -0.8158  2.6111
 7191TIP3    H245769   7.292   7.664   9.710  0.3161 -0.1339 -3.1838
 7192TIP3   OH245770   4.446   3.422   9.500  0.1980 -0.8738  0.2603
 7192TIP3    H145771   4.399   3.359   9.555 -1.8402 -1.3378 -1.8685
 7192TIP3    H245772   4.407   3.507   9.522 -0.3452 -1.0049 -0.1892
 7193TIP3   OH245773   3.751   1.896   0.785  0.1656  0.0924 -0.3216
 7193TIP3    H145774   3.790   1.979   0.758  1.2138 -0.6275 -1.0856
 7193TIP3    H245775   3.808   1.829   0.748 -1.4692 -1.0076 -0.9466
 7194TIP3   OH245776   5.360   4.276   7.187 -0.0886  0.3565 -0.2095
 7194TIP3    H145777   5.427   4.261   7.121  0.2236  0.9187 -0.0295
 7194TIP3    H245778   5.376   4.207   7.252  1.3409  1.4112  0.6188
 7195TIP3   OH245779   0.051   5.345   1.660 -0.1743 -0.0445 -0.5891
 7195TIP3    H145780  -0.029   5.306   1.625 -0.5570 -0.0471  0.2510
 7195TIP3    H245781   0.121   5.285   1.633 -0.6265 -0.7524 -0.2137
 7196TIP3   OH245782   4.632   3.065   9.393 -0.4867  0.1085  0.1790
 7196TIP3    H145783   4.650   3.126   9.465 -0.5632  1.0891 -0.6142
 7196TIP3    H245784   4.658   3.112   9.314  1.8434 -1.8116 -0.3200
 7197TIP3   OH245785   0.819   3.630   8.686 -0.3050  0.8768 -0.2033
 7197TIP3    H145786   0.884   3.623   8.616 -0.5407 -0.2156 -0.3337
 7197TIP3    H245787   0.854   3.576   8.757 -1.0738  0.2664 -0.2804
 7198TIP3   OH245788   5.383   4.280   0.480  0.2046 -0.0709 -0.0225
 7198TIP3    H145789   5.336   4.289   0.563  1.0103  0.3115  0.4040
 7198TIP3    H245790   5.317   4.248   0.418 -0.7611  0.9946  0.4182
 7199TIP3   OH245791   7.604   3.101   1.335 -0.6455  0.2125  0.4282
 7199TIP3    H145792   7.644   3.031   1.284  1.0635  0.4456  1.3613
 7199TIP3    H245793   7.598   3.066   1.424  0.3925  1.2648  0.9509
 7200TIP3   OH245794   7.695   7.646   9.400  0.4386 -0.1996 -0.0648
 7200TIP3    H145795   7.685   7.556   9.432  2.7284 -0.1410  1.0590
 7200TIP3    H245796   7.662   7.700   9.471  0.1162 -0.1461 -0.2577
 7201TIP3   OH245797   7.538   0.212   1.876  0.3494  0.2446  0.2772
 7201TIP3    H145798   7.543   0.117   1.863 -0.7180 -0.0808  1.9820
 7201TIP3    H245799   7.507   0.246   1.792  0.2386 -0.9655 -0.1957
 7202TIP3   OH245800   5.815   4.957   0.336  0.5697  0.2986 -0.0708
 7202TIP3    H145801   5.810   4.880   0.279 -0.5237 -0.8035  1.4077
 7202TIP3    H245802   5.854   4.923   0.417 -1.9137  0.7421  1.3947
 7203TIP3   OH245803   2.953   5.524   6.883 -0.3616  0.3775  0.4154
 7203TIP3    H145804   2.929   5.616   6.893  0.9145  0.5568  2.5459
 7203TIP3    H245805   2.929   5.484   6.967 -1.3112 -1.3736 -0.6217
 7204TIP3   OH245806   7.600   6.823   8.645 -0.1229  0.1481 -0.2190
 7204TIP3    H145807   7.613   6.909   8.605  0.2522 -0.2940 -1.0652
 7204TIP3    H245808   7.615   6.838   8.738  0.9706  0.8085 -0.4799
 7205TIP3   OH245809   0.557   5.300   9.829 -0.3256  0.1045 -0.1080
 7205TIP3    H145810   0.539   5.252   9.748  0.0984 -1.4581  0.6701
 7205TIP3    H245811   0.536   5.237   9.899 -1.5103  1.6857  1.0323
 7206TIP3   OH245812   2.233   7.233   8.874  0.1482  0.4017  0.1679
 7206TIP3    H145813   2.312   7.280   8.846 -1.4848  2.2926 -1.5445
 7206TIP3    H245814   2.250   7.142   8.849  2.5652  0.3207  1.7038
 7207TIP3   OH245815   0.549   2.774   1.823  0.1277  0.3004 -0.2443
 7207TIP3    H145816   0.525   2.684   1.846 -0.5537  1.1052  2.5462
 7207TIP3    H245817   0.466   2.814   1.796  0.5616 -0.0416 -2.2791
 7208TIP3   OH245818   2.312   0.412   7.727  0.0341  0.0899  0.1666
 7208TIP3    H145819   2.300   0.448   7.815 -3.6606 -1.5247  0.4956
 7208TIP3    H245820   2.368   0.335   7.740 -0.0869  0.1377  1.0216
 7209TIP3   OH245821   2.765   0.194   7.265 -0.2189  0.0454  0.2210
 7209TIP3    H145822   2.777   0.245   7.185  0.0971  1.5233  1.1659
 7209TIP3    H245823   2.854   0.172   7.294 -0.3056 -0.0065  0.4544
 7210TIP3   OH245824   0.200   0.426   1.671  0.2023 -0.0560  0.0815
 7210TIP3    H145825   0.140   0.385   1.609 -1.0255 -1.0468  1.8438
 7210TIP3    H245826   0.268   0.360   1.684  0.1621 -0.0720  0.2087
 7211TIP3   OH245827   2.768   6.680   9.217 -0.1034 -0.5539  0.1222
 7211TIP3    H145828   2.805   6.646   9.298  1.3912  1.1424  0.2113
 7211TIP3    H245829   2.841   6.724   9.174 -1.4252  0.6364 -1.0123
 7212TIP3   OH245830   2.476   1.822   2.774 -0.3114 -0.1851  0.1653
 7212TIP3    H145831   2.499   1.775   2.854  1.1728  0.6598  0.2740
 7212TIP3    H245832   2.514   1.771   2.703 -1.0979 -0.6040  0.0301
 7213TIP3   OH245833   4.470   2.342   0.085 -0.0433 -0.6601 -0.3273
 7213TIP3    H145834   4.503   2.274   0.144 -0.8479 -0.1732  0.7179
 7213TIP3    H245835   4.547   2.371   0.037  0.7232 -0.7515  0.8149
 7214TIP3   OH245836   7.094   6.964   0.392 -0.1124  0.1300 -1.0059
 7214TIP3    H145837   7.184   6.989   0.369  0.1914 -1.8042 -2.0915
 7214TIP3    H245838   7.084   6.876   0.358 -2.0079 -0.2167  0.2939
 7215TIP3   OH245839   5.407   3.285   0.056  0.6342  0.1691 -0.1788
 7215TIP3    H145840   5.467   3.256   0.125 -1.3654  0.0245  1.6142
 7215TIP3    H245841   5.394   3.379   0.072  0.8582  0.3432 -0.9537
 7216TIP3   OH245842   3.620   1.187   0.911  0.4152 -0.0771 -0.2117
 7216TIP3    H145843   3.582   1.117   0.858 -0.9231  0.2239  0.3267
 7216TIP3    H245844   3.667   1.242   0.847 -0.1190 -0.4046 -0.8998
 7217TIP3   OH245845  -0.023   3.465   0.455  0.0558 -0.0862 -0.1481
 7217TIP3    H145846  -0.117   3.484   0.444  0.1277 -0.0160 -0.6827
 7217TIP3    H245847  -0.008   3.387   0.401  0.0021 -1.0243  1.1294
 7218TIP3   OH245848   4.465   0.355   0.053 -0.0345  0.1243  0.1478
 7218TIP3    H145849   4.393   0.342  -0.009 -0.1118 -0.3997  0.3373
 7218TIP3    H245850   4.451   0.443   0.088  0.5135  0.7813 -1.2163
 7219TIP3   OH245851   0.268   5.661   6.811 -0.0590  0.4340  0.0104
 7219TIP3    H145852   0.284   5.730   6.875  1.7216 -1.1079  1.3619
 7219TIP3    H245853   0.337   5.674   6.745  0.2315  0.0262  0.2272
 7220TIP3   OH245854   0.490   2.062   1.423  1.2095  0.5742 -0.4077
 7220TIP3    H145855   0.576   2.053   1.464  0.9879  0.1454 -0.0289
 7220TIP3    H245856   0.509   2.069   1.329  1.6022 -0.6481 -0.4431
 7221TIP3   OH245857   2.138   7.287   1.698  0.1939  0.3789 -0.1670
 7221TIP3    H145858   2.152   7.379   1.676  0.9136  0.3174 -0.0013
 7221TIP3    H245859   2.079   7.254   1.630 -0.8746  1.2047  0.3285
 7222TIP3   OH245860   3.306   6.775   2.013 -0.0759 -0.0618  0.0842
 7222TIP3    H145861   3.251   6.795   1.937 -0.5915  0.9490  0.7095
 7222TIP3    H245862   3.247   6.734   2.076 -0.1510  1.0805  0.7786
 7223TIP3   OH245863   1.161   4.315   8.338 -0.0416  0.1564 -0.3440
 7223TIP3    H145864   1.248   4.285   8.312 -0.0569  0.4398 -0.7280
 7223TIP3    H245865   1.173   4.406   8.362  0.0568 -0.2085  1.0919
 7224TIP3   OH245866   1.110   1.189   9.928 -0.5656  0.0680 -0.1115
 7224TIP3    H145867   1.111   1.205   9.833 -1.1397  0.8319  0.0082
 7224TIP3    H245868   1.046   1.251   9.962 -2.5789 -2.1493  0.4356
 7225TIP3   OH245869   7.287   1.044   9.593  0.1072 -0.5426 -0.0374
 7225TIP3    H145870   7.318   1.057   9.683 -0.3806 -1.0984  0.2238
 7225TIP3    H245871   7.367   1.040   9.541  0.3540  1.4339  0.1139
 7226TIP3   OH245872   1.678   7.179   8.375 -0.1242  0.4309  0.2108
 7226TIP3    H145873   1.759   7.230   8.379  1.2157 -1.5090 -0.2826
 7226TIP3    H245874   1.631   7.202   8.455  1.5851  0.6081  1.2210
 7227TIP3   OH245875   1.129   3.678   2.390  0.2374  0.0704  0.0801
 7227TIP3    H145876   1.126   3.769   2.362 -0.5141 -0.1280 -0.5116
 7227TIP3    H245877   1.099   3.628   2.314  0.6431 -0.6737  0.3916
 7228TIP3   OH245878   2.034   5.187   8.309 -0.1617 -0.0378 -0.1552
 7228TIP3    H145879   2.028   5.244   8.385  0.6964 -1.7575  1.2882
 7228TIP3    H245880   2.128   5.181   8.291 -0.1294 -1.7781  0.4103
 7229TIP3   OH245881   5.915   2.220   0.554  0.3562 -0.0310  0.3536
 7229TIP3    H145882   5.988   2.158   0.552  1.0648  0.7296 -2.3642
 7229TIP3    H245883   5.942   2.287   0.617  1.1981 -0.6627  0.6838
 7230TIP3   OH245884   1.880   2.364   9.204  0.1871  0.1273 -0.1276
 7230TIP3    H145885   1.939   2.291   9.223  0.4031 -0.0308 -1.3422
 7230TIP3    H245886   1.919   2.438   9.251  2.0298  0.2963 -1.7987
 7231TIP3   OH245887   2.512   4.454   9.699  0.4333  0.0914 -0.1387
 7231TIP3    H145888   2.452   4.422   9.633  2.1029 -0.7531 -1.3123
 7231TIP3    H245889   2.500   4.395   9.774 -1.7644  1.3080  0.5660
 7232TIP3   OH245890   4.512   2.989   0.299 -0.6440 -0.2883 -0.8188
 7232TIP3    H145891   4.473   3.003   0.385  0.6357  1.0276 -0.4100
 7232TIP3    H245892   4.572   3.063   0.288 -1.7482  0.3258 -3.4037
 7233TIP3   OH245893   6.658   3.831   2.550 -0.0972 -0.3366 -0.4845
 7233TIP3    H145894   6.620   3.799   2.631  1.8624 -2.7281 -0.3940
 7233TIP3    H245895   6.689   3.919   2.571 -1.3626 -0.1629  0.7515
 7234TIP3   OH245896   7.108   7.351   9.495 -0.1697 -0.3643 -0.3054
 7234TIP3    H145897   7.203   7.354   9.484 -0.2886  1.9924 -1.2588
 7234TIP3    H245898   7.073   7.334   9.408 -0.6313 -2.0938  0.1890
 7235TIP3   OH245899   6.957   5.174   8.875 -0.2884  0.3572  0.4640
 7235TIP3    H145900   6.971   5.133   8.789  1.5010  1.0585  0.3741
 7235TIP3    H245901   6.903   5.111   8.923  1.6695 -1.7874  0.0616
 7236TIP3   OH245902   4.417   2.615   0.362 -0.1449 -0.8165 -1.0748
 7236TIP3    H145903   4.510   2.636   0.372 -0.5843  0.8264  0.1754
 7236TIP3    H245904   4.399   2.630   0.269  0.7087 -0.5175 -1.2035
 7237TIP3   OH245905   6.217   0.398   2.461 -0.9799 -0.1855  0.2678
 7237TIP3    H145906   6.225   0.467   2.395 -0.1960 -0.8440 -0.3574
 7237TIP3    H245907   6.194   0.443   2.542  1.7212  1.0979  0.4161
 7238TIP3   OH245908   1.694   0.324   9.185  0.0274  0.0259  0.1061
 7238TIP3    H145909   1.636   0.399   9.199 -0.3016 -0.3120  0.5717
 7238TIP3    H245910   1.658   0.255   9.240  1.1313 -0.0664  0.7336
 7239TIP3   OH245911   6.211   4.106   1.317  0.0547 -0.3420  0.3053
 7239TIP3    H145912   6.180   4.193   1.292  1.8403  0.2912  0.1808
 7239TIP3    H245913   6.193   4.052   1.240 -0.2430  0.1197  0.0450
 7240TIP3   OH245914   7.271   5.726   2.567  0.3984 -0.3775 -0.5884
 7240TIP3    H145915   7.186   5.707   2.607  0.5183  0.8285  0.3110
 7240TIP3    H245916   7.333   5.715   2.639  1.3743 -3.6045 -1.7731
 7241TIP3   OH245917   2.286   7.667   7.264 -0.1393 -0.8486  0.7202
 7241TIP3    H145918   2.256   7.725   7.194  0.7306 -1.1881  0.0474
 7241TIP3    H245919   2.226   7.593   7.260 -1.4068  0.0661  1.7370
 7242TIP3   OH245920   5.247   4.635   9.436  0.3888 -0.3467  0.5548
 7242TIP3    H145921   5.318   4.572   9.451  0.8750  0.2083  0.6448
 7242TIP3    H245922   5.244   4.687   9.517  2.0550  1.7322 -0.6012
 7243TIP3   OH245923   4.925   1.724   8.588  0.1532  0.2527  0.3094
 7243TIP3    H145924   4.907   1.692   8.500 -3.3607  0.2053  0.9182
 7243TIP3    H245925   5.019   1.711   8.600  0.6236 -0.3365 -3.1501
 7244TIP3   OH245926   2.509   2.491   2.424 -0.2453 -0.7650  0.1039
 7244TIP3    H145927   2.580   2.555   2.426 -1.2229  0.3951 -0.8334
 7244TIP3    H245928   2.483   2.481   2.516 -0.2321  0.3677  0.2362
 7245TIP3   OH245929   2.501   0.738   9.724  0.4325 -0.5242 -0.3940
 7245TIP3    H145930   2.500   0.651   9.766 -3.0266  0.1398  1.2431
 7245TIP3    H245931   2.502   0.799   9.797 -1.4957  0.7376 -1.3613
 7246TIP3   OH245932   0.312   1.408   8.202  0.5937  0.0716  0.4381
 7246TIP3    H145933   0.323   1.357   8.282  1.1335  0.6956  0.7737
 7246TIP3    H245934   0.350   1.354   8.133  1.2862  0.0740  0.8148
 7247TIP3   OH245935   5.543   1.807   2.640 -0.0597  0.0422  0.2780
 7247TIP3    H145936   5.566   1.861   2.565 -0.4668 -1.7690 -1.2401
 7247TIP3    H245937   5.627   1.776   2.674  0.1195  0.6668  0.4079
 7248TIP3   OH245938   1.273   0.418   1.624 -0.2201  0.5286 -0.0296
 7248TIP3    H145939   1.297   0.452   1.538  2.9489  1.3007  1.0425
 7248TIP3    H245940   1.290   0.491   1.685  0.2915 -0.8416  1.5505
 7249TIP3   OH245941   1.900   0.755   7.973 -0.2776 -0.2226 -0.3866
 7249TIP3    H145942   1.829   0.778   7.913 -1.3579 -0.2004  0.8358
 7249TIP3    H245943   1.858   0.700   8.039  0.6848  0.3420  0.7428
 7250TIP3   OH245944   3.258   3.106   9.155  0.3448 -0.1744 -0.9455
 7250TIP3    H145945   3.194   3.162   9.198 -1.9298 -1.2198 -2.8019
 7250TIP3    H245946   3.312   3.073   9.227 -2.7693 -1.2065  1.1182
 7251TIP3   OH245947   6.569   2.583   9.230 -0.1280 -0.1535  0.3860
 7251TIP3    H145948   6.626   2.630   9.168 -1.0580  1.4669  0.7031
 7251TIP3    H245949   6.486   2.574   9.184 -2.0270  4.2037  2.4374
 7252TIP3   OH245950   6.714   1.678   0.362  0.1697  0.2450  0.1688
 7252TIP3    H145951   6.623   1.701   0.341  0.4423  0.4772 -0.8388
 7252TIP3    H245952   6.764   1.713   0.288  1.1749  0.8548  1.1116
 7253TIP3   OH245953   6.806   6.205   9.616 -0.4339 -0.2074 -0.4665
 7253TIP3    H145954   6.717   6.185   9.646  0.2252 -0.5180  1.3671
 7253TIP3    H245955   6.828   6.287   9.659  1.1327 -1.4737  1.2668
 7254TIP3   OH245956   3.815   6.696   9.398  0.8554 -0.1148  0.6345
 7254TIP3    H145957   3.752   6.669   9.464  0.4631  2.4359  1.4238
 7254TIP3    H245958   3.894   6.718   9.448  1.0313  0.4596  0.1266
 7255TIP3   OH245959   1.354   7.620   2.020  0.2937 -0.4684 -0.2361
 7255TIP3    H145960   1.320   7.709   2.012  2.1490  0.3148  0.1618
 7255TIP3    H245961   1.371   7.592   1.930 -0.8599 -0.6703 -0.4017
 7256TIP3   OH245962   2.113   4.836   2.017  0.3413  0.1121 -0.2389
 7256TIP3    H145963   2.196   4.882   2.003  0.0651  0.3623 -1.1229
 7256TIP3    H245964   2.063   4.894   2.075  0.8011 -0.0720  0.3512
 7257TIP3   OH245965   1.072   3.248   2.427  0.3466 -0.2742 -0.3860
 7257TIP3    H145966   1.068   3.340   2.455  0.4142 -0.3744 -0.0442
 7257TIP3    H245967   1.159   3.218   2.452 -0.1772 -0.8394  0.8094
 7258TIP3   OH245968   4.639   0.124   7.172 -0.0418 -0.1670 -0.7114
 7258TIP3    H145969   4.667   0.146   7.083  1.4257 -1.4010 -0.5968
 7258TIP3    H245970   4.715   0.142   7.227 -0.5687 -0.4457  0.1382
 7259TIP3   OH245971   6.225   6.903   0.958  0.3182 -0.5633 -0.0528
 7259TIP3    H145972   6.249   6.963   0.888  1.1579  1.2149  1.6614
 7259TIP3    H245973   6.145   6.940   0.996 -0.9395 -2.2806 -0.9088
 7260TIP3   OH245974   5.558   2.015   8.605  0.2911  0.2492 -0.0118
 7260TIP3    H145975   5.550   1.983   8.695 -0.8116  0.4959 -0.0108
 7260TIP3    H245976   5.600   1.943   8.557 -1.4647 -0.9292  0.1444
 7261TIP3   OH245977   3.917   3.897   7.702  0.9518 -0.1788  0.6234
 7261TIP3    H145978   3.943   3.805   7.689 -1.8904 -0.8931 -0.6406
 7261TIP3    H245979   3.905   3.905   7.796  1.4681 -1.0241  0.7750
 7262TIP3   OH245980   0.159   1.841   9.137  0.0023  0.3475  0.0338
 7262TIP3    H145981   0.113   1.817   9.056  0.9832  1.4376 -0.8770
 7262TIP3    H245982   0.228   1.775   9.146 -1.0755 -0.7203  0.8856
 7263TIP3   OH245983   6.866   7.119   7.546  0.5528 -0.2218  0.0508
 7263TIP3    H145984   6.893   7.028   7.559  2.0875  0.1257 -0.5516
 7263TIP3    H245985   6.773   7.113   7.523  1.1462 -1.8427 -2.2362
 7264TIP3   OH245986   3.338   6.479   0.534 -0.2062 -0.1703 -0.0242
 7264TIP3    H145987   3.300   6.405   0.488  0.2428  0.5664 -1.6462
 7264TIP3    H245988   3.276   6.550   0.522  0.0788  0.1283  0.2196
 7265TIP3   OH245989   4.523   6.916   7.842 -0.4307  0.3627 -0.1300
 7265TIP3    H145990   4.430   6.935   7.831 -0.7118 -0.0294  1.4001
 7265TIP3    H245991   4.534   6.899   7.935  1.2373  0.6562 -0.2351
 7266TIP3   OH245992   6.626  -0.008   6.888  1.3639 -0.5728 -0.5957
 7266TIP3    H145993   6.556   0.056   6.902  2.8738  1.2126 -0.7126
 7266TIP3    H245994   6.603  -0.051   6.806 -0.8138 -1.8003  0.5786
 7267TIP3   OH245995   4.421   6.683   1.021 -0.1896  0.0005 -0.2763
 7267TIP3    H145996   4.484   6.659   1.089 -0.3289 -2.4737 -0.9449
 7267TIP3    H245997   4.467   6.668   0.939 -1.1962 -0.5129 -0.7601
 7268TIP3   OH245998   6.780   2.054   7.830 -0.3404  0.5847 -0.3359
 7268TIP3    H145999   6.821   2.016   7.908 -0.1031  1.1388 -0.1897
 7268TIP3    H246000   6.854   2.070   7.771 -0.3929  1.1576 -0.2522
 7269TIP3   OH246001   3.800   0.260   9.085 -0.5283  0.0712 -0.0321
 7269TIP3    H146002   3.811   0.278   9.179  1.2867 -1.8676  0.2164
 7269TIP3    H246003   3.828   0.340   9.041 -1.5163  1.0504  1.0559
 7270TIP3   OH246004   0.981   3.140   0.393 -0.1399  0.2341 -0.1299
 7270TIP3    H146005   1.058   3.085   0.379 -0.4489  0.0363 -1.1127
 7270TIP3    H246006   0.978   3.197   0.316 -0.8602  0.3868  0.0079
 7271TIP3   OH246007   6.643   7.586   9.692 -0.3720  0.1488  0.2941
 7271TIP3    H146008   6.605   7.622   9.772 -1.0945  0.1732 -0.0509
 7271TIP3    H246009   6.737   7.603   9.700 -0.2224 -1.0860  1.7799
 7272TIP3   OH246010   4.346   5.870   7.458  0.1654 -0.3940  0.8897
 7272TIP3    H146011   4.252   5.887   7.457  0.1958 -0.1755  1.4103
 7272TIP3    H246012   4.355   5.783   7.420  0.0886  1.0348 -2.7439
 7273TIP3   OH246013   0.745   3.838   7.468 -0.4471 -0.4115 -0.0698
 7273TIP3    H146014   0.821   3.785   7.443 -0.1428 -0.3848  0.7804
 7273TIP3    H246015   0.773   3.928   7.457  0.3562 -0.3439  2.1867
 7274TIP3   OH246016   2.730   6.074   7.224  0.2035 -0.1293 -0.1854
 7274TIP3    H146017   2.709   6.075   7.131  2.1874 -1.9337 -0.7264
 7274TIP3    H246018   2.825   6.077   7.228  0.1449  0.5312  1.8254
 7275TIP3   OH246019   2.817   2.477   6.763  0.0076  0.5953  0.3326
 7275TIP3    H146020   2.780   2.553   6.808  1.9478  1.6321  0.2855
 7275TIP3    H246021   2.771   2.402   6.800 -1.8427  1.7554  0.5140
 7276TIP3   OH246022   5.451   4.018   8.639  0.0921 -0.6722  0.2226
 7276TIP3    H146023   5.403   4.077   8.582 -1.0850  1.0048  2.7480
 7276TIP3    H246024   5.540   4.016   8.602  0.0316  2.2666 -0.3624
 7277TIP3   OH246025   0.231   7.456   3.055 -0.2354  0.0012 -0.2875
 7277TIP3    H146026   0.158   7.507   3.019  0.0474  1.3888  1.0003
 7277TIP3    H246027   0.199   7.366   3.058 -0.4375 -0.1559 -3.5165
 7278TIP3   OH246028   7.095   3.852   7.777  0.2368  0.4770 -0.1996
 7278TIP3    H146029   7.027   3.864   7.710  0.9190 -1.6731 -1.3664
 7278TIP3    H246030   7.133   3.940   7.787  0.4291  0.8365 -3.0446
 7279TIP3   OH246031   5.789   5.573   0.554 -0.1491 -0.2321  0.1251
 7279TIP3    H146032   5.763   5.482   0.545 -2.1098  0.3411 -0.5857
 7279TIP3    H246033   5.712   5.623   0.527 -0.2284  1.6826  3.3227
 7280TIP3   OH246034   3.363   2.447   1.718  0.0618 -0.2285  0.0151
 7280TIP3    H146035   3.279   2.479   1.684 -0.6809  0.0924  2.0364
 7280TIP3    H246036   3.349   2.437   1.812  2.3696  0.0424  0.4454
 7281TIP3   OH246037   3.592   2.614   8.918 -0.1418 -0.1143 -0.4226
 7281TIP3    H146038   3.648   2.622   8.995 -1.2365 -2.9999  0.8093
 7281TIP3    H246039   3.653   2.605   8.845  0.9668 -0.0314  0.4695
 7282TIP3   OH246040   3.004   5.110   9.128 -0.2104 -0.0013  0.1233
 7282TIP3    H146041   2.918   5.130   9.091 -0.3527 -0.5393  0.1547
 7282TIP3    H246042   3.036   5.194   9.162 -0.2773  0.4050 -0.8037
 7283TIP3   OH246043   3.718   4.414   9.614  0.2364 -0.0215 -0.0901
 7283TIP3    H146044   3.748   4.412   9.523  0.6873  0.3737  0.0447
 7283TIP3    H246045   3.623   4.402   9.608  0.3149 -0.4755 -0.5777
 7284TIP3   OH246046   3.384   1.234   7.324 -0.2504 -0.2788 -0.1361
 7284TIP3    H146047   3.432   1.311   7.294  0.7966  0.1356  2.3684
 7284TIP3    H246048   3.330   1.266   7.397 -1.2013 -1.5717 -0.2310
 7285TIP3   OH246049   5.686   5.418   7.331  0.3821 -0.4133 -0.3129
 7285TIP3    H146050   5.739   5.369   7.268  0.9200  0.2328 -0.3741
 7285TIP3    H246051   5.678   5.505   7.293 -0.9706 -0.5742 -0.4355
 7286TIP3   OH246052   3.666   0.859   9.060  0.1816  0.2586 -0.0512
 7286TIP3    H146053   3.571   0.865   9.052  0.2184 -0.2360 -0.9060
 7286TIP3    H246054   3.695   0.814   8.981  1.1149  0.2392  0.2836
 7287TIP3   OH246055   0.199   7.619   9.058  0.4203  0.2689 -0.2341
 7287TIP3    H146056   0.238   7.551   9.003  3.4434  0.9966  0.7740
 7287TIP3    H246057   0.105   7.608   9.047  0.7797 -3.1988 -1.1105
 7288TIP3   OH246058   2.063   3.574   0.270  0.1709 -0.1168 -0.0233
 7288TIP3    H146059   2.070   3.538   0.359  0.5950 -0.7494 -0.3056
 7288TIP3    H246060   1.971   3.602   0.264 -0.0393 -0.6812  0.3879
 7289TIP3   OH246061   3.063   0.178   1.917 -0.0333 -0.2713  0.1311
 7289TIP3    H146062   3.008   0.164   1.994  0.3548  1.3369  0.7353
 7289TIP3    H246063   3.015   0.242   1.865  0.8291  0.4553  0.2137
 7290TIP3   OH246064   0.965   6.982   1.890 -0.2054  0.1792 -0.1591
 7290TIP3    H146065   0.889   7.040   1.881 -1.4012 -1.5233 -2.0606
 7290TIP3    H246066   0.949   6.935   1.972 -1.5381 -0.4912 -0.7555
 7291TIP3   OH246067   3.170   4.150   8.019 -0.0591 -0.0934 -0.0006
 7291TIP3    H146068   3.089   4.109   7.987 -0.0185  0.9607 -1.6131
 7291TIP3    H246069   3.173   4.235   7.974  0.0294  1.5955  2.9239
 7292TIP3   OH246070   7.190   5.509   1.816 -0.1250  0.0290 -0.4487
 7292TIP3    H146071   7.257   5.500   1.749  0.3573  0.0175  0.0325
 7292TIP3    H246072   7.107   5.494   1.769  0.1855  0.2938 -1.0898
 7293TIP3   OH246073   6.226   5.571   9.041 -0.6018  0.3338 -0.1849
 7293TIP3    H146074   6.153   5.545   9.097 -0.0036  0.3850  0.6419
 7293TIP3    H246075   6.187   5.586   8.955 -1.2792 -1.4588 -0.2326
 7294TIP3   OH246076   3.798   5.062   9.343 -0.3674  0.6869 -0.1037
 7294TIP3    H146077   3.778   5.056   9.249  0.3723  1.1825 -0.3018
 7294TIP3    H246078   3.730   5.119   9.378 -0.0185  1.3915 -0.5494
 7295TIP3   OH246079   5.997   0.248   8.997  0.2280  0.1528 -0.5297
 7295TIP3    H146080   6.016   0.284   9.083  0.8522 -2.6227  0.5697
 7295TIP3    H246081   5.926   0.186   9.011  0.4081 -0.4309 -1.9917
 7296TIP3   OH246082   6.570   1.873   7.049 -0.1322  0.6736 -0.3598
 7296TIP3    H146083   6.612   1.959   7.046  0.5165  0.4117  0.6137
 7296TIP3    H246084   6.632   1.819   7.098 -0.8854 -0.1509 -0.3104
 7297TIP3   OH246085   2.104   5.705   0.736  0.5401 -0.3903 -0.1397
 7297TIP3    H146086   2.094   5.729   0.644  0.3796  1.6844  0.3744
 7297TIP3    H246087   2.086   5.786   0.784 -2.5371 -2.0769  1.9158
 7298TIP3   OH246088   5.680   1.271   7.564  0.2472 -0.4281  0.7048
 7298TIP3    H146089   5.625   1.292   7.640 -1.4108  0.4589 -0.6569
 7298TIP3    H246090   5.644   1.326   7.494  3.3788  0.7776 -0.1154
 7299TIP3   OH246091   3.151   0.516   1.847 -0.2138  0.0530  0.3294
 7299TIP3    H146092   3.130   0.571   1.772 -0.2013 -0.1854  0.1497
 7299TIP3    H246093   3.068   0.475   1.871 -0.0965 -0.3636  0.0439
 7300TIP3   OH246094   7.284   0.077   8.876 -0.1003 -0.2285  0.9157
 7300TIP3    H146095   7.362   0.075   8.820  1.1877 -2.3286  2.6298
 7300TIP3    H246096   7.259  -0.014   8.886 -3.9182  0.4383 -0.8996
 7301TIP3   OH246097   6.158   6.616   2.362  0.4048 -0.1076  0.1871
 7301TIP3    H146098   6.139   6.628   2.269  0.2522  0.2587  0.2653
 7301TIP3    H246099   6.231   6.554   2.364 -1.7150 -2.7740 -0.0904
 7302TIP3   OH246100   6.778   0.015   8.123 -0.2012 -0.5070 -0.3523
 7302TIP3    H146101   6.848  -0.018   8.066 -0.0126 -3.2949  1.3421
 7302TIP3    H246102   6.698   0.004   8.070  0.3650  0.9077 -1.5820
 7303TIP3   OH246103   7.602   6.796   8.920  0.1902  0.4260  0.6204
 7303TIP3    H146104   7.514   6.827   8.937  0.1398  0.4354  0.3454
 7303TIP3    H246105   7.644   6.792   9.006 -0.7120 -1.5388  1.0375
 7304TIP3   OH246106   5.721   0.688   0.821  0.4717  0.1266  0.2415
 7304TIP3    H146107   5.659   0.703   0.892 -1.1060 -0.3967 -0.9585
 7304TIP3    H246108   5.726   0.593   0.813 -0.0293  0.1758 -0.8698
 7305TIP3   OH246109   3.024   7.078   8.925 -0.1413  0.4575  0.0367
 7305TIP3    H146110   3.059   7.162   8.957  0.0313 -0.2199  1.6994
 7305TIP3    H246111   3.102   7.024   8.910 -0.2255  0.7086 -1.4820
 7306TIP3   OH246112   2.536   6.087   0.751 -0.1788  0.0746 -0.2489
 7306TIP3    H146113   2.508   6.012   0.698  0.1764 -0.2187 -0.0316
 7306TIP3    H246114   2.550   6.157   0.688 -1.3253  0.2143 -0.3663
 7307TIP3   OH246115   4.477   2.764   1.204 -0.1471 -0.2453  0.2610
 7307TIP3    H146116   4.484   2.763   1.299 -0.9106  1.2786  0.3711
 7307TIP3    H246117   4.567   2.755   1.173  0.0956 -0.8859  1.1146
 7308TIP3   OH246118   0.306   5.060   8.899  0.1059  0.0811  0.0819
 7308TIP3    H146119   0.265   4.979   8.870  0.0677 -0.3967  1.4003
 7308TIP3    H246120   0.376   5.076   8.836 -0.1410 -0.7626 -0.4192
 7309TIP3   OH246121   5.378   1.454   7.510 -0.2315 -0.1974  0.7533
 7309TIP3    H146122   5.373   1.394   7.584  0.2147 -0.2031  0.7799
 7309TIP3    H246123   5.387   1.540   7.549 -2.1030  0.0523  0.7480
 7310TIP3   OH246124   6.633   3.027   1.834  0.4541  0.3445 -0.4417
 7310TIP3    H146125   6.629   3.021   1.739 -0.7371 -0.9534 -0.3530
 7310TIP3    H246126   6.673   3.112   1.852  1.7278  0.1321 -2.0925
 7311TIP3   OH246127   3.086   1.634   1.864  0.2584  0.2244 -0.3637
 7311TIP3    H146128   3.142   1.582   1.806  0.1111  0.5118 -0.7687
 7311TIP3    H246129   3.148   1.682   1.920  0.4497  1.1195 -1.3144
 7312TIP3   OH246130   7.525   7.596   7.640  0.0825 -0.1104 -0.2788
 7312TIP3    H146131   7.517   7.643   7.557  0.9439  0.7707  0.1136
 7312TIP3    H246132   7.436   7.590   7.674 -0.1294  0.5644 -0.7121
 7313TIP3   OH246133   2.280   6.850   7.156  0.1974  0.1898  0.5362
 7313TIP3    H146134   2.349   6.879   7.216 -0.0899  0.1154  0.9057
 7313TIP3    H246135   2.326   6.797   7.091  0.4975  0.1847  0.7481
 7314TIP3   OH246136   1.701   7.018   1.915 -0.1226  0.3222 -0.1942
 7314TIP3    H146137   1.780   6.988   1.869 -0.3548 -0.4097 -0.1258
 7314TIP3    H246138   1.727   7.102   1.955  0.4312  0.3881 -0.6846
 7315TIP3   OH246139   6.969   0.267   6.953 -0.1831  0.1665  0.3082
 7315TIP3    H146140   7.053   0.270   6.907 -0.1944  0.8055  0.3161
 7315TIP3    H246141   6.945   0.175   6.954  0.4179  0.0050  0.1165
 7316TIP3   OH246142   1.886   4.845   1.060  0.5011 -0.0446 -0.3078
 7316TIP3    H146143   1.842   4.918   1.018 -0.1057 -0.2402 -0.0226
 7316TIP3    H246144   1.977   4.875   1.072  0.1988  0.7582  0.0383
 7317TIP3   OH246145   4.163   4.805   8.892  0.2682  0.4111  0.0394
 7317TIP3    H146146   4.179   4.714   8.864  0.7476  0.2760  0.7291
 7317TIP3    H246147   4.147   4.799   8.986 -1.2425  0.8741 -0.1607
 7318TIP3   OH246148   2.190   6.227   2.514 -0.8252  0.3413  0.5450
 7318TIP3    H146149   2.101   6.224   2.548 -0.6626  3.0204  1.4397
 7318TIP3    H246150   2.199   6.316   2.478  1.9631  0.7572  1.9790
 7319TIP3   OH246151   3.048   2.697   1.990  0.1663 -0.1444  0.0217
 7319TIP3    H146152   3.011   2.761   1.930  0.1878 -1.2891 -1.2732
 7319TIP3    H246153   3.086   2.749   2.061 -0.8927  1.1935 -0.3580
 7320TIP3   OH246154   0.269   4.448   9.549  0.1691 -0.3855 -0.0417
 7320TIP3    H146155   0.326   4.441   9.625 -3.7521  0.0009  3.2375
 7320TIP3    H246156   0.225   4.364   9.544  1.0229 -0.7813 -2.6720
 7321TIP3   OH246157   0.068   0.891   8.750  0.5604 -0.6550 -0.0976
 7321TIP3    H146158  -0.026   0.900   8.742  0.4515 -1.5003  0.1399
 7321TIP3    H246159   0.100   0.980   8.769 -0.2750 -0.5233  0.7182
 7322TIP3   OH246160   3.129   3.313   0.930  0.4122  0.5178 -0.2923
 7322TIP3    H146161   3.114   3.403   0.959  1.3721  0.7217 -0.3756
 7322TIP3    H246162   3.137   3.320   0.834 -2.3425 -0.0920 -0.6470
 7323TIP3   OH246163   2.637   5.110   0.297 -0.1426  0.1278 -0.1119
 7323TIP3    H146164   2.576   5.061   0.351  0.8715 -2.4065 -1.0818
 7323TIP3    H246165   2.717   5.115   0.350 -0.1037  0.3269 -0.1891
 7324TIP3   OH246166   3.166   1.758   7.828 -0.0097 -0.3542  0.2659
 7324TIP3    H146167   3.234   1.738   7.893 -1.9802 -1.0862  2.2197
 7324TIP3    H246168   3.165   1.682   7.770  0.2641 -0.7283  0.7386
 7325TIP3   OH246169   4.280   4.686   8.372  0.1132 -0.4622 -0.1546
 7325TIP3    H146170   4.348   4.659   8.433 -0.4192 -0.1005  0.6181
 7325TIP3    H246171   4.214   4.616   8.377 -0.6059  0.2494  0.7942
 7326TIP3   OH246172   5.037   4.846   7.739 -0.0801  0.5579 -0.6805
 7326TIP3    H146173   5.010   4.778   7.677  1.1494 -2.2238  1.5936
 7326TIP3    H246174   5.130   4.859   7.721 -0.3901  1.9937 -1.3491
 7327TIP3   OH246175   3.468   2.967   1.011 -0.1606 -0.1725 -0.0020
 7327TIP3    H146176   3.378   2.934   1.008 -0.8508  1.6855 -2.2647
 7327TIP3    H246177   3.461   3.060   0.992  2.2297  0.1502  0.3326
 7328TIP3   OH246178   3.235   7.235   1.420  1.0344  0.2550 -0.2267
 7328TIP3    H146179   3.228   7.160   1.361  0.5477 -1.4336  1.8865
 7328TIP3    H246180   3.321   7.226   1.460  0.9717  0.8468  0.0412
 7329TIP3   OH246181   1.246   4.890   8.417  0.9365 -0.5982 -0.4371
 7329TIP3    H146182   1.300   4.913   8.341 -1.1653  0.8739 -1.5832
 7329TIP3    H246183   1.169   4.848   8.380 -0.7868  1.3816  0.6737
 7330TIP3   OH246184   2.084   7.564   8.575  0.7624  0.6333 -0.3612
 7330TIP3    H146185   2.049   7.508   8.644  1.4440  1.4540  0.6887
 7330TIP3    H246186   2.179   7.556   8.584  0.8562  0.7747 -1.1894
 7331TIP3   OH246187   2.675   4.220   0.112  0.3804 -0.2453  0.1922
 7331TIP3    H146188   2.678   4.146   0.172  1.8190 -1.8123 -1.6908
 7331TIP3    H246189   2.742   4.201   0.046 -0.3798  1.9011 -1.3296
 7332TIP3   OH246190   3.802   7.160   1.778  0.7219 -0.0774  0.5609
 7332TIP3    H146191   3.761   7.232   1.731  0.7245  0.3415  1.1927
 7332TIP3    H246192   3.892   7.188   1.793  0.4959  0.1533  1.5431
 7333TIP3   OH246193   2.598   2.315   1.615  0.4458  0.4192 -0.3869
 7333TIP3    H146194   2.669   2.275   1.565  1.7511 -0.4010  1.9430
 7333TIP3    H246195   2.612   2.409   1.606  1.5336  0.2718 -0.3905
 7334TIP3   OH246196   6.804   0.271   8.450 -0.2288  0.5027  0.2372
 7334TIP3    H146197   6.757   0.284   8.367  0.1930 -0.4857 -0.1770
 7334TIP3    H246198   6.797   0.177   8.467 -0.5353  0.7296  1.4773
 7335TIP3   OH246199   1.845   4.495   8.292 -0.6156 -0.3976  0.3201
 7335TIP3    H146200   1.924   4.462   8.249 -0.5990 -0.8255  0.6708
 7335TIP3    H246201   1.787   4.419   8.297 -0.5396 -0.4038  1.2267
 7336TIP3   OH246202   1.277   3.570   1.534 -0.0384 -0.3980  0.3017
 7336TIP3    H146203   1.189   3.597   1.506 -0.1373 -1.1014 -0.0801
 7336TIP3    H246204   1.308   3.643   1.588  0.1507  1.0280 -1.6273
 7337TIP3   OH246205   4.371   4.366   9.576 -0.3224  0.1394  0.2264
 7337TIP3    H146206   4.343   4.299   9.514  1.6660 -1.8627  1.3766
 7337TIP3    H246207   4.463   4.380   9.557 -0.3447  1.4877  0.9838
 7338TIP3   OH246208   2.628   2.314   6.869 -0.0407 -0.2346  0.2702
 7338TIP3    H146209   2.537   2.286   6.863  0.0947 -0.8150  0.8868
 7338TIP3    H246210   2.663   2.268   6.945  0.3347  1.2105  1.0184
 7339TIP3   OH246211   5.877   6.156   0.798 -0.4743 -0.4286 -0.1802
 7339TIP3    H146212   5.936   6.163   0.723 -0.2912 -0.9684 -0.0851
 7339TIP3    H246213   5.834   6.242   0.802 -1.1288 -0.6736 -1.4412
 7340TIP3   OH246214   2.671   6.232   2.957 -0.6267 -0.2824 -0.8792
 7340TIP3    H146215   2.672   6.324   2.983 -0.8884 -0.3335 -0.6791
 7340TIP3    H246216   2.735   6.226   2.887  2.2689 -0.6945  1.5940
 7341TIP3   OH246217   7.489   1.195   0.446 -0.0182 -0.4543 -0.4382
 7341TIP3    H146218   7.582   1.196   0.466 -0.4992 -1.0946  2.2103
 7341TIP3    H246219   7.484   1.210   0.352  2.5150  3.9735 -0.1320
 7342TIP3   OH246220   4.478   4.333   8.328  0.6596  0.0376  0.4062
 7342TIP3    H146221   4.520   4.249   8.347 -0.3297 -0.4649  0.4185
 7342TIP3    H246222   4.423   4.350   8.404 -0.6757 -0.2918 -0.4539
 7343TIP3   OH246223   5.804   1.973   1.560  0.0032  0.5219 -0.2548
 7343TIP3    H146224   5.826   1.925   1.640 -0.5279  0.7510  0.0278
 7343TIP3    H246225   5.801   1.905   1.492  0.3508  0.3129 -0.0656
 7344TIP3   OH246226   6.089   2.927   1.290 -0.2127  0.9758 -0.2160
 7344TIP3    H146227   6.069   2.977   1.369  0.4592 -1.0028  1.2967
 7344TIP3    H246228   6.185   2.928   1.284 -0.0140 -1.7047  1.0484
 7345TIP3   OH246229   6.972   5.094   7.837  0.1488 -0.1305  0.1685
 7345TIP3    H146230   6.903   5.044   7.793  1.0214 -1.7239  0.5460
 7345TIP3    H246231   7.013   5.145   7.767 -0.1830 -0.6127 -0.3832
 7346TIP3   OH246232   0.923   5.649   7.428  0.5819 -0.0943 -0.3257
 7346TIP3    H146233   0.901   5.566   7.385 -0.4549 -1.1717  2.0936
 7346TIP3    H246234   0.853   5.709   7.401 -0.3898 -0.9240  0.2535
 7347TIP3   OH246235   6.729   6.784   0.224 -0.4432 -0.6528 -0.1559
 7347TIP3    H146236   6.805   6.842   0.232 -0.5890 -0.2399 -1.4597
 7347TIP3    H246237   6.681   6.796   0.305 -0.6038  1.2752 -0.4885
 7348TIP3   OH246238   7.574   3.753   9.504 -0.3097 -0.0754  0.1037
 7348TIP3    H146239   7.510   3.694   9.543 -0.8365 -0.3469 -1.1398
 7348TIP3    H246240   7.545   3.765   9.413  1.0514  0.2867 -0.3148
 7349TIP3   OH246241   6.698   3.199   9.774 -0.2091 -0.1062  0.0750
 7349TIP3    H146242   6.704   3.113   9.816  2.1482 -0.4186 -0.7200
 7349TIP3    H246243   6.747   3.188   9.692  0.5967  2.1136  0.2128
 7350TIP3   OH246244   3.921   6.352   7.035  0.4771 -0.3219 -0.5076
 7350TIP3    H146245   3.907   6.279   6.974  0.7114  0.6837 -1.7997
 7350TIP3    H246246   3.946   6.425   6.980  1.6532  0.3858  0.9092
 7351TIP3   OH246247   3.035   0.080   7.836  0.3338  0.5594 -0.5046
 7351TIP3    H146248   3.113   0.109   7.789  0.6493  0.0077 -0.3296
 7351TIP3    H246249   3.024   0.144   7.906  2.1313 -0.7224  1.0555
 7352TIP3   OH246250   7.654   2.568   2.268 -0.0824  0.0323 -0.6506
 7352TIP3    H146251   7.609   2.623   2.204 -0.8802 -1.1778 -1.1859
 7352TIP3    H246252   7.667   2.485   2.221 -0.5757 -0.8407  0.7159
 7353TIP3   OH246253   4.824   7.457   1.818  0.1681  0.0903  0.0621
 7353TIP3    H146254   4.880   7.401   1.872 -0.7690 -2.7612 -1.6770
 7353TIP3    H246255   4.876   7.474   1.739 -0.2455 -0.0124 -0.2399
 7354TIP3   OH246256   3.937   5.381   9.209  0.2910 -0.0580 -0.1495
 7354TIP3    H146257   3.923   5.305   9.153  1.3904 -0.1586 -0.3133
 7354TIP3    H246258   3.898   5.356   9.293 -0.9658 -0.0782 -0.7214
 7355TIP3   OH246259   7.171   0.353   1.368  0.6799 -0.4881 -0.1284
 7355TIP3    H146260   7.206   0.377   1.454  0.2905 -3.6438  1.0392
 7355TIP3    H246261   7.234   0.290   1.333 -0.6199 -1.4345 -0.8409
 7356TIP3   OH246262   4.480   4.021   9.127  0.5619  0.3580  0.4880
 7356TIP3    H146263   4.451   3.946   9.180  1.2256 -0.8783 -0.8200
 7356TIP3    H246264   4.457   3.997   9.037 -0.9085  2.5869  0.1901
 7357TIP3   OH246265   2.138   1.706   2.604 -0.5160 -0.1047 -0.2457
 7357TIP3    H146266   2.159   1.615   2.582 -2.2690 -0.2931 -1.3654
 7357TIP3    H246267   2.151   1.711   2.699 -1.2223 -1.7769 -0.0221
 7358TIP3   OH246268   4.296   0.634   9.388  0.2043  0.2542  0.2467
 7358TIP3    H146269   4.376   0.672   9.423  0.3212  0.3510 -0.1293
 7358TIP3    H246270   4.315   0.617   9.296 -0.9069  2.3391 -0.4385
 7359TIP3   OH246271   7.181   0.519   6.867  0.5377  0.4399 -0.2910
 7359TIP3    H146272   7.239   0.484   6.935 -0.3483  0.4868  0.5112
 7359TIP3    H246273   7.176   0.450   6.801  0.1970 -0.2322  0.4335
 7360TIP3   OH246274   4.521   2.742   7.448 -0.2560  0.5106 -0.3964
 7360TIP3    H146275   4.492   2.767   7.360 -0.5927  0.9148 -0.1699
 7360TIP3    H246276   4.547   2.650   7.438  1.0711  0.9570 -1.2408
 7361TIP3   OH246277   6.591   4.633   8.676 -0.3621  0.0710 -0.1343
 7361TIP3    H146278   6.664   4.694   8.689  0.3519  0.0169 -3.1146
 7361TIP3    H246279   6.629   4.546   8.689  0.5018 -0.0186 -2.5879
 7362TIP3   OH246280   6.194   6.809   7.721 -0.2249 -0.1015 -0.5794
 7362TIP3    H146281   6.263   6.870   7.698 -1.0304  0.9135 -0.3956
 7362TIP3    H246282   6.224   6.724   7.689  0.6328  0.5038 -1.4086
 7363TIP3   OH246283   0.120   6.179   1.526 -0.2486 -0.3696  0.1376
 7363TIP3    H146284   0.045   6.120   1.517 -1.6155  1.3713 -0.3826
 7363TIP3    H246285   0.086   6.265   1.503  1.3396  0.8892  2.1159
 7364TIP3   OH246286   0.280   2.496   7.884 -0.0728  0.3897  0.1698
 7364TIP3    H146287   0.253   2.528   7.797  0.1957 -0.5234 -0.2534
 7364TIP3    H246288   0.271   2.573   7.940  0.1005  1.0953 -0.7346
 7365TIP3   OH246289   3.120   1.268   8.525  0.6169 -0.1810  0.0341
 7365TIP3    H146290   3.055   1.198   8.516 -3.1872  3.1127 -1.1965
 7365TIP3    H246291   3.130   1.280   8.619 -0.0187 -1.2252  0.2425
 7366TIP3   OH246292   1.007   1.914   1.858 -1.1639  0.2280 -0.0032
 7366TIP3    H146293   1.039   1.950   1.940 -1.8674 -0.9374  0.8243
 7366TIP3    H246294   1.053   1.962   1.790  0.8152 -0.0149  1.0995
 7367TIP3   OH246295   6.789   1.301   1.630 -0.0816  0.2856  0.0145
 7367TIP3    H146296   6.738   1.323   1.553 -0.9047 -1.3220  0.0424
 7367TIP3    H246297   6.737   1.234   1.675  0.3130  1.2553  2.0334
 7368TIP3   OH246298   3.815   2.559   1.427  0.4579 -0.3902  0.0268
 7368TIP3    H146299   3.809   2.650   1.456  0.2678 -0.2371 -0.4733
 7368TIP3    H246300   3.751   2.512   1.481 -0.3418 -0.0004 -0.5519
 7369TIP3   OH246301   1.413   7.581   8.177  0.0833  0.0275  0.1499
 7369TIP3    H146302   1.404   7.671   8.211 -0.6204 -0.3598  1.0206
 7369TIP3    H246303   1.378   7.526   8.247  1.5656 -1.0186  0.1124
 7370TIP3   OH246304   0.940   4.081   6.297  0.1707 -1.1634  0.0664
 7370TIP3    H146305   1.030   4.110   6.315  0.4600 -1.9514 -0.0591
 7370TIP3    H246306   0.909   4.048   6.381 -1.0137  1.6136  0.8297
 7371TIP3   OH246307   3.376   4.942   8.401 -0.5504 -0.0036 -0.7278
 7371TIP3    H146308   3.402   5.033   8.415 -2.4948  1.0110 -2.8640
 7371TIP3    H246309   3.445   4.906   8.344 -0.7890  0.8180 -1.5698
 7372TIP3   OH246310   3.702   1.329   2.668  0.1787  0.2395 -0.4969
 7372TIP3    H146311   3.727   1.246   2.627  0.5717 -0.0177  0.2555
 7372TIP3    H246312   3.732   1.396   2.606 -1.3798 -0.1899 -1.7918
 7373TIP3   OH246313   4.388   6.589   0.264  0.8536 -0.0240  0.7251
 7373TIP3    H146314   4.392   6.502   0.223  2.4690  0.0468  0.6819
 7373TIP3    H246315   4.296   6.599   0.288  0.5904 -1.6729  0.5724
 7374TIP3   OH246316   2.390   4.886   0.060  0.7154 -0.2076  0.0839
 7374TIP3    H146317   2.431   4.860  -0.022 -0.7414 -0.5121 -0.5774
 7374TIP3    H246318   2.387   4.806   0.112  2.0367  0.0734  0.6609
 7375TIP3   OH246319   1.293   0.264   3.004 -0.1363 -0.4393  0.8862
 7375TIP3    H146320   1.308   0.170   2.996 -0.3879 -0.4762  0.8376
 7375TIP3    H246321   1.207   0.271   3.045 -0.7795 -0.2336 -0.4556
 7376TIP3   OH246322   0.774   6.207   8.304 -0.2079  0.5006 -0.0993
 7376TIP3    H146323   0.837   6.207   8.377  0.2232  0.7403 -0.4682
 7376TIP3    H246324   0.796   6.284   8.253  0.3304 -0.3487 -1.1986
 7377TIP3   OH246325   0.437   3.171   9.160  0.2579  0.0964 -0.7030
 7377TIP3    H146326   0.521   3.207   9.190 -0.9521  1.3616  1.3843
 7377TIP3    H246327   0.422   3.212   9.075  1.6846 -0.0958 -1.0806
 7378TIP3   OH246328   5.493   0.886   0.520 -0.1986 -0.4735  0.1128
 7378TIP3    H146329   5.489   0.848   0.432  0.1604 -1.7353  0.6187
 7378TIP3    H246330   5.486   0.811   0.579  0.3528  0.2716  1.1672
 7379TIP3   OH246331   6.015   2.455   6.911  0.0056  0.7062  0.2179
 7379TIP3    H146332   5.960   2.381   6.885  1.3710 -0.6021  0.9392
 7379TIP3    H246333   5.957   2.511   6.962 -0.2306 -1.7030  2.8219
 7380TIP3   OH246334   1.958   2.127   1.762  0.3455 -0.2472  0.1972
 7380TIP3    H146335   2.048   2.117   1.792  0.6972 -1.3790 -1.1131
 7380TIP3    H246336   1.912   2.051   1.797  0.1051 -0.1333  0.1325
 7381TIP3   OH246337   2.180  -0.002   9.016 -0.7543 -0.9487  0.0767
 7381TIP3    H146338   2.101  -0.036   8.974 -1.5532 -0.5359  1.2017
 7381TIP3    H246339   2.149   0.035   9.099  0.3808  0.5809 -0.1262
 7382TIP3   OH246340   0.838   1.557   1.151  0.2393  0.3278  0.3780
 7382TIP3    H146341   0.807   1.522   1.235 -2.8836 -0.2677 -0.8692
 7382TIP3    H246342   0.886   1.485   1.111 -0.2534 -0.1989  0.7114
 7383TIP3   OH246343   0.605   5.575   9.896 -0.3017  0.7872 -0.7829
 7383TIP3    H146344   0.586   5.484   9.873  0.1284  1.0047 -2.1210
 7383TIP3    H246345   0.672   5.602   9.834 -0.1151  1.8960 -0.1292
 7384TIP3   OH246346   5.357   4.310   8.902  0.2476 -0.2791 -0.1770
 7384TIP3    H146347   5.282   4.267   8.860  0.0366 -0.8324  0.7182
 7384TIP3    H246348   5.367   4.393   8.856 -2.5958  1.0589  1.3401
 7385TIP3   OH246349   7.427   2.015   0.878  0.4262 -0.2348 -0.1652
 7385TIP3    H146350   7.471   1.982   0.799  0.2617 -0.5806 -0.1151
 7385TIP3    H246351   7.362   1.947   0.899  1.2995 -0.7560  0.9848
 7386TIP3   OH246352   0.881   4.904   8.889 -0.1189 -0.2546  0.4160
 7386TIP3    H146353   0.828   4.865   8.958  0.6948  0.7936  1.6823
 7386TIP3    H246354   0.971   4.890   8.918  0.3000 -1.2590 -1.2744
 7387TIP3   OH246355   3.027   0.412   9.293 -0.0506  0.5775 -0.8679
 7387TIP3    H146356   3.090   0.361   9.344  0.5510  1.5940 -0.5772
 7387TIP3    H246357   2.943   0.396   9.336  0.4043  1.2073  0.2934
 7388TIP3   OH246358   3.699   2.411   8.081 -0.0238  0.0559 -0.2935
 7388TIP3    H146359   3.676   2.337   8.025  0.2513  0.2893 -0.7239
 7388TIP3    H246360   3.730   2.478   8.020  0.4011  0.2707  0.1549
 7389TIP3   OH246361   5.779   0.462   9.166  0.3017 -0.3746 -0.0396
 7389TIP3    H146362   5.775   0.554   9.195  1.4082  0.1834 -1.5315
 7389TIP3    H246363   5.873   0.441   9.165  0.0422 -1.6575  0.6303
 7390TIP3   OH246364   0.882   5.011   9.291 -0.1131  0.3488  0.6070
 7390TIP3    H146365   0.900   5.080   9.228 -0.4022  2.1115  2.3356
 7390TIP3    H246366   0.969   4.979   9.316 -0.0186 -0.8651 -1.1362
 7391TIP3   OH246367   0.384   2.414   2.746  0.0274 -0.1721  0.4337
 7391TIP3    H146368   0.444   2.357   2.794  0.0884  0.3382  0.9732
 7391TIP3    H246369   0.314   2.434   2.808  0.9927  1.9304  0.9672
 7392TIP3   OH246370   2.335   1.234   9.600  0.2692 -0.4447 -0.0327
 7392TIP3    H146371   2.402   1.167   9.616 -0.6903 -1.2833  0.5821
 7392TIP3    H246372   2.330   1.240   9.505  2.0447  0.4980 -0.1149
 7393TIP3   OH246373   1.297   5.720   2.273 -0.3699 -0.5398  0.0780
 7393TIP3    H146374   1.238   5.706   2.199 -0.1277 -2.3503  0.1704
 7393TIP3    H246375   1.370   5.771   2.236 -1.4877  0.8676 -0.2577
 7394TIP3   OH246376   0.217   2.398   9.689  0.3039  0.0259  0.7610
 7394TIP3    H146377   0.217   2.381   9.594 -1.1995 -0.0304  0.7519
 7394TIP3    H246378   0.204   2.493   9.696 -3.8521 -0.3921  0.8740
 7395TIP3   OH246379   7.055   3.958   9.011 -0.2862  0.3817  0.2632
 7395TIP3    H146380   7.131   3.902   9.022 -0.9146 -0.4790  0.3191
 7395TIP3    H246381   7.084   4.045   9.039  0.9683  0.2960 -0.6924
 7396TIP3   OH246382   7.327   2.671   9.459 -0.6437  0.3923  0.1632
 7396TIP3    H146383   7.320   2.690   9.365  1.0912  0.4235  0.0107
 7396TIP3    H246384   7.319   2.757   9.501 -1.0620  0.4200  0.0413
 7397TIP3   OH246385   3.977   1.123   8.355  0.3730 -0.3928 -0.5890
 7397TIP3    H146386   3.892   1.078   8.349 -0.8409  1.8655 -1.1785
 7397TIP3    H246387   4.002   1.140   8.265  1.0655 -0.3155 -0.3858
 7398TIP3   OH246388   7.616   4.778   8.589  0.3305  0.1204  0.7436
 7398TIP3    H146389   7.603   4.774   8.684 -0.4929 -0.6954  0.6057
 7398TIP3    H246390   7.624   4.687   8.562  0.1418  0.3277 -0.0290
 7399TIP3   OH246391   7.693   5.113   9.034 -0.0617 -0.0215  0.7755
 7399TIP3    H146392   7.683   5.094   8.941  0.6667 -1.7475  1.0162
 7399TIP3    H246393   7.765   5.177   9.038  0.7610 -0.8866  0.2182
 7400TIP3   OH246394   2.335   2.297   0.425 -0.1966  0.5393  0.0646
 7400TIP3    H146395   2.355   2.250   0.506  1.4254 -0.3509 -0.8004
 7400TIP3    H246396   2.254   2.345   0.444  0.3743  0.7207  2.3537
 7401TIP3   OH246397   1.740   5.929   9.934 -0.8818 -0.0452  0.4597
 7401TIP3    H146398   1.739   5.861  10.001 -0.7210 -0.8238 -0.3065
 7401TIP3    H246399   1.809   5.990   9.961  1.6486 -2.1811 -0.7534
 7402TIP3   OH246400   0.322  -0.026   9.316 -0.2000 -0.3454 -0.5876
 7402TIP3    H146401   0.288  -0.035   9.227  0.6301 -0.5698 -0.8928
 7402TIP3    H246402   0.251  -0.055   9.373 -0.4349 -1.0194 -1.2141
 7403TIP3   OH246403   4.322   2.561   2.591  0.0073 -0.3412  0.2809
 7403TIP3    H146404   4.402   2.532   2.636  0.9256  0.9851 -0.4229
 7403TIP3    H246405   4.335   2.533   2.500 -0.4910 -0.4062  0.2272
 7404TIP3   OH246406   4.173   6.586   8.192 -0.4017  0.5721  0.3129
 7404TIP3    H146407   4.241   6.630   8.244 -1.1982  1.7300  0.4071
 7404TIP3    H246408   4.102   6.649   8.187 -1.2803 -0.4248 -0.2227
 7405TIP3   OH246409   5.952   7.414   9.133 -0.2074 -0.2390 -0.0982
 7405TIP3    H146410   5.957   7.388   9.041  0.5075 -1.3154  0.2217
 7405TIP3    H246411   5.953   7.509   9.131  1.7800 -0.2141 -1.1392
 7406TIP3   OH246412   2.847   1.606   0.742 -0.4324 -0.6860  0.5662
 7406TIP3    H146413   2.772   1.549   0.759  0.1363 -2.0755 -1.2082
 7406TIP3    H246414   2.809   1.689   0.717 -1.2877 -0.2347  3.0741
 7407TIP3   OH246415   4.970   1.505   7.970 -0.3023 -0.3026 -0.2017
 7407TIP3    H146416   4.898   1.441   7.971 -0.2574 -0.3748  1.3644
 7407TIP3    H246417   4.925   1.590   7.973 -0.3339 -0.2968 -0.7118
 7408TIP3   OH246418   5.304   7.256   1.859 -0.4975  0.1019 -0.7552
 7408TIP3    H146419   5.357   7.288   1.785 -1.5539 -0.3202 -1.7213
 7408TIP3    H246420   5.369   7.234   1.926  0.5898 -0.4985 -1.9302
 7409TIP3   OH246421   5.929   2.058   0.830 -0.0148 -0.2777  0.4284
 7409TIP3    H146422   5.945   2.152   0.843  0.0168 -0.3867  1.2293
 7409TIP3    H246423   5.850   2.040   0.880 -1.9512 -0.0518 -2.3231
 7410TIP3   OH246424   4.436   7.633   9.385 -0.0221  0.2741  0.2667
 7410TIP3    H146425   4.359   7.613   9.332 -0.3261  1.1453  0.3747
 7410TIP3    H246426   4.435   7.566   9.454 -0.9349  0.5398  0.5243
 7411TIP3   OH246427   0.152   7.244   8.146 -0.4495 -0.2282 -0.4200
 7411TIP3    H146428   0.139   7.240   8.241 -0.2933  0.4368 -0.3653
 7411TIP3    H246429   0.063   7.241   8.109 -0.4932 -0.8924 -0.2791
 7412TIP3   OH246430   1.102   1.260   8.814  0.1836 -0.1254  0.4475
 7412TIP3    H146431   1.168   1.200   8.780  0.5285  0.3006  0.3698
 7412TIP3    H246432   1.053   1.289   8.737  0.0077 -0.3109  0.4870
 7413TIP3   OH246433   6.045   5.219   7.708  0.8525  0.0915 -0.2085
 7413TIP3    H146434   6.002   5.291   7.662  0.9642  0.5243  0.3582
 7413TIP3    H246435   6.107   5.184   7.645  0.4477  0.1713 -0.6568
 7414TIP3   OH246436   6.620   7.371   2.131 -0.2143  0.0583 -0.5489
 7414TIP3    H146437   6.704   7.364   2.176 -0.6199 -3.5290 -0.0774
 7414TIP3    H246438   6.624   7.305   2.062 -2.8928 -0.8212  0.0211
 7415TIP3   OH246439   3.696   6.618   1.176  0.3451 -0.2434  0.0738
 7415TIP3    H146440   3.674   6.576   1.093  2.2954 -0.2927 -0.4591
 7415TIP3    H246441   3.778   6.664   1.159  0.8799 -0.3860  2.0000
 7416TIP3   OH246442   6.759   0.666   8.677  0.1659 -0.7526  0.2822
 7416TIP3    H146443   6.811   0.588   8.659  0.8046 -0.3150  0.2044
 7416TIP3    H246444   6.759   0.673   8.772  0.0916 -0.8529  0.2907
 7417TIP3   OH246445   6.483   2.786   0.309  0.4270 -0.0610  0.3035
 7417TIP3    H146446   6.405   2.806   0.360  1.0054 -1.3034  1.7452
 7417TIP3    H246447   6.455   2.718   0.248 -0.0307  0.7460 -0.4030
 7418TIP3   OH246448   7.249   2.010   8.845 -0.1810 -0.2635  0.2564
 7418TIP3    H146449   7.173   1.977   8.892 -0.3616 -0.7837 -0.3740
 7418TIP3    H246450   7.298   1.931   8.819  0.8656  0.0800  1.1139
 7419TIP3   OH246451   0.585   1.226   2.627  0.6661 -0.1536 -0.0058
 7419TIP3    H146452   0.533   1.290   2.579  1.3081 -0.9034 -1.7790
 7419TIP3    H246453   0.531   1.147   2.629  1.1617 -0.5163 -0.6386
 7420TIP3   OH246454   5.383   5.331   8.287 -0.0775 -0.0405 -0.1928
 7420TIP3    H146455   5.328   5.253   8.282  0.3313 -0.2696 -2.8336
 7420TIP3    H246456   5.321   5.403   8.300 -0.6272 -0.6102  0.4481
 7421TIP3   OH246457   4.647   7.329   9.185 -0.1545  0.0129 -0.0877
 7421TIP3    H146458   4.636   7.327   9.090  0.8665  0.4738 -0.2268
 7421TIP3    H246459   4.684   7.243   9.207 -1.2444 -0.4512  0.0297
 7422TIP3   OH246460   7.362   2.429   1.296  0.2250  0.1901  0.4112
 7422TIP3    H146461   7.270   2.423   1.272  0.0570  3.2364 -0.1287
 7422TIP3    H246462   7.363   2.489   1.371  1.7163 -0.7583  1.2072
 7423TIP3   OH246463   4.942   0.132   1.933 -0.5471 -0.5638  0.1406
 7423TIP3    H146464   4.900   0.144   1.847  0.4733  0.1023 -0.2887
 7423TIP3    H246465   4.871   0.102   1.990 -2.2502  2.8313  0.0701
 7424TIP3   OH246466   1.084   6.350   2.002 -0.3781 -0.2484  0.1289
 7424TIP3    H146467   1.078   6.363   1.908 -0.9123  1.0428  0.3097
 7424TIP3    H246468   1.031   6.421   2.039 -0.5897 -1.0233  1.3844
 7425TIP3   OH246469   2.571   3.937   9.136  0.0984 -0.3335 -0.6326
 7425TIP3    H146470   2.489   3.911   9.095  0.8668 -0.5717 -2.0892
 7425TIP3    H246471   2.634   3.870   9.107  0.6216 -0.6813  1.2086
 7426TIP3   OH246472   5.215   6.632   1.436  0.2825 -0.2074  0.5819
 7426TIP3    H146473   5.146   6.592   1.384 -0.4214 -1.2273  2.2141
 7426TIP3    H246474   5.172   6.704   1.482  0.8431  0.5420 -0.0298
 7427TIP3   OH246475   6.328   7.405   9.605 -0.3034 -0.4462 -0.1641
 7427TIP3    H146476   6.398   7.357   9.562  0.7294 -0.8926  1.8860
 7427TIP3    H246477   6.364   7.493   9.619  0.7569 -1.2109  2.6771
 7428TIP3   OH246478   3.141   5.697   0.629  0.1897 -0.6400  0.1197
 7428TIP3    H146479   3.232   5.690   0.600  0.4919  0.6679  0.6901
 7428TIP3    H246480   3.092   5.713   0.548  0.6206 -0.1928 -0.0583
 7429TIP3   OH246481   2.110   2.460   0.439  0.2619  0.2861  0.3087
 7429TIP3    H146482   2.047   2.524   0.472 -0.2069 -0.8575  1.7589
 7429TIP3    H246483   2.074   2.433   0.354 -0.3284  0.8521  0.3690
 7430TIP3   OH246484   4.701   0.657   9.264 -0.5022  0.1041 -0.2748
 7430TIP3    H146485   4.757   0.633   9.191  2.0856  1.2250  1.2178
 7430TIP3    H246486   4.691   0.577   9.315 -0.8714 -0.2593 -0.9042
 7431TIP3   OH246487   6.031   6.896   9.489  0.9128  0.0287  0.7056
 7431TIP3    H146488   6.027   6.856   9.576  1.3704  0.4924  0.9489
 7431TIP3    H246489   5.940   6.898   9.459  0.3275  2.4010  2.3654
 7432TIP3   OH246490   0.174   4.716   7.094  0.3039  0.4543 -0.0967
 7432TIP3    H146491   0.136   4.716   7.182 -1.1421  0.0609 -0.6948
 7432TIP3    H246492   0.209   4.627   7.083  0.9463  0.6534  0.2466
 7433TIP3   OH246493   2.030   7.535   0.717  0.7327  0.2651  0.7028
 7433TIP3    H146494   2.077   7.606   0.673 -0.7122  0.1870 -1.1276
 7433TIP3    H246495   1.950   7.575   0.750 -0.1238 -0.4374 -0.3913
 7434TIP3   OH246496   0.816   5.711   9.762  0.2734 -0.3183 -0.3542
 7434TIP3    H146497   0.762   5.788   9.743  1.4688  0.8685  0.8372
 7434TIP3    H246498   0.905   5.738   9.739  0.9270 -0.8221  1.4401
 7435TIP3   OH246499   7.266   6.877   8.095 -0.0647 -0.0298 -0.1443
 7435TIP3    H146500   7.272   6.806   8.032 -0.5437 -1.1446  1.0152
 7435TIP3    H246501   7.263   6.957   8.042 -0.9272 -0.9440 -1.5377
 7436TIP3   OH246502   2.413   2.522   2.680  0.3677 -1.0578 -0.7014
 7436TIP3    H146503   2.330   2.532   2.726  0.6137 -1.4496 -0.1624
 7436TIP3    H246504   2.430   2.608   2.641  0.2457 -0.6677  0.0961
 7437TIP3   OH246505   3.330   5.096   0.655  0.8164  0.8055  0.5746
 7437TIP3    H146506   3.267   5.103   0.584 -0.2330 -0.6789  1.2945
 7437TIP3    H246507   3.326   5.004   0.681  2.8753  0.8043  1.0239
 7438TIP3   OH246508   4.468   2.143   0.614  0.4047 -0.3068  0.0580
 7438TIP3    H146509   4.387   2.191   0.593 -0.8456 -1.4866  1.8767
 7438TIP3    H246510   4.538   2.205   0.596 -1.0779  1.7674  1.0488
 7439TIP3   OH246511   4.667   2.634   8.001 -0.5722 -0.3536 -0.5523
 7439TIP3    H146512   4.760   2.637   8.024 -0.7596 -1.4252  0.4738
 7439TIP3    H246513   4.642   2.543   8.016 -1.7883 -0.0840 -0.8342
 7440TIP3   OH246514   1.049   3.479   2.582 -0.0100  0.4428  0.1079
 7440TIP3    H146515   1.070   3.505   2.671  0.0593  1.0135 -0.0746
 7440TIP3    H246516   1.055   3.559   2.531 -0.5548  0.2218 -0.3220
 7441TIP3   OH246517   0.253   0.369   8.967 -0.1149 -0.0336  0.6318
 7441TIP3    H146518   0.297   0.449   8.939  1.0129 -0.9111 -0.1946
 7441TIP3    H246519   0.322   0.316   9.008  0.0037 -1.9861 -1.8104
 7442TIP3   OH246520   0.674   6.373   9.235  0.0537 -0.2992 -0.2775
 7442TIP3    H146521   0.579   6.363   9.230  0.1955 -2.9333  0.9687
 7442TIP3    H246522   0.709   6.284   9.231  2.3676  0.4482  1.1283
 7443TIP3   OH246523   0.265   5.016   2.401 -0.2770  0.5450  0.2588
 7443TIP3    H146524   0.344   4.985   2.356  0.7908 -0.0112  2.4067
 7443TIP3    H246525   0.235   4.942   2.453 -1.6392  1.0763  0.2821
 7444TIP3   OH246526   3.865   4.345   9.386  0.2452  0.1295  0.4605
 7444TIP3    H146527   3.890   4.257   9.358  0.6919  0.4677 -0.2562
 7444TIP3    H246528   3.946   4.396   9.375 -0.4876  1.0479 -0.9874
 7445TIP3   OH246529   1.190   7.076   9.588  0.7039  0.0022  0.1552
 7445TIP3    H146530   1.245   7.115   9.521 -0.2149  1.9246  0.4543
 7445TIP3    H246531   1.249   7.061   9.662  0.9651  1.4921  0.2703
 7446TIP3   OH246532   1.059   0.729   9.412 -0.2377  0.1614  0.2360
 7446TIP3    H146533   1.103   0.780   9.343  0.7380 -1.3899 -0.3490
 7446TIP3    H246534   1.075   0.778   9.492  1.9504  0.0716 -0.0774
 7447TIP3   OH246535   1.071   5.520   0.838 -0.7787  0.1822 -0.0240
 7447TIP3    H146536   1.028   5.439   0.865  1.2428 -1.0233 -0.2577
 7447TIP3    H246537   1.057   5.580   0.911 -0.0530 -1.2447  1.3342
 7448TIP3   OH246538   0.170   4.130   8.720 -0.2341 -0.2311 -0.1974
 7448TIP3    H146539   0.220   4.211   8.727 -0.7190  0.3085 -2.4660
 7448TIP3    H246540   0.222   4.074   8.664 -0.3709 -1.1582  0.5712
 7449TIP3   OH246541   4.761   5.972   8.791  0.0936 -0.2940 -0.0186
 7449TIP3    H146542   4.702   5.930   8.728 -0.3377 -0.9439  0.7823
 7449TIP3    H246543   4.782   5.902   8.853  2.6611 -0.4134 -0.8975
 7450TIP3   OH246544   2.782   2.262   0.359  0.0362 -0.5824  0.1671
 7450TIP3    H146545   2.853   2.298   0.305 -1.5842 -1.3403 -2.6694
 7450TIP3    H246546   2.723   2.336   0.372 -0.9294 -1.0038 -1.5577
 7451TIP3   OH246547   4.666   5.840   0.050 -0.1053  0.1278  0.0094
 7451TIP3    H146548   4.594   5.889   0.011  0.8013  1.8112  0.3528
 7451TIP3    H246549   4.726   5.823  -0.023  1.2048  2.5755  0.4214
 7452TIP3   OH246550   7.267   2.695   2.286  0.0941  0.1537  0.4260
 7452TIP3    H146551   7.338   2.634   2.264 -0.4425 -0.6893  0.9910
 7452TIP3    H246552   7.203   2.642   2.334 -1.4791  0.6087 -1.0598
 7453TIP3   OH246553   3.137   0.663   9.216  0.1825 -0.2300  0.3045
 7453TIP3    H146554   3.113   0.739   9.269 -0.6144  1.0368 -1.7613
 7453TIP3    H246555   3.104   0.588   9.265  0.3211  0.7927  2.0400
 7454TIP3   OH246556   4.037   7.480   9.393  0.0373 -0.1277  0.6438
 7454TIP3    H146557   4.041   7.417   9.465 -0.2834 -0.6087  0.2431
 7454TIP3    H246558   4.022   7.564   9.436 -0.2447 -0.4253  1.1367
 7455TIP3   OH246559   7.141   1.764   2.144  0.0464  0.4899  0.1734
 7455TIP3    H146560   7.168   1.818   2.070 -1.6435 -0.8213 -1.5009
 7455TIP3    H246561   7.046   1.757   2.135  0.1553 -2.5080  0.4470
 7456TIP3   OH246562   0.634   2.627   0.970 -0.4639  0.0903  0.5299
 7456TIP3    H146563   0.715   2.664   1.005 -0.6252 -0.5481  1.6133
 7456TIP3    H246564   0.570   2.638   1.039 -1.0619 -0.2788  0.0440
 7457TIP3   OH246565   5.084   3.898   7.938  0.1557 -0.1505  0.5439
 7457TIP3    H146566   5.158   3.854   7.980  1.4635  0.4429 -1.0465
 7457TIP3    H246567   5.014   3.891   8.002  2.5853  2.5971  3.8827
 7458TIP3   OH246568   4.523   5.578   7.728  0.0968  0.0824 -0.1597
 7458TIP3    H146569   4.584   5.560   7.657 -0.0590 -0.0124 -0.2692
 7458TIP3    H246570   4.497   5.669   7.715  0.8792  0.4040  0.3904
 7459TIP3   OH246571   7.126   3.818   9.644 -0.1295 -0.5291 -0.0916
 7459TIP3    H146572   7.126   3.843   9.737  0.6399 -1.2891  0.1212
 7459TIP3    H246573   7.219   3.810   9.621 -0.3284 -1.3947 -0.6338
 7460TIP3   OH246574   6.149   0.109   1.626 -0.1457 -0.0568  0.2315
 7460TIP3    H146575   6.238   0.124   1.592 -0.5093  0.4879 -0.5043
 7460TIP3    H246576   6.160   0.040   1.691  0.9650  0.6680  0.8383
 7461TIP3   OH246577   4.228   7.673   0.849 -0.1367  0.4575 -0.2324
 7461TIP3    H146578   4.302   7.622   0.881  0.0994  1.1428  0.3369
 7461TIP3    H246579   4.260   7.764   0.846 -0.1153  0.4549 -2.4871
 7462TIP3   OH246580   6.670   7.372   9.019 -0.2744 -0.4120  0.0508
 7462TIP3    H146581   6.619   7.420   8.955 -0.1756 -1.6081 -0.9710
 7462TIP3    H246582   6.608   7.353   9.090 -0.3066  1.1733  0.4932
 7463TIP3   OH246583   1.067   0.883   1.897  0.3900  0.0911  0.0811
 7463TIP3    H146584   1.003   0.954   1.886  1.2087  1.2360  2.1105
 7463TIP3    H246585   1.076   0.845   1.809 -0.4368  2.1941 -0.9871
 7464TIP3   OH246586   3.560   0.550   0.342 -0.1699 -0.2016  0.3100
 7464TIP3    H146587   3.649   0.542   0.376  0.2913  1.3318 -0.4418
 7464TIP3    H246588   3.514   0.473   0.376  1.1667 -0.5042  1.5199
 7465TIP3   OH246589   3.306   0.863   2.057  0.4667 -0.0550 -0.1545
 7465TIP3    H146590   3.311   0.926   2.129 -2.4511 -0.9101  0.9412
 7465TIP3    H246591   3.236   0.803   2.083  1.3494 -2.2027 -2.3625
 7466TIP3   OH246592   1.806   4.644   9.989  0.0931  0.3437  0.0184
 7466TIP3    H146593   1.887   4.694   9.998  0.9376 -1.2377  2.0223
 7466TIP3    H246594   1.737   4.703  10.019  1.1039  0.2736  2.6995
 7467TIP3   OH246595   3.941   0.272   8.445  0.6871  0.2435  0.2364
 7467TIP3    H146596   3.852   0.277   8.411  0.8444  0.2198 -0.1776
 7467TIP3    H246597   3.979   0.196   8.401  0.4849 -0.5666  1.4152
 7468TIP3   OH246598   4.216   2.377   8.132 -0.3466  0.3389 -0.5394
 7468TIP3    H146599   4.124   2.350   8.121 -0.0532  0.0775 -2.7892
 7468TIP3    H246600   4.257   2.302   8.175 -0.7271 -0.5195 -1.6195
 7469TIP3   OH246601   6.393   2.549   7.230  0.1219  0.4042 -0.0159
 7469TIP3    H146602   6.427   2.471   7.275 -0.2179  0.8342  1.0080
 7469TIP3    H246603   6.335   2.513   7.162  1.0016 -0.2665 -0.4392
 7470TIP3   OH246604   6.535   2.158   2.000 -0.3150 -0.0194 -0.2562
 7470TIP3    H146605   6.629   2.169   1.986 -0.5151  0.3886 -1.4501
 7470TIP3    H246606   6.494   2.217   1.936 -1.3950 -1.8518 -1.3637
 7471TIP3   OH246607   1.072   4.666   8.569  0.4855  0.2314  0.1006
 7471TIP3    H146608   1.149   4.609   8.574 -0.8560 -1.7399 -0.7397
 7471TIP3    H246609   1.061   4.684   8.476  2.0515  3.6622  0.4379
 7472TIP3   OH246610   6.920   4.224   7.011  0.2425  0.2970 -0.0345
 7472TIP3    H146611   6.853   4.170   7.053 -0.2773  0.2146 -0.9384
 7472TIP3    H246612   6.978   4.160   6.968  0.7288  0.3815  0.4890
 7473TIP3   OH246613   3.256   2.942   1.791  0.1142 -0.7278 -0.3218
 7473TIP3    H146614   3.164   2.969   1.782 -0.9175 -2.7995  2.5937
 7473TIP3    H246615   3.272   2.888   1.714 -0.7634  0.4029 -1.3560
 7474TIP3   OH246616   2.015   0.987   2.149  0.2462  0.3746 -0.4234
 7474TIP3    H146617   1.971   0.939   2.219 -0.9762 -0.1630 -1.4970
 7474TIP3    H246618   2.099   0.944   2.138 -0.1659 -0.4852 -0.2610
 7475TIP3   OH246619   1.435   6.394   9.577  0.1413  0.3013  0.3462
 7475TIP3    H146620   1.469   6.419   9.491 -0.6110  0.0814 -0.0218
 7475TIP3    H246621   1.470   6.306   9.591 -1.6006 -0.6252 -0.7901
 7476TIP3   OH246622   3.233   7.103   7.922  0.2731  0.3226 -0.1332
 7476TIP3    H146623   3.178   7.062   7.855 -0.1481  0.4077  0.1566
 7476TIP3    H246624   3.171   7.143   7.982  0.5885 -1.1794  1.2429
 7477TIP3   OH246625   7.239   2.377   7.422 -0.1991  0.6932 -0.2001
 7477TIP3    H146626   7.191   2.294   7.420  0.3454  0.3508  0.3966
 7477TIP3    H246627   7.283   2.376   7.507 -0.8277  1.9713  0.1568
 7478TIP3   OH246628   0.711   4.486   9.629 -0.3102 -0.0676  0.0962
 7478TIP3    H146629   0.791   4.536   9.612  0.4088 -0.9002  0.9583
 7478TIP3    H246630   0.722   4.405   9.579 -0.6774 -0.1410  0.1294
 7479TIP3   OH246631   1.592   2.811   2.240 -0.3941 -0.1856  0.3287
 7479TIP3    H146632   1.637   2.894   2.254  1.4223 -1.0693 -0.0589
 7479TIP3    H246633   1.611   2.789   2.149  0.4054 -1.7343  0.8420
 7480TIP3   OH246634   0.820   5.738   1.030 -0.7128  0.1860  0.8785
 7480TIP3    H146635   0.821   5.818   1.083  0.2580  1.5559 -1.0563
 7480TIP3    H246636   0.847   5.767   0.943 -1.0949 -2.1485 -0.0965
 7481TIP3   OH246637   4.443   7.296   0.174 -0.5180 -0.1889  0.1809
 7481TIP3    H146638   4.394   7.366   0.131  0.2149 -0.4610 -1.1813
 7481TIP3    H246639   4.507   7.268   0.108  1.3717  0.0516  1.8092
 7482TIP3   OH246640   5.053   6.534   8.025  0.0872  0.4065 -0.2252
 7482TIP3    H146641   4.973   6.509   8.071 -0.3993  0.4806 -1.0209
 7482TIP3    H246642   5.119   6.543   8.095 -0.2637 -0.9195  0.3060
 7483TIP3   OH246643   5.268   3.580   7.788  0.0699 -0.0959 -0.2139
 7483TIP3    H146644   5.185   3.533   7.787 -0.0298  0.0823 -0.3095
 7483TIP3    H246645   5.291   3.590   7.695  0.3448 -0.4030 -0.1823
 7484TIP3   OH246646   1.770   5.705   9.017 -0.0288 -0.5892  0.6555
 7484TIP3    H146647   1.769   5.624   8.966 -0.1818 -0.4736  0.4734
 7484TIP3    H246648   1.700   5.758   8.979 -0.4575 -0.6918  1.2880
 7485TIP3   OH246649   5.922   3.117   0.701 -0.0913  0.1441 -0.5673
 7485TIP3    H146650   5.849   3.176   0.682 -0.4300  0.4025  1.3020
 7485TIP3    H246651   5.882   3.044   0.749  0.7447 -0.1100 -0.2346
 7486TIP3   OH246652   1.057   1.741   8.623 -0.0098  0.4036 -0.3038
 7486TIP3    H146653   1.127   1.765   8.562 -0.1324  1.7255  0.0426
 7486TIP3    H246654   1.066   1.646   8.634  1.5772  0.5074 -0.4564
 7487TIP3   OH246655   4.330   6.695   8.406  0.0630 -0.1010 -0.3318
 7487TIP3    H146656   4.256   6.641   8.434 -0.3327 -0.4603 -1.9785
 7487TIP3    H246657   4.370   6.725   8.488  1.3526 -4.2365  0.7754
 7488TIP3   OH246658   1.308   6.963   0.548 -0.2102  0.3554 -0.6944
 7488TIP3    H146659   1.313   6.899   0.620  0.3607  0.8114 -0.3182
 7488TIP3    H246660   1.329   6.912   0.470 -0.6122 -0.1007 -0.5116
 7489TIP3   OH246661   6.297   1.702   1.243 -0.1993  0.7660 -0.4118
 7489TIP3    H146662   6.314   1.744   1.159 -1.9762 -0.0785 -1.2525
 7489TIP3    H246663   6.280   1.611   1.221  0.5560  0.2411  1.0353
 7490TIP3   OH246664   2.855   5.179   0.427  0.5911  0.2300 -0.1603
 7490TIP3    H146665   2.900   5.143   0.504  1.1709 -0.2764 -0.7313
 7490TIP3    H246666   2.920   5.235   0.385  0.5564 -0.1810 -0.7666
 7491TIP3   OH246667   1.366   1.577   1.211 -0.0639  0.2384 -0.4138
 7491TIP3    H146668   1.303   1.649   1.225 -0.0561  0.2266 -0.3170
 7491TIP3    H246669   1.354   1.553   1.119 -2.0431 -1.4917  0.2252
 7492TIP3   OH246670   6.046   3.981   8.088  0.6086  0.1308 -0.1989
 7492TIP3    H146671   5.997   4.024   8.019  1.1045 -0.1065 -0.7070
 7492TIP3    H246672   5.981   3.962   8.156  0.1642  0.5757 -0.4965
 7493TIP3   OH246673   5.641   6.060   8.765  0.7044  0.4318  0.0506
 7493TIP3    H146674   5.653   5.988   8.703  0.2086  0.0683  0.3743
 7493TIP3    H246675   5.596   6.021   8.839  0.1901  1.1334  0.1129
 7494TIP3   OH246676   6.535   0.832   0.448  0.0561  0.5462  0.1928
 7494TIP3    H146677   6.465   0.897   0.444  0.4190  1.0288  1.3127
 7494TIP3    H246678   6.546   0.814   0.542 -0.0525 -1.1495 -0.0844
 7495TIP3   OH246679   5.753   4.068   8.624  0.1074  0.0267 -0.2051
 7495TIP3    H146680   5.813   4.097   8.554 -0.7985 -3.3565 -2.6708
 7495TIP3    H246681   5.808   4.017   8.682  0.4743  1.1022  0.4218
 7496TIP3   OH246682   1.085   6.523   9.739 -1.0617 -0.0004  0.0209
 7496TIP3    H146683   1.009   6.470   9.765 -1.4949  0.8493  0.4951
 7496TIP3    H246684   1.124   6.473   9.666 -1.6807 -0.7787  0.2049
 7497TIP3   OH246685   5.126   3.215   8.298 -0.5158 -0.1795  0.0210
 7497TIP3    H146686   5.074   3.294   8.293  0.0508  0.2202  0.3461
 7497TIP3    H246687   5.188   3.231   8.370  0.6721 -0.2574 -0.9488
 7498TIP3   OH246688   6.832   5.803   9.577 -0.0139 -0.4605  1.1124
 7498TIP3    H146689   6.856   5.712   9.563 -1.0844 -1.1617  3.2453
 7498TIP3    H246690   6.743   5.810   9.542  0.5773  0.1910 -0.3327
 7499TIP3   OH246691   5.182   3.093   9.700 -0.4766  0.4150  0.6818
 7499TIP3    H146692   5.194   3.120   9.791  0.9374  1.0220  0.3491
 7499TIP3    H246693   5.224   3.007   9.695  0.4919  0.9001  0.3465
 7500TIP3   OH246694   5.678   4.113   0.151  0.2061  0.3387 -0.3339
 7500TIP3    H146695   5.770   4.123   0.175 -0.0491 -0.4513  1.0263
 7500TIP3    H246696   5.632   4.099   0.233 -0.8560 -1.3126 -1.1419
 7501TIP3   OH246697   6.158   5.761   0.131  0.1631 -0.1928 -0.1809
 7501TIP3    H146698   6.178   5.798   0.216 -1.0464  0.4042 -0.1313
 7501TIP3    H246699   6.076   5.803   0.105  0.2852 -0.6760 -1.4484
 7502TIP3   OH246700   2.121   0.503   8.393 -0.3516 -0.2587 -0.2513
 7502TIP3    H146701   2.167   0.422   8.415  0.3478  0.3413  0.5394
 7502TIP3    H246702   2.189   0.570   8.391 -0.8836  0.2807 -1.1304
 7503TIP3   OH246703   1.119   0.968   1.020 -0.5047 -0.2488 -0.0769
 7503TIP3    H146704   1.156   0.949   0.934 -0.4007 -1.0701  0.1337
 7503TIP3    H246705   1.027   0.986   1.003  0.0168  2.2145 -0.6575
 7504TIP3   OH246706   3.519   2.662   9.782  0.0766  0.0888  0.8816
 7504TIP3    H146707   3.524   2.576   9.824  1.2487 -0.5892 -0.5906
 7504TIP3    H246708   3.588   2.713   9.825 -0.1167  0.0702  1.2229
 7505TIP3   OH246709   4.937   2.963   8.977 -0.0340  0.1409  0.0371
 7505TIP3    H146710   4.971   3.027   9.040  1.5852  0.1186 -0.7729
 7505TIP3    H246711   5.004   2.957   8.910 -0.0279 -2.5853  0.1861
 7506TIP3   OH246712   1.646   6.165   2.686 -0.1346 -0.3268  0.0742
 7506TIP3    H146713   1.655   6.225   2.760  2.8861  0.2107 -0.5824
 7506TIP3    H246714   1.608   6.219   2.617 -1.6635 -0.4631  0.7645
 7507TIP3   OH246715   5.958   4.929   9.406 -0.1610 -0.3711 -0.2240
 7507TIP3    H146716   5.926   4.957   9.492 -2.9118 -1.2728 -0.8590
 7507TIP3    H246717   6.007   5.004   9.374 -1.9845  1.3454  0.7452
 7508TIP3   OH246718   1.910   2.984   9.131 -1.0307  0.0987 -0.0003
 7508TIP3    H146719   1.888   3.068   9.090 -2.8474  0.5799  1.7933
 7508TIP3    H246720   1.843   2.924   9.099 -0.3330 -0.4241 -0.4953
 7509TIP3   OH246721   3.004   5.529   8.155 -0.3056  0.0691  0.3331
 7509TIP3    H146722   3.043   5.462   8.100 -0.2185 -0.6184  1.2068
 7509TIP3    H246723   2.959   5.480   8.224 -0.8167  0.8972  0.6009
 7510TIP3   OH246724   7.637   1.411   9.926  0.4649 -0.6332  0.3910
 7510TIP3    H146725   7.689   1.398  10.005  0.0560 -1.4986  0.5312
 7510TIP3    H246726   7.547   1.419   9.957  0.4614  0.5371  0.1238
 7511TIP3   OH246727   7.416   0.429   0.489 -0.2227  0.7887  0.0241
 7511TIP3    H146728   7.374   0.378   0.558 -0.0880  1.3914  0.5612
 7511TIP3    H246729   7.343   0.465   0.438 -0.3388  0.8374  0.2218
 7512TIP3   OH246730   5.882   2.855   0.855 -0.1497  0.0422  0.3245
 7512TIP3    H146731   5.952   2.792   0.871  1.2197  1.4348  0.0437
 7512TIP3    H246732   5.879   2.909   0.934 -0.4416  0.4202  0.0611
 7513TIP3   OH246733   6.942   4.985   9.444 -0.5726  0.3431 -0.3682
 7513TIP3    H146734   6.953   4.930   9.367  0.4837 -0.8376  0.5888
 7513TIP3    H246735   7.007   4.953   9.507 -0.3583  2.2641  0.4703
 7514TIP3   OH246736   0.248   7.052   1.435 -0.4142 -0.9528 -0.4494
 7514TIP3    H146737   0.260   7.098   1.519 -0.6449 -1.0086 -0.3852
 7514TIP3    H246738   0.173   7.094   1.395 -1.6558 -2.3087  0.3363
 7515TIP3   OH246739   2.643   0.947   8.215 -0.4394 -0.2037 -0.1724
 7515TIP3    H146740   2.567   0.935   8.158 -1.3043 -0.8189  1.0762
 7515TIP3    H246741   2.642   1.040   8.237 -0.0144  0.0729 -1.2365
 7516TIP3   OH246742   0.109   0.519   0.695 -0.2294 -0.0981 -0.3568
 7516TIP3    H146743   0.076   0.608   0.704  0.4459  0.0490  0.7994
 7516TIP3    H246744   0.165   0.521   0.617 -0.5733  0.3671 -0.5923
 7517TIP3   OH246745   1.380   0.359   0.944  0.2450  0.0393  0.1287
 7517TIP3    H146746   1.459   0.350   0.890  1.2065  0.2216  1.4638
 7517TIP3    H246747   1.311   0.318   0.892  1.5634 -1.7100 -0.3486
 7518TIP3   OH246748   1.879   5.579   8.617 -0.2419 -0.1658 -0.3123
 7518TIP3    H146749   1.929   5.606   8.694  0.4171 -2.8570  0.3298
 7518TIP3    H246750   1.807   5.642   8.611  0.5248  0.9742  1.6160
 7519TIP3   OH246751   1.536   1.236   7.555 -0.0909 -0.1036 -0.3175
 7519TIP3    H146752   1.588   1.302   7.509 -0.2045 -0.1204 -0.4696
 7519TIP3    H246753   1.497   1.183   7.485  0.4349 -0.6677 -0.1957
 7520TIP3   OH246754   0.228   3.580   7.685 -0.2654 -0.3952 -0.4925
 7520TIP3    H146755   0.237   3.651   7.622  2.4518  0.4407  0.6940
 7520TIP3    H246756   0.189   3.621   7.762  0.4433 -0.3696 -0.1365
 7521TIP3   OH246757   2.634   1.359   8.667  0.6964  0.0300  0.3464
 7521TIP3    H146758   2.542   1.386   8.670  0.5488 -0.2715 -0.7313
 7521TIP3    H246759   2.672   1.394   8.747 -0.5136 -0.4306  1.1483
 7522TIP3   OH246760   1.732   2.670   9.276 -0.4866  0.3667 -0.4905
 7522TIP3    H146761   1.734   2.726   9.199 -0.5948 -1.6835 -2.0625
 7522TIP3    H246762   1.824   2.650   9.294 -0.4446  1.0335  0.1039
 7523TIP3   OH246763   0.132   7.185   8.398 -0.0916 -0.3497  0.3981
 7523TIP3    H146764   0.156   7.253   8.460  0.2638 -1.5372  1.6268
 7523TIP3    H246765   0.039   7.169   8.414  0.1567 -1.1231  1.1210
 7524TIP3   OH246766   1.255   0.301   8.655  0.7859  0.9478  0.3091
 7524TIP3    H146767   1.291   0.212   8.655  0.4142  0.7883  0.5594
 7524TIP3    H246768   1.175   0.293   8.708 -0.5673  0.9000 -1.6585
 7525TIP3   OH246769   0.132   3.109   3.391 -0.3104 -0.2174  0.0642
 7525TIP3    H146770   0.188   3.186   3.400  1.0457 -1.2991  1.2325
 7525TIP3    H246771   0.164   3.065   3.313 -2.0149  1.0651 -1.4644
 7526TIP3   OH246772   3.784   5.048   8.564  0.0178  0.5181 -0.4025
 7526TIP3    H146773   3.697   5.078   8.536 -0.5277 -0.4314  0.2237
 7526TIP3    H246774   3.835   5.044   8.483 -1.1249 -0.8494 -1.0984
 7527TIP3   OH246775   6.827   4.193   0.163  0.0455  0.5451 -0.6628
 7527TIP3    H146776   6.887   4.124   0.189 -0.8489  0.8351  2.6191
 7527TIP3    H246777   6.878   4.274   0.171 -0.8498  0.9131  3.2481
 7528TIP3   OH246778   7.588   2.893   7.999 -0.4182  0.2193  0.2468
 7528TIP3    H146779   7.510   2.887   7.944 -0.6321  0.0699  0.5640
 7528TIP3    H246780   7.572   2.969   8.055  0.0273  0.6881 -0.2429
 7529TIP3   OH246781   3.588   5.846   8.101  0.3164 -0.7105 -0.3673
 7529TIP3    H146782   3.632   5.868   8.184 -0.1930 -1.1579  0.0309
 7529TIP3    H246783   3.652   5.868   8.034  0.3746  0.5852  0.0812
 7530TIP3   OH246784   0.796   5.909   7.581 -0.4528 -0.2049 -0.1363
 7530TIP3    H146785   0.756   5.895   7.495 -0.3881  0.8189 -0.3388
 7530TIP3    H246786   0.727   5.951   7.633 -0.5747 -1.0400  0.4051
 7531TIP3   OH246787   0.641   1.229   7.954 -0.2756 -0.2012  0.3619
 7531TIP3    H146788   0.672   1.310   7.994  0.0652 -0.8299  1.4379
 7531TIP3    H246789   0.565   1.255   7.902 -0.0387  0.8352  0.5148
 7532TIP3   OH246790   4.085   7.609   9.847  0.7590 -0.0574  0.5488
 7532TIP3    H146791   4.054   7.523   9.876  1.7604 -0.8790 -0.6964
 7532TIP3    H246792   4.021   7.636   9.780  0.6984 -0.0452  0.6112
 7533TIP3   OH246793   0.494   5.750   9.560 -0.3715 -0.3343  0.5458
 7533TIP3    H146794   0.559   5.704   9.507 -0.6723  0.4985 -0.5903
 7533TIP3    H246795   0.422   5.687   9.569 -0.3831 -0.4384 -0.1824
 7534TIP3   OH246796   5.864   1.812   0.195 -1.0129 -0.2653  0.0883
 7534TIP3    H146797   5.773   1.840   0.190 -0.8041  0.2058 -2.8519
 7534TIP3    H246798   5.868   1.733   0.141  0.3740 -0.0628 -0.1618
 7535TIP3   OH246799   2.644   0.998   1.930 -0.6829  0.4018  0.2258
 7535TIP3    H146800   2.585   1.003   1.855 -0.7058  0.6017  0.2577
 7535TIP3    H246801   2.718   0.946   1.898  0.6527  2.7708 -0.8485
 7536TIP3   OH246802   7.353   2.838   1.175  0.4140 -0.7157 -0.2082
 7536TIP3    H146803   7.368   2.845   1.081 -0.0926 -0.1102 -0.2464
 7536TIP3    H246804   7.430   2.881   1.214  0.0807  0.0436 -0.3680
 7537TIP3   OH246805   0.822   7.325   8.858  0.1130  0.2080 -0.3710
 7537TIP3    H146806   0.859   7.265   8.793  1.8745  0.3010  0.4735
 7537TIP3    H246807   0.857   7.294   8.942 -1.2530  0.7233  0.4267
 7538TIP3   OH246808   7.033   4.124   7.653  0.3503  0.3738  0.1939
 7538TIP3    H146809   6.967   4.107   7.586 -0.7600 -1.2065  1.5866
 7538TIP3    H246810   7.114   4.087   7.618 -0.1106 -0.0357 -0.4555
 7539TIP3   OH246811   3.720   2.565   7.673 -0.1095 -0.3248 -0.1973
 7539TIP3    H146812   3.760   2.558   7.586  2.1448 -0.6557  0.7833
 7539TIP3    H246813   3.649   2.628   7.662 -0.0961 -0.6097 -2.3348
 7540TIP3   OH246814   1.925   7.628   8.876 -0.1387 -0.4766 -0.2836
 7540TIP3    H146815   1.901   7.696   8.813  1.1512  0.3873  0.1112
 7540TIP3    H246816   1.921   7.547   8.826 -1.1190 -0.0496 -0.9273
 7541TIP3   OH246817   3.250   2.104   2.146  0.0747 -0.3366  0.3841
 7541TIP3    H146818   3.212   2.108   2.058  0.3583 -2.3872  0.1166
 7541TIP3    H246819   3.174   2.104   2.205 -0.0996  1.9849  0.2595
 7542TIP3   OH246820   3.785   3.781   7.301 -0.2168 -0.1517  0.3436
 7542TIP3    H146821   3.871   3.819   7.319  0.7682 -2.5984  1.1935
 7542TIP3    H246822   3.743   3.844   7.242  2.8779  0.2995 -1.6284
 7543TIP3   OH246823   7.211   6.668   2.530 -0.1377 -0.2114 -0.5265
 7543TIP3    H146824   7.272   6.663   2.604 -1.3253  0.1610  0.5183
 7543TIP3    H246825   7.142   6.728   2.560 -0.5571  0.0925 -2.0156
 7544TIP3   OH246826   1.185   2.091   0.342  0.5511  0.5937 -0.5343
 7544TIP3    H146827   1.167   2.007   0.383 -0.6637  1.1766  0.1854
 7544TIP3    H246828   1.138   2.088   0.259  2.0924 -0.1531 -1.4215
 7545TIP3   OH246829   5.992   1.969   9.343  0.2487 -0.7913 -0.3349
 7545TIP3    H146830   6.035   2.031   9.402 -1.6569  1.0443 -0.7519
 7545TIP3    H246831   6.036   1.981   9.259  0.4890 -0.6824 -0.1933
 7546TIP3   OH246832   1.979   2.909   1.154 -0.2984  0.8796 -0.4831
 7546TIP3    H146833   1.928   2.890   1.233  1.3783  0.9658  0.6662
 7546TIP3    H246834   1.918   2.892   1.082 -2.0877  1.4194  0.8240
 7547TIP3   OH246835   6.451   6.628   0.932  0.2106  0.0510 -0.2346
 7547TIP3    H146836   6.525   6.652   0.876  0.5875  0.8432  0.5860
 7547TIP3    H246837   6.452   6.692   1.003  1.0972 -2.1739  1.9226
 7548TIP3   OH246838   7.657   7.262   0.331  0.3366  0.1401 -0.6001
 7548TIP3    H146839   7.587   7.216   0.378  1.1471  0.1052  0.6100
 7548TIP3    H246840   7.728   7.269   0.394  2.6305 -2.5115 -2.6106
 7549TIP3   OH246841   2.022   1.323   7.064  0.3093 -0.1145  0.5097
 7549TIP3    H146842   1.991   1.233   7.066  1.0968 -0.3890  0.4389
 7549TIP3    H246843   1.943   1.375   7.079 -0.1701 -0.8043  0.4397
 7550TIP3   OH246844   4.803   5.946   9.370  0.0408  0.2958  0.1850
 7550TIP3    H146845   4.893   5.952   9.403  0.3561 -0.6185 -0.4806
 7550TIP3    H246846   4.751   5.993   9.435  0.8300 -0.2943  1.2700
 7551TIP3   OH246847   6.089   1.041   7.692 -0.6516 -0.0931  0.1605
 7551TIP3    H146848   6.027   1.061   7.623 -2.4756 -1.1672  1.4050
 7551TIP3    H246849   6.139   0.966   7.659 -0.0691  0.6845 -0.7852
 7552TIP3   OH246850   1.823   7.204   2.479  0.1583  0.2135 -0.3118
 7552TIP3    H146851   1.857   7.163   2.558 -4.2236 -0.6173  1.4780
 7552TIP3    H246852   1.775   7.281   2.511 -1.9744 -0.2894 -2.0137
 7553TIP3   OH246853   3.376   1.381   9.590  0.2257  1.1395 -0.3744
 7553TIP3    H146854   3.342   1.453   9.538 -0.6022  0.0887 -1.3464
 7553TIP3    H246855   3.314   1.310   9.576  1.8503 -0.2856 -0.7492
 7554TIP3   OH246856   2.607   4.537   8.379  0.0921 -0.0036  0.1062
 7554TIP3    H146857   2.673   4.603   8.399 -0.3738  0.2396  0.9391
 7554TIP3    H246858   2.620   4.515   8.287  1.1578  0.2206  0.1946
 7555TIP3   OH246859   2.871   5.598   0.740 -0.0545  0.0022  0.1279
 7555TIP3    H146860   2.958   5.568   0.768  0.9287  1.6208 -0.9942
 7555TIP3    H246861   2.813   5.526   0.761  1.9378 -2.1493 -1.3214
 7556TIP3   OH246862   5.001   6.229   0.520  0.8861 -0.3013 -0.1850
 7556TIP3    H146863   5.073   6.173   0.492  2.2970  1.3191  0.0982
 7556TIP3    H246864   5.032   6.273   0.599  0.0784  1.3332 -0.7218
 7557TIP3   OH246865   7.642   3.203   8.154  0.6851 -0.2631  0.6361
 7557TIP3    H146866   7.688   3.209   8.070  0.0332 -0.9303  0.2160
 7557TIP3    H246867   7.550   3.190   8.130  0.5941 -1.2061  1.4463
 7558TIP3   OH246868   1.108   0.833   3.338  0.3569 -0.4540 -0.0324
 7558TIP3    H146869   1.026   0.794   3.308 -0.1553 -0.2877  1.1293
 7558TIP3    H246870   1.082   0.908   3.391  1.2732 -0.0893 -0.0713
 7559TIP3   OH246871   4.867   2.806   8.340 -0.0258 -0.3908 -0.1970
 7559TIP3    H146872   4.899   2.833   8.426  0.8756 -3.0425  0.4250
 7559TIP3    H246873   4.911   2.864   8.279  3.4335 -1.6142  0.8822
 7560TIP3   OH246874   7.022   1.005   8.473 -0.2194 -0.3930 -0.4391
 7560TIP3    H146875   7.019   0.909   8.475 -1.1126 -0.3635  0.5603
 7560TIP3    H246876   6.941   1.032   8.515  0.7565  0.8031  0.7551
 7561TIP3   OH246877   4.007   3.950   7.424  0.0069 -0.0436  0.1037
 7561TIP3    H146878   4.085   3.897   7.444 -0.2686 -0.1381  1.0117
 7561TIP3    H246879   3.953   3.943   7.503 -1.1915 -0.4404 -0.7205
 7562TIP3   OH246880   6.798   5.098   8.199  0.3220 -0.2155  0.3617
 7562TIP3    H146881   6.757   5.072   8.282  0.6210  0.7005  0.8057
 7562TIP3    H246882   6.851   5.022   8.174  0.8958 -0.1922  1.4434
 7563TIP3   OH246883   5.906   0.572   8.300  0.3915 -0.0404  0.2447
 7563TIP3    H146884   6.000   0.574   8.318  0.5385 -1.7929 -0.1316
 7563TIP3    H246885   5.873   0.498   8.351 -0.5736 -0.1582 -0.5153
 7564TIP3   OH246886   4.990   0.534   2.275  0.3328 -0.6304 -0.2071
 7564TIP3    H146887   5.003   0.476   2.350 -0.5895 -2.0848 -1.1252
 7564TIP3    H246888   4.895   0.542   2.267  0.4178 -0.4343 -1.1647
 7565TIP3   OH246889   5.605   7.654   8.438  0.2190  0.2561  0.3413
 7565TIP3    H146890   5.684   7.695   8.476  2.2639 -0.8522 -2.3854
 7565TIP3    H246891   5.563   7.725   8.389  1.1419  0.2415 -0.5077
 7566TIP3   OH246892   1.988   7.460   2.915 -0.0458  0.6037  0.3704
 7566TIP3    H146893   2.012   7.367   2.918 -0.0155  0.5996  0.0009
 7566TIP3    H246894   1.980   7.485   3.007 -0.7537  0.0555  0.4690
 7567TIP3   OH246895   1.533   3.174   9.375  0.5914  0.3580  0.0231
 7567TIP3    H146896   1.445   3.135   9.373  0.7978 -0.1607  0.7032
 7567TIP3    H246897   1.518   3.267   9.356 -0.1708  0.3715  0.6254
 7568TIP3   OH246898   2.530   7.368   0.258 -0.6464  0.0024  0.1879
 7568TIP3    H146899   2.482   7.303   0.309  0.0121 -0.4766  0.1994
 7568TIP3    H246900   2.536   7.330   0.170  0.6419 -0.4347  0.4477
 7569TIP3   OH246901   6.210   0.332   7.565 -0.2977 -0.2953 -0.2211
 7569TIP3    H146902   6.116   0.315   7.560  0.1203 -2.9722 -0.5852
 7569TIP3    H246903   6.222   0.376   7.649 -1.9756  1.2722 -0.7319
 7570TIP3   OH246904   5.302   6.732   7.898 -0.6195 -0.3472  0.4486
 7570TIP3    H146905   5.208   6.734   7.882 -0.3843  0.9331 -0.9875
 7570TIP3    H246906   5.335   6.663   7.841 -0.8363 -1.9084  2.1245
 7571TIP3   OH246907   4.458   1.936   9.157  0.4903  0.3156 -0.5412
 7571TIP3    H146908   4.432   1.921   9.248  0.9894 -0.9129 -0.5823
 7571TIP3    H246909   4.539   1.887   9.147  0.2953  0.2081 -1.7236
 7572TIP3   OH246910   4.444   7.472   8.835  0.0168 -0.0440  0.5937
 7572TIP3    H146911   4.440   7.504   8.925  1.5713  0.4130  0.5231
 7572TIP3    H246912   4.465   7.379   8.844  0.5353  0.0837  0.6919
 7573TIP3   OH246913   6.796   0.174  -0.022  0.1421 -0.1453 -0.7600
 7573TIP3    H146914   6.745   0.243  -0.065  0.7942  1.5661  1.0592
 7573TIP3    H246915   6.887   0.194  -0.044  0.3979  0.1011  0.4699
 7574TIP3   OH246916   0.431   1.011   0.142 -0.2358  0.1522  0.7281
 7574TIP3    H146917   0.512   1.060   0.124  1.0651 -1.6564  1.3693
 7574TIP3    H246918   0.455   0.949   0.211 -2.0643 -0.7625  0.6042
 7575TIP3   OH246919   1.954   7.355   7.511  0.3464  0.3666  0.5483
 7575TIP3    H146920   1.871   7.357   7.558 -0.8565  0.1524 -1.4124
 7575TIP3    H246921   1.991   7.269   7.533 -0.2977  0.1726  0.9155
 7576TIP3   OH246922   5.530   0.367   9.581  0.3310 -0.5309  0.9340
 7576TIP3    H146923   5.508   0.275   9.577  2.8806 -1.1818 -0.7291
 7576TIP3    H246924   5.481   0.408   9.510  0.5074 -0.9318  0.5840
 7577TIP3   OH246925   2.081   7.315   3.303  0.1036 -0.2734 -0.0510
 7577TIP3    H146926   2.160   7.354   3.339 -0.5451  1.0881 -0.0300
 7577TIP3    H246927   2.109   7.274   3.221  0.6161  1.3232 -0.7154
 7578TIP3   OH246928   7.027   3.128   9.971  0.3199 -0.2233 -0.0878
 7578TIP3    H146929   7.043   3.176  10.052  0.3525 -1.4861  0.6768
 7578TIP3    H246930   6.951   3.073   9.990 -0.3256  0.2230 -1.2609
 7579TIP3   OH246931   7.242   2.792   8.934  0.2477  0.4433 -0.3201
 7579TIP3    H146932   7.261   2.727   8.866  0.6344 -0.1111  0.3023
 7579TIP3    H246933   7.154   2.822   8.915 -0.1977 -0.7457 -0.2586
 7580TIP3   OH246934   5.120   7.422   9.676  0.5069 -0.0002  0.5755
 7580TIP3    H146935   5.212   7.401   9.661  1.7370  4.1651  0.9176
 7580TIP3    H246936   5.095   7.473   9.599 -1.0738  0.1153  1.1333
 7581TIP3   OH246937   3.216   1.237   6.904 -0.3850  0.0478 -0.1971
 7581TIP3    H146938   3.141   1.188   6.937 -0.1830 -0.5545 -0.6062
 7581TIP3    H246939   3.191   1.261   6.814  0.3557 -1.1632 -0.7511
 7582TIP3   OH246940   3.190   3.514   9.666  0.1542  0.6108  0.1412
 7582TIP3    H146941   3.188   3.510   9.571  1.0623  0.1447  0.1225
 7582TIP3    H246942   3.122   3.577   9.690 -1.4225 -0.6809 -0.7121
 7583TIP3   OH246943   3.520   7.193   0.054  0.1793 -0.0870 -0.1787
 7583TIP3    H146944   3.432   7.165   0.081 -0.5734  0.7609 -1.6383
 7583TIP3    H246945   3.534   7.152  -0.031  0.6702  0.7924 -0.5361
 7584TIP3   OH246946   2.432   6.088   8.943  0.0315 -0.0833 -0.1810
 7584TIP3    H146947   2.347   6.127   8.963 -0.6362 -0.7014 -1.6858
 7584TIP3    H246948   2.419   5.994   8.952  1.4248 -0.1315  2.6315
 7585TIP3   OH246949   1.942   6.642   8.541 -0.7883 -0.0503 -0.3110
 7585TIP3    H146950   1.912   6.615   8.455 -2.4273  0.2770  0.1356
 7585TIP3    H246951   1.895   6.586   8.602  0.6202 -0.5222  0.3984
 7586TIP3   OH246952   0.442   2.463   9.229 -0.3579 -0.0231 -0.2405
 7586TIP3    H146953   0.469   2.373   9.210 -1.5184 -0.5862  0.6884
 7586TIP3    H246954   0.479   2.481   9.315 -1.0407  0.0056  0.0456
 7587TIP3   OH246955   2.629   4.120   9.345  0.0560 -0.0330  0.3506
 7587TIP3    H146956   2.670   4.199   9.309 -0.1730  0.8560  1.9423
 7587TIP3    H246957   2.611   4.066   9.269 -0.5077  1.7950 -0.8809
 7588TIP3   OH246958   3.522   6.751   8.400  0.3381  0.0871  0.5452
 7588TIP3    H146959   3.479   6.835   8.418 -0.6398 -0.3969  0.5535
 7588TIP3    H246960   3.482   6.720   8.319  0.1487 -0.7165  0.9369
 7589TIP3   OH246961   0.769   4.409   8.651 -0.2935 -0.3154 -0.2900
 7589TIP3    H146962   0.754   4.440   8.562 -0.5234 -1.3734 -0.6397
 7589TIP3    H246963   0.840   4.345   8.643  1.3026  1.2625  0.6579
 7590TIP3   OH246964   4.966   6.883   0.742  0.0172 -0.1516  0.3604
 7590TIP3    H146965   4.920   6.802   0.723  0.5313  0.0297 -1.8232
 7590TIP3    H246966   5.059   6.862   0.733  0.1876  0.5215  0.4494
 7591TIP3   OH246967   5.222   6.108   0.416 -0.1759  0.2464 -0.3347
 7591TIP3    H146968   5.294   6.046   0.409  0.5598  1.1800 -1.3962
 7591TIP3    H246969   5.262   6.194   0.402 -0.9857  1.1158  2.1640
 7592TIP3   OH246970   7.160   3.513   8.768  0.4058  0.2249 -0.9510
 7592TIP3    H146971   7.088   3.509   8.831  0.7453  0.2629 -0.5561
 7592TIP3    H246972   7.163   3.605   8.742 -0.0107  0.1295 -1.3507
 7593TIP3   OH246973   0.962   3.650   9.202 -0.2619  0.1501  0.0981
 7593TIP3    H146974   0.879   3.688   9.173 -0.9920 -0.6862  1.0628
 7593TIP3    H246975   0.939   3.590   9.273  1.0692 -0.7298 -0.1644
 7594TIP3   OH246976   6.602   6.914   1.629 -0.2458  0.1061 -0.3196
 7594TIP3    H146977   6.685   6.906   1.582 -0.0627  1.3813 -0.2419
 7594TIP3    H246978   6.615   6.865   1.710 -0.0811 -0.9231 -0.9448
 7595TIP3   OH246979   3.559   0.277   7.842  0.0795  0.1775  0.5162
 7595TIP3    H146980   3.593   0.355   7.798 -0.8596 -0.1830 -0.9089
 7595TIP3    H246981   3.622   0.208   7.823  0.0654  0.2030  0.3817
 7596TIP3   OH246982   4.995   7.594   8.999 -0.4585  0.8447 -0.1557
 7596TIP3    H146983   4.917   7.602   8.944 -0.7989 -0.3808  0.1351
 7596TIP3    H246984   5.049   7.670   8.974 -1.6501  1.6129 -0.4746
 7597TIP3   OH246985   5.574   4.671   9.357 -0.2669  0.3992  0.4251
 7597TIP3    H146986   5.503   4.665   9.293  1.0924 -2.7310 -1.0540
 7597TIP3    H246987   5.551   4.608   9.425  0.3849  0.4301  0.6869
 7598TIP3   OH246988   2.977   3.877   7.285 -0.0022  0.4124 -0.1457
 7598TIP3    H146989   2.899   3.822   7.288  0.9015 -0.9307 -0.0156
 7598TIP3    H246990   2.988   3.898   7.192  1.6967 -2.8540 -0.8462
 7599TIP3   OH246991   6.491   6.329   8.486 -0.1139 -0.2398 -0.6723
 7599TIP3    H146992   6.481   6.241   8.449 -0.0851 -0.2166 -0.7356
 7599TIP3    H246993   6.537   6.378   8.418 -0.4212 -0.0858 -0.7741
 7600TIP3   OH246994   0.987   2.951   9.422 -0.0381 -0.0966 -0.6524
 7600TIP3    H146995   0.945   2.958   9.336  1.8852 -0.8094 -1.6929
 7600TIP3    H246996   0.940   3.015   9.476 -2.0453 -0.4210 -1.8754
 7601TIP3   OH246997   4.803   0.694   8.639 -0.4921 -0.6955  0.3500
 7601TIP3    H146998   4.840   0.620   8.591  0.5431  0.3543 -0.5531
 7601TIP3    H246999   4.733   0.727   8.582  0.6001  0.4266 -0.3801
 7602TIP3   OH247000   0.178   3.874   2.797 -1.0313 -0.0452  0.7179
 7602TIP3    H147001   0.167   3.958   2.842 -0.5435 -0.6493  2.0042
 7602TIP3    H247002   0.216   3.816   2.863 -1.0210 -1.1834 -0.2581
 7603TIP3   OH247003   0.413   5.890   8.494  0.4078 -0.4590 -0.6633
 7603TIP3    H147004   0.495   5.887   8.544  0.2884  1.5975 -0.2702
 7603TIP3    H247005   0.434   5.943   8.417 -0.2625 -0.8668 -1.1352
 7604TIP3   OH247006   3.072   5.969   9.322 -0.2516 -0.4051 -0.0509
 7604TIP3    H147007   2.983   5.973   9.358 -0.3929 -0.3591 -0.4000
 7604TIP3    H247008   3.061   5.928   9.236  0.2470 -1.6118  0.4533
 7605TIP3   OH247009   4.928   7.634   1.004  0.2703  0.2326 -0.1093
 7605TIP3    H147010   4.946   7.572   0.933  1.6368  0.0561  0.3621
 7605TIP3    H247011   4.969   7.715   0.975  0.3318  0.3207  0.2218
 7606TIP3   OH247012   2.411   7.042   7.308 -0.0834 -0.1204 -0.1252
 7606TIP3    H147013   2.316   7.052   7.318 -0.1016 -0.7822  0.4953
 7606TIP3    H247014   2.435   7.103   7.238 -0.9521  0.1114 -0.2308
 7607TIP3   OH247015   7.417   6.633   0.327  0.1273 -0.5993 -0.5027
 7607TIP3    H147016   7.411   6.618   0.421 -2.8180  1.5401 -0.2300
 7607TIP3    H247017   7.393   6.549   0.288 -1.3793 -0.7732  0.7158
 7608TIP3   OH247018   1.568   6.553   2.614  0.4735 -0.3939  0.6394
 7608TIP3    H147019   1.589   6.479   2.558 -1.8323 -1.0181  0.4858
 7608TIP3    H247020   1.493   6.523   2.666 -0.4976  1.7882  0.6014
 7609TIP3   OH247021   1.510   1.984   0.649  0.2575  0.1370  0.5277
 7609TIP3    H147022   1.514   2.069   0.606  0.8858  0.4877  1.2586
 7609TIP3    H247023   1.552   1.997   0.734  1.5992 -1.2072  0.1369
 7610TIP3   OH247024   1.316   1.197   0.306 -0.4639 -0.0758  0.1933
 7610TIP3    H147025   1.378   1.134   0.269 -0.1878  1.1179 -1.4717
 7610TIP3    H247026   1.356   1.224   0.389  0.2949 -0.7139  0.0462
 7611TIP3   OH247027   3.581   0.459   2.397  0.2046  0.1900 -0.9812
 7611TIP3    H147028   3.649   0.475   2.332  1.8620  1.4075  0.9147
 7611TIP3    H247029   3.569   0.543   2.440 -1.4670 -0.3613 -0.2951
 7612TIP3   OH247030   0.572   0.153   9.654 -0.2043 -1.5520 -0.2837
 7612TIP3    H147031   0.555   0.187   9.566 -0.9976 -1.1726  0.0157
 7612TIP3    H247032   0.581   0.058   9.641  1.9494 -1.3074 -1.1103
 7613TIP3   OH247033   5.338   5.200   9.770  0.4251  0.2739 -0.2155
 7613TIP3    H147034   5.415   5.145   9.784  1.2300  1.7451  1.6776
 7613TIP3    H247035   5.328   5.248   9.852 -0.1680  3.0070 -1.7671
 7614TIP3   OH247036   0.252   5.071   1.591 -0.2816  0.1532 -0.2539
 7614TIP3    H147037   0.314   5.050   1.521 -0.0502  1.0530 -0.3228
 7614TIP3    H247038   0.301   5.052   1.672  0.1549  1.0095 -0.3039
 7615TIP3   OH247039   2.506   3.020   9.366 -0.4878  0.0372  0.1131
 7615TIP3    H147040   2.581   3.031   9.308 -1.1159  1.5569 -0.4790
 7615TIP3    H247041   2.537   3.049   9.452  0.1013 -1.0872  0.3017
 7616TIP3   OH247042   0.910   5.929   2.914  0.0947 -0.3999  0.0326
 7616TIP3    H147043   0.857   5.900   2.839  0.3053 -1.4297  0.2682
 7616TIP3    H247044   1.000   5.922   2.883  0.1697 -0.5279  0.2787
 7617TIP3   OH247045   5.598   2.450   8.698 -0.7403  0.0871 -0.3882
 7617TIP3    H147046   5.593   2.406   8.614  0.0109  0.8571 -0.8526
 7617TIP3    H247047   5.644   2.388   8.755  1.3795  0.6856 -1.3549
 7618TIP3   OH247048   6.908   3.989   1.193 -0.1126 -0.0266 -0.2112
 7618TIP3    H147049   6.879   4.059   1.251  1.1473 -0.8479  1.4964
 7618TIP3    H247050   6.892   3.908   1.242 -0.5097 -0.8916 -1.6840
 7619TIP3   OH247051   6.337   2.132   0.256 -0.5094 -0.2922  0.1274
 7619TIP3    H147052   6.414   2.075   0.261 -0.2388  0.1670  1.5070
 7619TIP3    H247053   6.273   2.081   0.205  1.5018  0.3018 -3.2913
 7620TIP3   OH247054   4.470   7.085   7.241 -0.1325  0.2199  0.4098
 7620TIP3    H147055   4.484   7.022   7.170 -0.9932  0.5277 -0.0457
 7620TIP3    H247056   4.386   7.059   7.279 -0.4976  1.0897  0.2143
 7621TIP3   OH247057   0.424   5.770   9.956 -0.8137  0.4239  0.3240
 7621TIP3    H147058   0.491   5.705   9.936 -0.1215  1.0804  0.4658
 7621TIP3    H247059   0.404   5.758  10.049  0.5949  1.5554  0.7993
 7622TIP3   OH247060   2.132   2.576   8.315 -0.0032  0.1535 -0.1902
 7622TIP3    H147061   2.072   2.634   8.363 -0.6248 -0.7075  0.0859
 7622TIP3    H247062   2.087   2.492   8.313  1.2673 -0.5451  0.1257
 7623TIP3   OH247063   7.239   2.918   0.052  0.6578  0.2013 -0.2057
 7623TIP3    H147064   7.160   2.927   0.107  0.9546  1.7247  0.0304
 7623TIP3    H247065   7.261   3.008   0.028 -0.3156 -0.4479 -4.1365
 7624TIP3   OH247066   7.398   5.789   1.202 -0.5344 -0.1257 -0.4674
 7624TIP3    H147067   7.381   5.792   1.296 -2.1767 -0.3765 -0.7313
 7624TIP3    H247068   7.431   5.876   1.181  2.7161 -0.9275  0.7965
 7625TIP3   OH247069   0.417   7.233   9.875  0.1435  0.1316  0.1082
 7625TIP3    H147070   0.459   7.273   9.799 -1.9424  0.9730 -0.6671
 7625TIP3    H247071   0.474   7.255   9.948  1.4000  0.6256 -0.9810
 7626TIP3   OH247072   0.865   1.258   0.796 -0.5171  0.0666  0.0115
 7626TIP3    H147073   0.773   1.246   0.773  0.3720 -1.2188 -3.4672
 7626TIP3    H247074   0.899   1.169   0.806  0.6899  0.4385 -0.5503
 7627TIP3   OH247075   0.792   5.033   1.113  0.1769  0.1876 -0.2647
 7627TIP3    H147076   0.735   5.021   1.037  0.6181  0.2680 -0.6130
 7627TIP3    H247077   0.863   4.970   1.101 -0.4305 -0.7282  0.7611
 7628TIP3   OH247078   4.546   0.336   9.664 -0.6151  0.0672 -0.5313
 7628TIP3    H147079   4.539   0.352   9.758  0.2652 -2.6441  0.0880
 7628TIP3    H247080   4.465   0.290   9.642 -0.3869 -0.1793 -0.8674
 7629TIP3   OH247081   3.235   3.842   0.474  0.2629 -0.5686 -0.1239
 7629TIP3    H147082   3.176   3.767   0.462 -0.4680  0.1428 -1.2168
 7629TIP3    H247083   3.238   3.884   0.388  0.1518  1.0164  0.6056
 7630TIP3   OH247084   7.156   3.388   9.786 -0.3098 -0.2501  0.4159
 7630TIP3    H147085   7.206   3.463   9.751  0.0268 -0.6847 -0.0501
 7630TIP3    H247086   7.162   3.398   9.881  1.2548 -0.6663  0.3834
 7631TIP3   OH247087   5.231   4.475   9.911  0.0854  0.3749 -0.1297
 7631TIP3    H147088   5.286   4.446   9.984  0.5897  1.2296 -0.1490
 7631TIP3    H247089   5.149   4.428   9.922 -0.1471  1.0914  1.4813
 7632TIP3   OH247090   2.291   2.814   7.770 -0.1953 -0.0563  0.3064
 7632TIP3    H147091   2.200   2.832   7.793 -0.0412  0.6931  0.3377
 7632TIP3    H247092   2.317   2.743   7.830  0.0154  1.4463  2.1111
 7633TIP3   OH247093   0.673   4.041   2.511  0.0913 -0.0574  0.0429
 7633TIP3    H147094   0.595   3.996   2.545  0.1615  1.1948  1.9979
 7633TIP3    H247095   0.641   4.087   2.433 -0.2828 -2.3120 -1.2080
 7634TIP3   OH247096   3.788   3.190   8.598  0.3286  0.5469 -0.2039
 7634TIP3    H147097   3.728   3.232   8.536 -0.7795 -2.0313 -1.0233
 7634TIP3    H247098   3.730   3.147   8.661  1.3991  0.4118  0.7138
 7635TIP3   OH247099   6.612   1.623   0.819 -0.3150  0.5650 -0.6630
 7635TIP3    H147100   6.533   1.670   0.791 -0.2163  0.2177 -1.5703
 7635TIP3    H247101   6.671   1.630   0.744 -0.9412 -2.4775 -1.5848
 7636TIP3   OH247102   1.202   0.025   8.772 -0.7868 -0.0238  0.0729
 7636TIP3    H147103   1.153   0.094   8.818  1.0856  0.7458  1.0118
 7636TIP3    H247104   1.294   0.042   8.793 -0.0540 -1.2759 -1.7966
 7637TIP3   OH247105   4.648   2.790   0.131  0.1531  0.6336  0.3409
 7637TIP3    H147106   4.605   2.839   0.201  0.9703  1.2331  0.4411
 7637TIP3    H247107   4.644   2.848   0.055 -3.2099 -1.1014 -0.9619
 7638TIP3   OH247108   5.835   6.514   1.322  0.3467  0.1307 -0.3839
 7638TIP3    H147109   5.891   6.583   1.355 -0.7565  0.8883 -0.0300
 7638TIP3    H247110   5.766   6.559   1.272 -0.6236 -0.6537  0.1903
 7639TIP3   OH247111   1.801   7.346   1.905  0.3406 -0.1019 -0.4747
 7639TIP3    H147112   1.848   7.424   1.935 -0.4082 -0.5430  2.0914
 7639TIP3    H247113   1.845   7.273   1.948 -1.3522 -0.7102  0.3173
 7640TIP3   OH247114   5.086   7.107   1.382  0.0177 -0.0275  0.3642
 7640TIP3    H147115   5.087   7.106   1.478 -0.9073  0.4308  0.3929
 7640TIP3    H247116   5.017   7.169   1.360  0.6685  0.3799 -0.6096
 7641TIP3   OH247117   0.915   0.882   7.050 -0.2530  0.0358 -0.2993
 7641TIP3    H147118   0.982   0.924   7.103 -0.3814 -0.3273  0.1586
 7641TIP3    H247119   0.940   0.901   6.960  0.4614 -0.0863 -0.1329
 7642TIP3   OH247120   6.256   6.495   0.776 -0.4708  0.5740  0.1731
 7642TIP3    H147121   6.344   6.514   0.808  0.1541 -0.1924 -1.0300
 7642TIP3    H247122   6.217   6.439   0.844 -0.1907  1.2332  0.8923
 7643TIP3   OH247123   0.317   1.140   1.869 -0.0543  0.6585  0.0382
 7643TIP3    H147124   0.269   1.058   1.851  0.8973 -0.3619  1.8450
 7643TIP3    H247125   0.408   1.120   1.848  0.3042  0.9826  1.1778
 7644TIP3   OH247126   3.703   7.301   1.375 -0.5327 -0.0208  0.1562
 7644TIP3    H147127   3.718   7.348   1.457 -0.2971  0.1046  0.0417
 7644TIP3    H247128   3.785   7.311   1.326 -0.4888 -0.5279  0.1201
 7645TIP3   OH247129   4.840   7.469   1.185 -0.0285 -0.2634  0.5236
 7645TIP3    H147130   4.872   7.538   1.127 -0.5044  0.2450  0.8467
 7645TIP3    H247131   4.864   7.387   1.141 -1.6667  0.0773 -1.1645
 7646TIP3   OH247132   2.041   3.777   7.958 -0.3135 -0.1878  0.7313
 7646TIP3    H147133   2.020   3.685   7.941 -0.5096  0.1911 -1.2678
 7646TIP3    H247134   1.972   3.807   8.017 -3.7090  0.0965 -2.9090
 7647TIP3   OH247135   6.710   4.740   0.749 -0.2962 -0.3290  0.0626
 7647TIP3    H147136   6.684   4.736   0.657 -1.3593  0.3130  0.3181
 7647TIP3    H247137   6.692   4.653   0.783 -0.9909 -0.2414 -0.0664
 7648TIP3   OH247138   2.958   2.748   8.268 -0.3780 -0.1927  0.0198
 7648TIP3    H147139   3.009   2.768   8.346  0.2015 -1.2861 -0.0630
 7648TIP3    H247140   3.020   2.757   8.195 -0.3883 -1.1827 -0.1160
 7649TIP3   OH247141   5.899   6.425   2.509  0.5182  0.4226  0.0607
 7649TIP3    H147142   5.938   6.354   2.559 -0.7037  0.4432  1.0869
 7649TIP3    H247143   5.960   6.440   2.437  2.0881  0.0705  1.2601
 7650TIP3   OH247144   1.804   1.525   7.656 -0.8806  0.3349 -0.6476
 7650TIP3    H147145   1.820   1.434   7.681 -0.2100  0.3617 -0.9489
 7650TIP3    H247146   1.873   1.545   7.592 -0.8141  1.1530 -0.3341
 7651TIP3   OH247147   3.709   6.663   2.021  0.0886 -0.2242  0.1381
 7651TIP3    H147148   3.791   6.619   2.002 -0.5685 -1.2179 -0.4696
 7651TIP3    H247149   3.735   6.751   2.049  1.3232 -0.2564 -0.8006
 7652TIP3   OH247150   4.400   1.593   1.739 -0.7949 -0.4406  0.1874
 7652TIP3    H147151   4.317   1.597   1.786 -0.6861 -0.5733  0.3917
 7652TIP3    H247152   4.466   1.608   1.806 -0.7295  1.8762 -0.3191
 7653TIP3   OH247153   0.987   0.090   2.047 -0.3698 -0.5884 -0.0226
 7653TIP3    H147154   0.914   0.109   1.988  1.4296 -0.3335 -2.3244
 7653TIP3    H247155   1.008  -0.002   2.030  0.0656 -0.5631  0.3483
 7654TIP3   OH247156   3.320   3.210   8.468  0.0344  0.0409  0.1475
 7654TIP3    H147157   3.239   3.259   8.450  0.3469  0.7324  0.5707
 7654TIP3    H247158   3.312   3.184   8.560  0.0871 -0.3002  0.0578
 7655TIP3   OH247159   6.455   4.590   8.987  0.2879 -0.5411 -0.0363
 7655TIP3    H147160   6.548   4.573   9.001  0.3017  0.4511  1.2631
 7655TIP3    H247161   6.449   4.685   8.976 -0.6935 -0.4423  1.1386
 7656TIP3   OH247162   3.125   4.104   6.734 -0.2485  0.1285 -0.0462
 7656TIP3    H147163   3.142   4.153   6.654 -0.8371  0.2757 -0.0883
 7656TIP3    H247164   3.117   4.013   6.705  2.5356 -0.2829  0.2511
 7657TIP3   OH247165   2.927   1.487   9.786 -0.2105  0.0601 -0.7407
 7657TIP3    H147166   2.930   1.578   9.757 -1.7410  0.1233 -0.7999
 7657TIP3    H247167   2.838   1.477   9.822  0.4608 -0.9810  0.6944
 7658TIP3   OH247168   1.442   5.577   0.944 -0.5755  0.1179 -0.0817
 7658TIP3    H147169   1.527   5.621   0.944 -0.5551  0.0780 -0.0878
 7658TIP3    H247170   1.461   5.487   0.917 -0.5337 -0.0530  0.5005
 7659TIP3   OH247171   5.472   1.008   1.272 -0.1898  0.2691  0.3979
 7659TIP3    H147172   5.379   0.986   1.267 -0.1278  0.1526 -0.2670
 7659TIP3    H247173   5.495   1.036   1.184  0.3819  0.3998  0.5877
 7660TIP3   OH247174   4.075   3.071   8.677 -1.1900  0.5389 -0.3933
 7660TIP3    H147175   4.132   3.117   8.740 -1.6250  0.6367 -0.0687
 7660TIP3    H247176   4.028   3.141   8.632 -1.6502  0.4281 -0.0908
 7661TIP3   OH247177   3.677   4.105   9.880 -0.2837  0.3647  0.5408
 7661TIP3    H147178   3.706   4.145   9.798 -1.1999 -0.4923 -0.2361
 7661TIP3    H247179   3.620   4.033   9.852 -0.6534  0.0911  1.9371
 7662TIP3   OH247180   5.112   2.163   9.490 -0.2786 -0.2587  0.1040
 7662TIP3    H147181   5.086   2.099   9.556  0.0720 -0.4771  0.0359
 7662TIP3    H247182   5.206   2.173   9.502 -0.3511  0.3545  0.2044
 7663TIP3   OH247183   0.084   6.340   1.190  0.1616 -0.0047  0.6029
 7663TIP3    H147184   0.003   6.337   1.240 -1.1399  0.8156 -1.3574
 7663TIP3    H247185   0.149   6.376   1.251 -0.9523 -0.4944  2.1351
 7664TIP3   OH247186   2.270   1.133   1.602  0.9219 -0.0437  0.2993
 7664TIP3    H147187   2.262   1.185   1.522  2.9665 -0.2738 -0.1233
 7664TIP3    H247188   2.180   1.116   1.630  0.1931  1.5356 -0.9664
 7665TIP3   OH247189   4.066   1.130   7.589  0.5265  0.5731 -0.2383
 7665TIP3    H147190   4.149   1.143   7.636  0.6823 -0.0129 -0.3444
 7665TIP3    H247191   4.000   1.165   7.648  0.6338 -0.8932  0.8075
 7666TIP3   OH247192   0.845   7.413   7.838  0.2555 -0.0363 -0.1495
 7666TIP3    H147193   0.782   7.413   7.910  0.3048  1.0057 -0.0962
 7666TIP3    H247194   0.799   7.454   7.765  1.8322  3.9200  0.8217
 7667TIP3   OH247195   1.058   1.709   1.505 -0.1711  1.0022 -0.3650
 7667TIP3    H147196   1.141   1.677   1.540  0.7846  3.1106 -0.5156
 7667TIP3    H247197   0.991   1.655   1.548  1.1935  0.3588  1.0403
 7668TIP3   OH247198   6.346   3.223   7.416  0.1916  0.2384  0.0129
 7668TIP3    H147199   6.347   3.313   7.448 -0.2256  0.4795 -0.6306
 7668TIP3    H247200   6.432   3.189   7.439  0.8749  1.2420 -0.9485
 7669TIP3   OH247201   3.136   6.368   2.100 -0.6333  0.0499 -0.0451
 7669TIP3    H147202   3.133   6.457   2.065  0.1701 -0.3536 -1.2103
 7669TIP3    H247203   3.045   6.344   2.115 -0.8389  1.1515  0.4906
 7670TIP3   OH247204   7.681   0.005   6.798 -0.0276 -0.2247  0.2499
 7670TIP3    H147205   7.713  -0.013   6.887  0.7608 -2.8894 -0.4625
 7670TIP3    H247206   7.614  -0.062   6.783 -0.7665  0.7422 -0.8735
 7671TIP3   OH247207   0.382   7.075   7.665  0.0917  0.6017  0.2118
 7671TIP3    H147208   0.446   7.013   7.698  0.6644  0.7955 -0.5037
 7671TIP3    H247209   0.384   7.147   7.728 -0.5331 -0.0566  1.0098
 7672TIP3   OH247210   5.067   1.302   9.823  0.0878 -0.2990 -0.5061
 7672TIP3    H147211   5.006   1.237   9.788  0.9202 -2.1409  1.3051
 7672TIP3    H247212   5.149   1.284   9.777  1.2539 -2.8852  2.2551
 7673TIP3   OH247213   4.868   2.494   9.365  0.2008  0.1974  0.2415
 7673TIP3    H147214   4.825   2.424   9.316  0.2085  1.2531 -1.3529
 7673TIP3    H247215   4.900   2.554   9.297  0.0118  1.8539  1.5556
 7674TIP3   OH247216   4.335   0.865   1.349 -0.2058 -0.0274 -0.1929
 7674TIP3    H147217   4.346   0.807   1.425 -2.0017 -0.1546  0.0198
 7674TIP3    H247218   4.423   0.872   1.311  0.5326 -0.8090  1.2778
 7675TIP3   OH247219   6.451   7.253   7.477  0.2700  0.4343 -0.2466
 7675TIP3    H147220   6.396   7.302   7.538  0.8750 -2.2627  2.7450
 7675TIP3    H247221   6.535   7.299   7.479 -0.1129  1.1530 -0.1781
 7676TIP3   OH247222   2.535   6.978   9.630 -0.4165 -0.1040 -0.7425
 7676TIP3    H147223   2.615   6.994   9.581  0.5636 -2.8193 -0.1931
 7676TIP3    H247224   2.477   6.933   9.568 -0.5384 -0.4276 -0.3943
 7677TIP3   OH247225   0.950   2.529   0.937 -0.3404 -0.0022  0.3206
 7677TIP3    H147226   0.939   2.582   1.016  1.2604  0.8934 -0.0155
 7677TIP3    H247227   0.918   2.442   0.961  1.9727 -0.3216  2.6157
 7678TIP3   OH247228   1.231   7.205   9.310  0.0891  0.2513  0.4262
 7678TIP3    H147229   1.289   7.220   9.235  0.5829  0.6054  0.8677
 7678TIP3    H247230   1.159   7.267   9.298 -1.2503 -1.4947 -1.1441
 7679TIP3   OH247231   0.743   4.538   7.284  0.1207  0.0412 -0.0232
 7679TIP3    H147232   0.813   4.587   7.241  0.5339  2.0042  2.6252
 7679TIP3    H247233   0.663   4.584   7.261  0.2160  0.4406  0.4388
 7680TIP3   OH247234   0.243   3.693   2.996 -0.0549 -0.3279 -0.4068
 7680TIP3    H147235   0.326   3.648   2.979 -0.0282 -0.6433  0.4921
 7680TIP3    H247236   0.177   3.624   2.993  0.1564 -0.7583  2.4486
 7681TIP3   OH247237   0.416   5.065   0.501  0.0466 -0.1595  0.5443
 7681TIP3    H147238   0.492   5.036   0.450 -0.5524 -2.9177  1.0850
 7681TIP3    H247239   0.347   5.079   0.436  0.2723 -0.2388  0.2877
 7682TIP3   OH247240   2.034   0.993   8.082 -0.9432 -0.2888 -0.1160
 7682TIP3    H147241   1.996   0.928   8.023 -0.4435 -1.3881  0.7271
 7682TIP3    H247242   2.033   0.951   8.168 -2.9492  1.7958  0.9724
 7683TIP3   OH247243   0.322   4.207   7.643  0.1887  0.1356 -0.1487
 7683TIP3    H147244   0.398   4.168   7.599 -0.7642 -0.1824 -1.5927
 7683TIP3    H247245   0.256   4.213   7.574 -0.7402  1.4208  0.8093
 7684TIP3   OH247246   2.027   1.917   8.886  0.3652 -0.3922  0.2049
 7684TIP3    H147247   2.120   1.920   8.864  0.3584 -0.4922  0.1644
 7684TIP3    H247248   1.997   1.832   8.853  0.0904 -0.0430 -0.4714
 7685TIP3   OH247249   0.856   6.567   0.719 -0.0624  0.0407  0.1578
 7685TIP3    H147250   0.843   6.479   0.755 -2.0218  1.6152  3.9350
 7685TIP3    H247251   0.949   6.586   0.735  0.0395 -0.8202  0.6537
 7686TIP3   OH247252   4.693   7.039   1.693 -0.0706  0.6755  0.0919
 7686TIP3    H147253   4.742   6.992   1.760 -0.8086 -0.4633 -0.1577
 7686TIP3    H247254   4.612   7.067   1.737 -1.4772 -1.7710 -0.7742
 7687TIP3   OH247255   7.674   1.238   7.086  0.4646  0.7152 -0.2148
 7687TIP3    H147256   7.716   1.152   7.083 -0.9210  0.0204 -1.6604
 7687TIP3    H247257   7.583   1.219   7.108  0.3640  1.9330  0.4879
 7688TIP3   OH247258   7.480   6.574   8.151  0.0812  0.6386  0.6364
 7688TIP3    H147259   7.559   6.580   8.098 -0.5127  0.4904 -0.2946
 7688TIP3    H247260   7.499   6.627   8.228  1.9153 -1.2212  1.5404
 7689TIP3   OH247261   1.132   1.504   7.245 -0.1803 -0.1806  0.1030
 7689TIP3    H147262   1.171   1.434   7.191  0.8468  1.4213 -1.3273
 7689TIP3    H247263   1.064   1.541   7.189 -2.1180 -1.2848  1.6262
 7690TIP3   OH247264   7.292   3.452   8.472  0.0450  0.1302  0.1321
 7690TIP3    H147265   7.342   3.388   8.420 -1.0876 -0.0207 -0.8280
 7690TIP3    H247266   7.305   3.535   8.427 -0.2106  0.1709  0.1303
 7691TIP3   OH247267   7.573   2.708   8.320 -0.4335 -0.2056 -0.0351
 7691TIP3    H147268   7.504   2.740   8.261  0.0313 -0.8803 -0.9723
 7691TIP3    H247269   7.571   2.768   8.395 -2.1662 -0.3334  0.0515
 7692TIP3   OH247270   2.946   5.921   0.330 -0.0848  0.0476 -0.2257
 7692TIP3    H147271   2.967   5.828   0.336  0.9726  0.1808 -1.4798
 7692TIP3    H247272   2.889   5.937   0.405 -2.2304 -2.1132 -1.2678
 7693TIP3   OH247273   0.844   7.360   8.176 -0.1425 -0.6088 -0.0032
 7693TIP3    H147274   0.892   7.279   8.164  0.3971 -0.4331  0.8571
 7693TIP3    H247275   0.854   7.380   8.270 -0.9196  0.0356 -0.0462
 7694TIP3   OH247276   2.204   1.362   0.936  0.1434 -0.4267  1.4471
 7694TIP3    H147277   2.190   1.391   1.026  2.0309 -0.1770  1.6964
 7694TIP3    H247278   2.240   1.438   0.891  0.3939 -0.9095  0.8069
 7695TIP3   OH247279   1.088   4.460   0.258  0.2173  0.6874  0.1683
 7695TIP3    H147280   1.025   4.455   0.186  0.0070  1.0991  0.3215
 7695TIP3    H247281   1.113   4.369   0.274 -2.6736  0.0685  2.1457
 7696TIP3   OH247282   2.956   1.017   2.218 -0.2031  0.1133  0.0848
 7696TIP3    H147283   3.014   1.046   2.288 -0.4963  0.3967  0.2149
 7696TIP3    H247284   2.991   1.058   2.139 -0.6179  0.8454  0.2682
 7697TIP3   OH247285   7.490   0.877   2.966  0.1052  0.5258 -0.2332
 7697TIP3    H147286   7.443   0.952   3.001  0.3426  0.4419  0.2735
 7697TIP3    H247287   7.509   0.901   2.875 -0.9330  0.5417 -0.4545
 7698TIP3   OH247288   5.307   6.510   7.680 -0.0373  0.3463 -0.5245
 7698TIP3    H147289   5.293   6.531   7.588 -1.4169  0.0400 -0.4042
 7698TIP3    H247290   5.251   6.434   7.697  2.5265 -1.5840 -0.1848
 7699TIP3   OH247291   2.765   4.005   1.109  0.6767 -0.2043  0.1066
 7699TIP3    H147292   2.845   4.019   1.159  0.6202 -0.9499  0.4217
 7699TIP3    H247293   2.758   3.910   1.101  0.2684 -0.1203 -0.6493
 7700TIP3   OH247294   4.228   1.539   0.490  0.0460 -0.6877 -0.0548
 7700TIP3    H147295   4.268   1.581   0.414 -2.4013 -1.9477 -2.2025
 7700TIP3    H247296   4.198   1.454   0.457 -2.0644 -0.8390  2.0165
 7701TIP3   OH247297   6.917   3.260   1.534  0.0829  0.0516  0.8118
 7701TIP3    H147298   6.981   3.192   1.516 -0.2392 -0.0697  0.0780
 7701TIP3    H247299   6.854   3.253   1.462  1.1298  2.4361 -0.4664
 7702TIP3   OH247300   6.009   5.738   0.599  0.3309 -0.6532 -0.4551
 7702TIP3    H147301   5.943   5.670   0.584 -1.4807  1.3137 -2.1312
 7702TIP3    H247302   5.959   5.810   0.638  1.9766  0.1373  0.2782
 7703TIP3   OH247303   7.324   5.950   2.142  0.1994  0.4410  0.5464
 7703TIP3    H147304   7.251   5.971   2.085  0.8937 -1.4013 -1.1429
 7703TIP3    H247305   7.387   6.020   2.127 -0.4205  1.0087  0.5593
 7704TIP3   OH247306   6.783   4.722   8.372 -0.0328  0.1246 -0.6540
 7704TIP3    H147307   6.867   4.734   8.327 -0.2728  0.6585 -0.9780
 7704TIP3    H247308   6.771   4.802   8.423  0.0522 -0.3124  0.0651
 7705TIP3   OH247309   4.405   5.310   9.098  0.0196 -0.0362  0.5687
 7705TIP3    H147310   4.384   5.238   9.038 -0.7592  0.1813  0.5713
 7705TIP3    H247311   4.483   5.280   9.145  0.0684 -0.6154  0.1369
 7706TIP3   OH247312   3.715   0.659   9.254  0.4850 -0.6109 -0.0760
 7706TIP3    H147313   3.708   0.726   9.186 -0.4986 -0.3435  0.2703
 7706TIP3    H247314   3.702   0.707   9.336 -0.3285 -1.2340  0.1718
 7707TIP3   OH247315   7.353   4.734   1.314 -0.3368  0.0303 -0.2785
 7707TIP3    H147316   7.335   4.644   1.286  0.3186  0.3074 -1.6530
 7707TIP3    H247317   7.309   4.789   1.249  1.7083  0.6930 -1.1993
 7708TIP3   OH247318   2.720   7.295   9.322  0.3023  0.2441  0.1120
 7708TIP3    H147319   2.626   7.312   9.335  0.3856  0.9129 -0.1670
 7708TIP3    H247320   2.722   7.230   9.252  0.0460  0.0824  0.2488
 7709TIP3   OH247321   0.550   3.505   6.500 -0.5426 -0.3698 -0.1995
 7709TIP3    H147322   0.459   3.529   6.518 -0.6453 -1.0279  0.2073
 7709TIP3    H247323   0.570   3.439   6.567  0.5149  0.4093  0.2822
 7710TIP3   OH247324   2.946   2.382   1.187 -0.4541 -0.2306 -0.4925
 7710TIP3    H147325   2.971   2.370   1.278 -3.2381 -0.4745  0.3339
 7710TIP3    H247326   2.959   2.296   1.147 -1.0198 -0.6293  0.1737
 7711TIP3   OH247327   6.910   3.398   7.265  0.4645 -0.1493  0.1486
 7711TIP3    H147328   6.900   3.322   7.208  0.6973 -1.0044  1.2315
 7711TIP3    H247329   6.948   3.465   7.208 -0.4630 -0.5804 -1.0165
 7712TIP3   OH247330   6.187   6.731   3.212 -0.2933  0.0687  0.3220
 7712TIP3    H147331   6.274   6.694   3.230 -0.9319 -0.9059  1.5819
 7712TIP3    H247332   6.147   6.740   3.299 -1.5242  0.3318 -0.2568
 7713TIP3   OH247333   7.247   5.141   8.553 -0.5713  0.2359  0.2998
 7713TIP3    H147334   7.161   5.146   8.595 -0.0658  0.2422  1.3546
 7713TIP3    H247335   7.270   5.232   8.535 -1.2596  0.1700 -0.9952
 7714TIP3   OH247336   0.276   7.295   2.857  0.2461  0.6083 -0.2046
 7714TIP3    H147337   0.317   7.368   2.904  0.1682 -0.0570  0.9283
 7714TIP3    H247338   0.298   7.218   2.909 -1.3689  0.0726 -0.2845
 7715TIP3   OH247339   1.065   2.062   2.080 -0.1470  0.0188 -0.0517
 7715TIP3    H147340   0.989   2.045   2.135  0.9368  0.2092  1.5652
 7715TIP3    H247341   1.115   2.129   2.127  0.9492  0.0221 -1.1473
 7716TIP3   OH247342   2.152   6.097   9.127 -0.2017 -0.0352 -0.7203
 7716TIP3    H147343   2.189   6.160   9.188 -0.3360 -0.6340 -0.0058
 7716TIP3    H247344   2.123   6.025   9.182 -1.8643  0.1379 -1.3064
 7717TIP3   OH247345   7.279   1.460   9.169  0.0430 -0.0488  0.1208
 7717TIP3    H147346   7.346   1.484   9.233 -1.1064 -0.0224  1.3746
 7717TIP3    H247347   7.233   1.542   9.150  0.8848  0.1030 -1.4029
 7718TIP3   OH247348   1.853   0.407   7.850  0.1400 -0.4746 -0.1335
 7718TIP3    H147349   1.800   0.482   7.880 -1.1660 -0.2868 -2.6124
 7718TIP3    H247350   1.883   0.365   7.931  1.7854  3.2416  1.4162
 7719TIP3   OH247351   5.147   2.132   2.797  0.2557 -0.0914  0.3820
 7719TIP3    H147352   5.229   2.169   2.829  1.3599 -1.4716 -0.7508
 7719TIP3    H247353   5.138   2.049   2.843 -0.6263  0.1345  0.6410
 7720TIP3   OH247354   2.907   4.453   9.848  0.1672  0.2239 -0.0107
 7720TIP3    H147355   2.974   4.388   9.866  0.1529 -0.2095 -1.3838
 7720TIP3    H247356   2.894   4.448   9.753  0.3773  2.4437 -0.2022
 7721TIP3   OH247357   2.398   2.163   7.171 -0.6947  0.1939  0.6224
 7721TIP3    H147358   2.413   2.124   7.257 -0.8659  1.2279  1.1436
 7721TIP3    H247359   2.486   2.168   7.132 -0.0475  2.7609  2.1286
 7722TIP3   OH247360   1.722   6.514   2.006 -0.0480 -0.3331 -0.1566
 7722TIP3    H147361   1.747   6.593   1.959 -0.9250 -0.2385 -0.4882
 7722TIP3    H247362   1.626   6.515   2.006 -0.1177  0.1351  2.3957
 7723TIP3   OH247363   6.667   7.443   7.478 -0.2288  0.0066 -0.3536
 7723TIP3    H147364   6.620   7.492   7.546  0.8199 -0.4692  0.7445
 7723TIP3    H247365   6.697   7.510   7.417 -1.5583  0.4006 -0.6174
 7724TIP3   OH247366   2.597   2.833   1.886  0.8551  0.4987 -0.1412
 7724TIP3    H147367   2.598   2.811   1.793 -0.8109  1.5437 -0.4505
 7724TIP3    H247368   2.578   2.751   1.930  0.0242  0.3022 -0.8565
 7725TIP3   OH247369   3.345   6.938   8.466  0.0490  0.3491  0.0303
 7725TIP3    H147370   3.383   7.024   8.483 -1.0546  1.0840 -1.0141
 7725TIP3    H247371   3.293   6.919   8.544  2.2805 -0.5759  1.3803
 7726TIP3   OH247372   6.801   6.557   1.490  0.0096  0.0650  0.2441
 7726TIP3    H147373   6.853   6.543   1.569  0.0640 -1.2046  0.0014
 7726TIP3    H247374   6.777   6.469   1.461  0.0861  0.5003 -1.2243
 7727TIP3   OH247375   5.963   1.154   3.322  0.2493 -0.1178  0.4732
 7727TIP3    H147376   6.057   1.162   3.308 -0.0359  2.0444 -0.6610
 7727TIP3    H247377   5.950   1.177   3.414  0.8547 -0.7323  0.7127
 7728TIP3   OH247378   1.799   2.241   1.176 -0.0344 -0.6655 -0.0147
 7728TIP3    H147379   1.713   2.279   1.194  2.0591  5.3357 -0.3482
 7728TIP3    H247380   1.830   2.212   1.262 -1.5369 -0.9085  0.4818
 7729TIP3   OH247381   2.295   5.051   2.046 -0.2044  0.1285 -0.2368
 7729TIP3    H147382   2.328   5.124   2.099 -1.0650  0.9961 -0.8695
 7729TIP3    H247383   2.333   5.067   1.959 -0.1110 -0.3857 -0.2908
 7730TIP3   OH247384   7.437   0.651   9.822  0.4992  0.6095  0.8211
 7730TIP3    H147385   7.479   0.572   9.789  0.4445  0.7407  0.4361
 7730TIP3    H247386   7.488   0.674   9.900  2.1632  1.6453 -0.4886
 7731TIP3   OH247387   1.659   7.357   1.404 -0.2071  0.1764 -0.1454
 7731TIP3    H147388   1.690   7.385   1.490  0.3118 -0.7739 -0.0054
 7731TIP3    H247389   1.672   7.432   1.348  0.1078  0.5749  0.4516
 7732TIP3   OH247390   0.114   2.772   7.880 -0.1662  0.0698  0.1628
 7732TIP3    H147391   0.186   2.826   7.910 -0.4461  0.4928  0.0772
 7732TIP3    H247392   0.035   2.823   7.900 -0.3598  0.5249 -1.5994
 7733TIP3   OH247393   1.365   3.926   6.979 -1.0065  0.4584 -0.4463
 7733TIP3    H147394   1.330   3.882   7.056  0.0042 -0.7854 -0.6658
 7733TIP3    H247395   1.426   3.991   7.014 -1.0622  0.3708 -0.1835
 7734TIP3   OH247396   7.473   4.747   8.328 -0.2193 -0.5238  0.0129
 7734TIP3    H147397   7.447   4.794   8.249  0.5552  0.4238  0.2903
 7734TIP3    H247398   7.531   4.808   8.373 -1.0812 -0.8258  1.5933
 7735TIP3   OH247399   0.067   5.306   9.310 -0.6604 -0.0427  0.2262
 7735TIP3    H147400   0.131   5.271   9.249  0.1633  2.0783 -0.2022
 7735TIP3    H247401  -0.013   5.256   9.292  0.5790 -2.1399  0.1783
 7736TIP3   OH247402   4.628   4.048   9.394 -0.1892 -0.1510  0.0023
 7736TIP3    H147403   4.549   3.996   9.381 -0.9358  1.1689 -1.1147
 7736TIP3    H247404   4.689   4.017   9.327 -0.2679 -0.2846 -0.0068
 7737TIP3   OH247405   5.652   6.018   9.536  0.0390  0.5577  0.2578
 7737TIP3    H147406   5.735   5.995   9.494  0.1876  1.3375  0.1202
 7737TIP3    H247407   5.604   5.935   9.540 -0.0605  0.4747 -1.6654
 7738TIP3   OH247408   5.176   3.874   0.308  0.1451  0.1052 -0.0878
 7738TIP3    H147409   5.113   3.821   0.260 -0.9192  1.0021  0.2914
 7738TIP3    H247410   5.261   3.836   0.285 -0.3065  0.4191 -2.5793
 7739TIP3   OH247411   0.332   1.886   2.056 -0.2063  0.7536 -0.3107
 7739TIP3    H147412   0.312   1.959   2.114 -1.1212  0.0855  0.2448
 7739TIP3    H247413   0.255   1.829   2.061  1.2073 -1.2023  0.7718
 7740TIP3   OH247414   5.803   5.951   0.615 -0.4069 -0.0812  0.0499
 7740TIP3    H147415   5.726   5.954   0.558 -1.1845  0.2028  1.0742
 7740TIP3    H247416   5.774   5.993   0.696  0.0185 -2.2496  1.4056
 7741TIP3   OH247417   0.712   6.283   7.389  0.6143  0.0318  0.7310
 7741TIP3    H147418   0.735   6.287   7.482 -1.6590 -0.3677  1.3852
 7741TIP3    H247419   0.660   6.203   7.381  0.0055  0.5406 -0.6861
 7742TIP3   OH247420   0.064   0.003   9.907  0.0460  0.1120  0.3510
 7742TIP3    H147421   0.002  -0.044   9.962 -1.4663  0.0047 -1.3558
 7742TIP3    H247422   0.130  -0.063   9.884 -1.1708 -0.7840 -0.7038
 7743TIP3   OH247423   4.564   2.322   2.552 -0.1221 -0.4483  0.8378
 7743TIP3    H147424   4.617   2.335   2.473 -1.1561 -1.3044 -0.0248
 7743TIP3    H247425   4.616   2.362   2.622  0.2412  1.4800 -0.4567
 7744TIP3   OH247426   4.643   1.033   8.593  0.8700  0.0726 -0.4091
 7744TIP3    H147427   4.576   0.993   8.648 -0.1131  0.0994 -1.5516
 7744TIP3    H247428   4.670   0.963   8.534  1.1934  0.3193 -0.5569
 7745TIP3   OH247429   7.587   2.154   0.657 -0.0341 -0.2045 -0.3079
 7745TIP3    H147430   7.655   2.109   0.607  0.1419 -0.5503  0.2409
 7745TIP3    H247431   7.635   2.205   0.723 -0.2438  0.5567 -0.7248
 7746TIP3   OH247432   2.273   5.784   7.867 -0.4118 -0.5769  0.0320
 7746TIP3    H147433   2.199   5.772   7.927 -0.8630  1.6543 -0.0078
 7746TIP3    H247434   2.337   5.718   7.896 -1.8939 -1.7281  0.8538
 7747TIP3   OH247435   7.466   5.346   2.354 -0.4628  0.5893 -0.1344
 7747TIP3    H147436   7.380   5.344   2.311  1.0562 -2.0877 -3.6285
 7747TIP3    H247437   7.464   5.272   2.415 -0.6889  0.5247 -0.2184
 7748TIP3   OH247438   7.430   0.168   6.787  0.1271  0.2102 -0.1389
 7748TIP3    H147439   7.503   0.107   6.778 -0.2359 -0.3094  0.4444
 7748TIP3    H247440   7.472   0.255   6.785  0.6611 -0.0513 -0.7359
 7749TIP3   OH247441   1.286   0.797   0.336  0.7485 -0.0128 -0.2164
 7749TIP3    H147442   1.342   0.719   0.327 -0.5488 -0.7605 -3.1273
 7749TIP3    H247443   1.305   0.849   0.258 -1.5346  0.4085 -0.5676
 7750TIP3   OH247444   1.578   5.911   2.312  0.0072 -0.6156  0.3595
 7750TIP3    H147445   1.670   5.885   2.311  0.3375  0.4694 -1.0756
 7750TIP3    H247446   1.579   6.002   2.283 -1.3969 -0.0851  1.8186
 7751TIP3   OH247447   0.309   1.204   9.257 -0.1065 -0.3381  0.2176
 7751TIP3    H147448   0.373   1.246   9.199 -0.3154  0.1885  0.3602
 7751TIP3    H247449   0.299   1.115   9.222  1.9922 -1.0329  1.2008
 7752TIP3   OH247450   3.989   7.065   7.983  0.4085  0.3605  0.7980
 7752TIP3    H147451   3.904   7.108   7.995  0.6916  0.6683  1.7723
 7752TIP3    H247452   3.971   6.996   7.918 -0.3195  1.1477  0.1276
 7753TIP3   OH247453   6.843   1.664   7.631 -0.0077 -0.1428  0.2982
 7753TIP3    H147454   6.796   1.675   7.714 -0.0595  2.6594 -0.0102
 7753TIP3    H247455   6.921   1.613   7.655 -0.5662 -0.3337  1.8472
 7754TIP3   OH247456   3.855   0.208   1.679 -0.7277 -0.3131  0.1297
 7754TIP3    H147457   3.876   0.262   1.603 -0.3804  0.6952  0.9171
 7754TIP3    H247458   3.806   0.266   1.737 -2.2903 -1.4893  0.0578
 7755TIP3   OH247459   1.574   7.319   1.776  0.8237  0.0052 -0.7866
 7755TIP3    H147460   1.667   7.331   1.791  0.6424 -0.3138  0.6928
 7755TIP3    H247461   1.543   7.269   1.851 -0.5963  0.3539 -1.1031
 7756TIP3   OH247462   1.083   3.693   1.065 -0.2944 -0.4647 -0.8748
 7756TIP3    H147463   1.131   3.731   0.992  2.6690  0.6678  1.4149
 7756TIP3    H247464   1.087   3.599   1.050  2.0551 -0.3696 -1.2514
 7757TIP3   OH247465   1.154   6.548   2.255 -0.0085  0.1310 -0.3132
 7757TIP3    H147466   1.200   6.619   2.300 -1.6004  1.1574 -0.2366
 7757TIP3    H247467   1.200   6.468   2.283  2.1914  1.1130 -0.8562
 7758TIP3   OH247468   4.220   2.270   8.454  0.0400 -0.2186  0.3739
 7758TIP3    H147469   4.285   2.310   8.511 -0.8403  0.8297  0.6859
 7758TIP3    H247470   4.143   2.327   8.462 -0.9962 -1.5465  0.2159
 7759TIP3   OH247471   4.476   0.648   8.625 -0.1129 -0.0870  0.2712
 7759TIP3    H147472   4.422   0.588   8.575 -0.1360  1.0798 -1.1761
 7759TIP3    H247473   4.542   0.592   8.667  0.2527 -1.0824 -1.5182
 7760TIP3   OH247474   1.093   5.036   6.927  0.1897 -0.4490  0.0986
 7760TIP3    H147475   1.045   4.961   6.962 -0.2774  0.0867  0.6228
 7760TIP3    H247476   1.106   5.015   6.834 -4.7657  1.1328 -1.2732
 7761TIP3   OH247477   1.658   2.255   0.241  0.2453 -0.1792 -0.1848
 7761TIP3    H147478   1.582   2.231   0.293  0.7255  0.5518  0.8732
 7761TIP3    H247479   1.621   2.287   0.158 -0.5851 -0.0688  0.2183
 7762TIP3   OH247480   7.564   4.151   9.248  0.2593  0.1887  0.2142
 7762TIP3    H147481   7.538   4.224   9.191 -2.7022 -2.4281 -2.1854
 7762TIP3    H247482   7.498   4.152   9.318  0.3005 -0.0753  0.2552
 7763TIP3   OH247483   2.566   4.109   7.756 -0.1687  0.3284 -0.2915
 7763TIP3    H147484   2.622   4.184   7.771 -0.8464  0.6962  0.4481
 7763TIP3    H247485   2.627   4.037   7.736  0.5563  0.7155  0.4852
 7764TIP3   OH247486   0.396   4.000   2.126 -0.0754 -0.1694 -0.3114
 7764TIP3    H147487   0.387   4.091   2.096 -0.0917  0.0154  0.2497
 7764TIP3    H247488   0.337   3.993   2.201  0.3473 -0.4862 -0.0051
 7765TIP3   OH247489   3.251   6.118   7.464 -0.0921 -0.0582 -0.6130
 7765TIP3    H147490   3.307   6.124   7.541 -0.7247 -1.6594  0.0232
 7765TIP3    H247491   3.166   6.091   7.499 -1.2233  1.9834 -1.5826
 7766TIP3   OH247492   6.100   1.866   0.809 -0.1384  0.5573  0.4835
 7766TIP3    H147493   6.045   1.943   0.826 -0.5370  0.4984 -0.4898
 7766TIP3    H247494   6.044   1.809   0.756  1.3504  1.1627 -1.8981
 7767TIP3   OH247495   3.013   7.469   0.922  0.1108 -0.1898  0.1730
 7767TIP3    H147496   3.072   7.543   0.911  0.3208 -0.5115 -1.0105
 7767TIP3    H247497   2.950   7.477   0.850 -0.1831 -0.8520  0.3443
 7768TIP3   OH247498   3.406   5.386   7.955  0.1923  0.4337  0.1067
 7768TIP3    H147499   3.385   5.294   7.970 -0.5035  0.3501 -1.3057
 7768TIP3    H247500   3.446   5.414   8.038 -1.5913 -0.5305  1.3705
 7769TIP3   OH247501   1.270   0.477   2.012 -0.5393 -0.1493  0.2135
 7769TIP3    H147502   1.227   0.528   2.081  0.9977  1.8244 -0.2075
 7769TIP3    H247503   1.289   0.541   1.943  2.2060 -1.1074 -0.0199
 7770TIP3   OH247504   1.051   7.553   1.665 -0.2891 -0.1470  0.7939
 7770TIP3    H147505   1.040   7.611   1.589  1.3697  0.9378  1.3238
 7770TIP3    H247506   1.077   7.469   1.627  0.3678  0.3383  0.1198
 7771TIP3   OH247507   5.136   3.853   9.532 -0.3071  0.3384 -0.2249
 7771TIP3    H147508   5.209   3.809   9.575 -1.0197 -0.0046  0.6696
 7771TIP3    H247509   5.072   3.783   9.515 -0.9407  0.8099  0.1321
 7772TIP3   OH247510   0.173   5.731   0.739  0.5700  0.3022  0.1202
 7772TIP3    H147511   0.136   5.773   0.817  1.9244  1.7556  0.0210
 7772TIP3    H247512   0.232   5.796   0.702  1.3464 -1.0394 -1.1036
 7773TIP3   OH247513   0.944   4.505   1.529  0.5075 -0.3462  0.2014
 7773TIP3    H147514   0.999   4.520   1.452  0.4171 -0.9360  0.0156
 7773TIP3    H247515   0.916   4.413   1.521 -0.8868  0.0686  0.0458
 7774TIP3   OH247516   4.092   2.317   9.929  0.3914  0.1019 -0.1335
 7774TIP3    H147517   4.087   2.400   9.883  0.4041  0.7511  0.9983
 7774TIP3    H247518   4.079   2.251   9.861  1.1751  0.9892 -1.1727
 7775TIP3   OH247519   5.646   2.994   0.144 -0.0891 -0.3929 -0.5002
 7775TIP3    H147520   5.655   3.085   0.118 -1.9638 -0.2430 -0.7481
 7775TIP3    H247521   5.702   2.986   0.222  2.9285 -0.0019 -2.4784
 7776TIP3   OH247522   2.239   4.712   7.097 -0.6098  0.1995  0.1971
 7776TIP3    H147523   2.273   4.779   7.155 -1.3938  0.9907 -0.2199
 7776TIP3    H247524   2.255   4.746   7.009 -1.1159 -0.0951 -0.0178
 7777TIP3   OH247525   4.294   2.373   1.250 -0.6438 -0.0701  0.0206
 7777TIP3    H147526   4.297   2.461   1.210  0.2042  0.3614  0.9800
 7777TIP3    H247527   4.375   2.368   1.300 -1.6174 -0.6424  1.5841
 7778TIP3   OH247528   7.156   4.554   1.089 -0.3632 -0.2163  0.0156
 7778TIP3    H147529   7.236   4.606   1.081 -0.5782  0.7202  2.7573
 7778TIP3    H247530   7.177   4.489   1.157 -0.9180 -2.1806 -1.5883
 7779TIP3   OH247531   6.612   6.134   8.179 -0.1925  0.7610 -0.0233
 7779TIP3    H147532   6.615   6.100   8.268 -0.6061 -0.3164 -0.3946
 7779TIP3    H247533   6.544   6.081   8.136 -0.3850  1.6302 -0.8251
 7780TIP3   OH247534   0.357   3.907   7.739  0.0740  0.0715  1.0321
 7780TIP3    H147535   0.443   3.863   7.733  0.3810  0.8380 -0.8841
 7780TIP3    H247536   0.335   3.928   7.648 -1.2239  1.6797  1.6836
 7781TIP3   OH247537   3.669   7.023   9.853 -0.0789 -0.0586 -0.0691
 7781TIP3    H147538   3.607   7.039   9.782 -0.1931  0.6758  0.1882
 7781TIP3    H247539   3.754   7.049   9.817  0.1159 -1.1889 -0.4670
 7782TIP3   OH247540   0.640   0.486   7.194 -0.0206 -0.3805  0.1222
 7782TIP3    H147541   0.559   0.526   7.162 -0.1258 -0.6249  0.0859
 7782TIP3    H247542   0.690   0.465   7.115 -0.8333 -2.1682  0.0380
 7783TIP3   OH247543   4.197   0.799   1.785  0.2757 -0.1183 -0.0463
 7783TIP3    H147544   4.122   0.784   1.843 -0.0830  1.6179  0.0025
 7783TIP3    H247545   4.167   0.868   1.726  0.4992 -2.0451 -2.5837
 7784TIP3   OH247546   4.902   0.604   7.473  1.3136  0.3478  0.6062
 7784TIP3    H147547   4.825   0.583   7.420  1.2347 -0.6091  1.0860
 7784TIP3    H247548   4.930   0.690   7.441 -0.9554  1.5223  1.5883
 7785TIP3   OH247549   0.185   7.586   0.784 -0.9715  0.0284  0.3412
 7785TIP3    H147550   0.208   7.603   0.693 -0.8950  1.5148  0.6231
 7785TIP3    H247551   0.262   7.544   0.821 -1.3685 -1.5320 -0.5125
 7786TIP3   OH247552   3.852   6.372   0.047 -0.4669  0.8161 -0.1949
 7786TIP3    H147553   3.936   6.348   0.087 -0.7365 -0.6314 -0.4176
 7786TIP3    H247554   3.798   6.401   0.119  1.1668  5.0308 -0.3714
 7787TIP3   OH247555   1.964   6.664   8.202 -0.3873  0.1454  0.4680
 7787TIP3    H147556   1.886   6.613   8.227  0.7104 -0.4387  3.0337
 7787TIP3    H247557   2.024   6.600   8.165 -0.6293  0.3987 -0.4036
 7788TIP3   OH247558   4.313   3.641   9.618 -0.1766  0.4927  1.1058
 7788TIP3    H147559   4.244   3.700   9.588  0.3705  1.0058  0.8480
 7788TIP3    H247560   4.293   3.625   9.710 -0.4381  0.9183  1.1240
 7789TIP3   OH247561   2.282   2.841   8.239  0.2652  0.0954 -0.4329
 7789TIP3    H147562   2.255   2.750   8.229 -0.3999  0.4422 -1.9260
 7789TIP3    H247563   2.239   2.887   8.168  2.0192  1.2751 -0.7943
 7790TIP3   OH247564   5.703   2.973   6.948  0.1858 -0.4112 -0.0274
 7790TIP3    H147565   5.654   3.029   6.888  0.4006 -0.0901  0.0963
 7790TIP3    H247566   5.655   2.889   6.947  0.6530 -0.6802 -1.2786
 7791TIP3   OH247567   5.587   1.215   8.006  0.4488  0.6605  0.0189
 7791TIP3    H147568   5.573   1.121   8.020 -0.5348  0.7827 -0.0926
 7791TIP3    H247569   5.678   1.229   8.032  0.7906 -0.4278 -0.5214
 7792TIP3   OH247570   3.756   1.835   9.402 -0.3101 -0.2728 -0.3060
 7792TIP3    H147571   3.734   1.754   9.355  2.5423 -0.7269 -1.0517
 7792TIP3    H247572   3.850   1.830   9.416 -0.7164  0.4978  4.3795
 7793TIP3   OH247573   3.882   3.519   7.790  0.3582 -0.5187 -0.1861
 7793TIP3    H147574   3.958   3.533   7.846  0.3033 -1.4147  0.1317
 7793TIP3    H247575   3.809   3.558   7.837  0.5011 -0.2842 -0.1586
 7794TIP3   OH247576   2.079   2.557   3.184  0.0155  0.6829 -0.8110
 7794TIP3    H147577   2.083   2.463   3.167 -1.7102  0.6194 -1.0573
 7794TIP3    H247578   2.170   2.583   3.201  0.4069 -1.1622  0.0889
 7795TIP3   OH247579   5.830   6.203   8.623  0.0783  0.0886 -0.2173
 7795TIP3    H147580   5.753   6.174   8.673  0.4555  1.3454  1.1650
 7795TIP3    H247581   5.894   6.133   8.634 -0.3110 -0.2443 -0.0400
 7796TIP3   OH247582   1.139   6.938   2.380  0.1957  0.0146 -0.0839
 7796TIP3    H147583   1.215   6.995   2.385 -0.6842  1.4031 -1.4252
 7796TIP3    H247584   1.072   6.982   2.433 -0.1157 -0.4222 -0.1037
 7797TIP3   OH247585   1.923   6.358   1.872 -0.5824  0.1849  0.3293
 7797TIP3    H147586   1.920   6.398   1.785  1.3915  0.4527  0.3428
 7797TIP3    H247587   1.864   6.410   1.925 -0.7716  0.8604 -0.5276
 7798TIP3   OH247588   2.558   7.023   7.532  0.2424  0.6824 -0.1193
 7798TIP3    H147589   2.486   7.001   7.473 -0.5284  0.2844  0.9461
 7798TIP3    H247590   2.628   6.961   7.510 -0.4634 -0.2251  0.1668
 7799TIP3   OH247591   2.899   5.735   1.048  0.3342  0.0661 -0.9108
 7799TIP3    H147592   2.828   5.683   1.009 -0.2153  0.9938 -1.1682
 7799TIP3    H247593   2.855   5.804   1.097  1.0521 -0.1428  0.0617
 7800TIP3   OH247594   3.777   0.952   1.825 -0.3106  0.1635  0.4942
 7800TIP3    H147595   3.824   0.874   1.794 -1.3896 -0.5193  0.4968
 7800TIP3    H247596   3.692   0.918   1.854 -1.1559  1.4696 -0.3606
 7801TIP3   OH247597   3.061   7.043   0.482  0.2761  0.2547  0.3336
 7801TIP3    H147598   3.153   7.029   0.503  0.1091  0.8604  1.5681
 7801TIP3    H247599   3.023   6.955   0.476  1.2834 -0.0893 -2.0343
 7802TIP3   OH247600   3.472   1.445   0.978  0.7377  0.3958 -0.0840
 7802TIP3    H147601   3.550   1.405   0.940  1.2233  0.2752  1.0133
 7802TIP3    H247602   3.418   1.370   1.005  0.9508  0.4734  0.5682
 7803TIP3   OH247603   6.479   2.681   9.491 -0.1718 -0.3628  0.0126
 7803TIP3    H147604   6.504   2.593   9.518  2.1089 -0.3366 -1.7523
 7803TIP3    H247605   6.526   2.696   9.409 -1.9277  1.8384 -0.6991
 7804TIP3   OH247606   4.508   6.976   6.902 -0.3028  0.1962 -0.4236
 7804TIP3    H147607   4.413   6.974   6.894 -0.5915  1.1695  1.9857
 7804TIP3    H247608   4.534   7.052   6.849 -1.3440  2.3040  1.8892
 7805TIP3   OH247609   7.238   4.106   0.537  0.2673 -0.0080  0.1589
 7805TIP3    H147610   7.298   4.127   0.466 -0.5460 -1.6322 -1.0644
 7805TIP3    H247611   7.187   4.031   0.505 -0.6368 -0.3239  2.1594
 7806TIP3   OH247612   5.467   0.222   8.550 -0.1309  0.1553 -0.3101
 7806TIP3    H147613   5.410   0.268   8.612  0.3832  2.0133 -1.1604
 7806TIP3    H247614   5.434   0.132   8.550 -0.5729  0.2380  2.1262
 7807TIP3   OH247615   2.397   1.500   8.339  0.2014 -0.0681  0.2394
 7807TIP3    H147616   2.492   1.494   8.345  0.0603 -1.9539  1.0299
 7807TIP3    H247617   2.377   1.588   8.372  1.6250  0.2153  0.4252
 7808TIP3   OH247618   7.333   5.167   9.120 -0.3734  0.0267 -0.2790
 7808TIP3    H147619   7.264   5.215   9.166  0.6077  0.3761  0.8779
 7808TIP3    H247620   7.412   5.220   9.133  0.6317 -1.6070  0.5614
 7809TIP3   OH247621   2.392   2.838   7.203 -0.0560  0.4779 -0.2904
 7809TIP3    H147622   2.374   2.922   7.245 -1.2219  1.2244 -2.1650
 7809TIP3    H247623   2.359   2.773   7.265 -0.9726  1.4893  0.3163
 7810TIP3   OH247624   6.871   6.184   8.094  0.0960 -0.1380  0.9157
 7810TIP3    H147625   6.900   6.272   8.119 -0.7463  0.4256  0.0051
 7810TIP3    H247626   6.778   6.183   8.115 -0.0910 -0.4947  0.1239
 7811TIP3   OH247627   6.006   0.468   1.294  0.1047  0.0603  0.7023
 7811TIP3    H147628   5.941   0.519   1.245 -0.0061  0.4551  1.2600
 7811TIP3    H247629   5.983   0.481   1.386  0.3041 -0.6918  0.8674
 7812TIP3   OH247630   2.891   1.985   1.285  0.7254 -0.1081 -0.5954
 7812TIP3    H147631   2.969   1.989   1.230  0.3065 -2.4892 -1.4745
 7812TIP3    H247632   2.919   1.935   1.362 -0.2854 -2.5563 -1.7212
 7813TIP3   OH247633   0.722   4.959   1.529  0.2024  0.2522  0.1249
 7813TIP3    H147634   0.688   5.012   1.601  0.4157 -0.7511  0.9830
 7813TIP3    H247635   0.798   4.913   1.566  2.9192  2.7690 -1.8409
 7814TIP3   OH247636   0.151   0.620   1.881  0.1596 -0.1070 -0.3998
 7814TIP3    H147637   0.218   0.599   1.945  0.6962  2.4501  0.0002
 7814TIP3    H247638   0.172   0.566   1.805  1.4516 -0.8306  0.4408
 7815TIP3   OH247639   4.264   1.439   9.199  0.4658 -0.0060 -0.0053
 7815TIP3    H147640   4.284   1.441   9.293  3.2301 -0.8685 -0.4879
 7815TIP3    H247641   4.311   1.362   9.167 -0.9065 -0.0581 -2.0213
 7816TIP3   OH247642  -0.010   2.710   9.078 -0.4183  0.2033  0.1759
 7816TIP3    H147643  -0.040   2.784   9.131  0.0591  0.2476  0.3948
 7816TIP3    H247644   0.035   2.750   9.004 -0.0917  0.1379  0.3354
 7817TIP3   OH247645   6.633   1.809   1.736 -0.2984  0.3055  0.1072
 7817TIP3    H147646   6.618   1.791   1.644  1.1810  1.1272 -0.3200
 7817TIP3    H247647   6.551   1.783   1.779 -1.2082  0.4228 -1.4794
 7818TIP3   OH247648   4.602   7.004   8.996  0.1991 -0.5543  0.0871
 7818TIP3    H147649   4.582   7.005   9.089 -0.2352 -1.6319  0.0200
 7818TIP3    H247650   4.560   7.083   8.961  0.1465 -0.2837  0.7555
 7819TIP3   OH247651   2.383   4.266   0.688 -0.1393  0.4739  0.0456
 7819TIP3    H147652   2.421   4.273   0.776  2.7949  1.6844 -1.1709
 7819TIP3    H247653   2.291   4.246   0.703  0.0475  1.5080  3.3923
 7820TIP3   OH247654   7.574   7.046   0.126 -0.5988 -0.1543  0.2285
 7820TIP3    H147655   7.624   7.124   0.151  0.7608 -1.0389  0.3906
 7820TIP3    H247656   7.563   7.054   0.031  0.6487 -0.3564  0.0458
 7821TIP3   OH247657   3.460   2.029   0.852  0.0231  0.6281  0.2782
 7821TIP3    H147658   3.371   2.047   0.880  0.0674  2.2029 -0.4917
 7821TIP3    H247659   3.454   2.012   0.758  0.4304 -0.2397  0.3912
 7822TIP3   OH247660   1.874   2.314   8.570  0.0024  0.1896 -0.7348
 7822TIP3    H147661   1.790   2.279   8.542  0.6136 -0.4978 -1.7323
 7822TIP3    H247662   1.906   2.251   8.634  0.5412 -0.4356 -1.6211
 7823TIP3   OH247663   3.243   2.557   0.109 -0.1012 -0.1239 -0.2858
 7823TIP3    H147664   3.314   2.588   0.165 -0.6320 -0.0965  0.3840
 7823TIP3    H247665   3.274   2.573   0.020  0.8632 -0.4089 -0.0130
 7824TIP3   OH247666   4.593   6.400   9.160  0.2066 -0.0503  0.1253
 7824TIP3    H147667   4.636   6.336   9.103 -0.1841 -0.2779  0.0862
 7824TIP3    H247668   4.648   6.402   9.239 -1.3751 -2.6900  1.4366
 7825TIP3   OH247669   4.203   3.521   9.863 -0.0783 -0.2246  0.7234
 7825TIP3    H147670   4.244   3.455   9.919 -2.1588 -0.3076  2.2550
 7825TIP3    H247671   4.208   3.602   9.912 -2.4896 -0.4235  1.4205
 7826TIP3   OH247672   7.145   4.980   0.612 -0.3226 -0.3262  0.2520
 7826TIP3    H147673   7.052   4.990   0.593 -0.2120 -1.0746 -0.7896
 7826TIP3    H247674   7.148   4.942   0.700 -1.0652 -1.4181 -0.1655
 7827TIP3   OH247675   5.844   1.032   1.641 -0.4239  0.0967  0.2196
 7827TIP3    H147676   5.872   0.955   1.691  1.4940  0.8034  0.2965
 7827TIP3    H247677   5.834   1.000   1.552 -0.8705 -0.5104  0.4826
 7828TIP3   OH247678   7.485   5.284   7.547  0.2935 -0.2422  0.2200
 7828TIP3    H147679   7.403   5.323   7.578 -0.4785 -2.1813  0.7680
 7828TIP3    H247680   7.481   5.193   7.578  0.2725 -1.8821 -4.0186
 7829TIP3   OH247681   2.265   5.418   9.022  0.2868  0.3574  0.0971
 7829TIP3    H147682   2.193   5.440   9.081  2.0923 -1.5270  3.2900
 7829TIP3    H247683   2.227   5.356   8.960 -1.1012  0.1755  1.0728
 7830TIP3   OH247684   4.640   1.638   0.828  0.1412 -0.0391 -0.1087
 7830TIP3    H147685   4.594   1.557   0.807 -0.6502  0.8509 -1.9758
 7830TIP3    H247686   4.607   1.662   0.915 -0.7237 -0.9473 -0.1705
 7831TIP3   OH247687   3.371   5.656   0.485 -0.3042 -0.7028 -0.4036
 7831TIP3    H147688   3.352   5.660   0.391  0.5463 -1.0665 -0.5989
 7831TIP3    H247689   3.373   5.562   0.505 -1.6678 -0.6103  0.2360
 7832TIP3   OH247690   6.716   7.376   0.167 -0.1404 -0.1950  0.1409
 7832TIP3    H147691   6.799   7.420   0.147 -0.3073  0.3034  0.5148
 7832TIP3    H247692   6.717   7.296   0.114  1.1970 -0.8888  1.1353
 7833TIP3   OH247693   2.902   5.130   7.456 -0.3532  0.1343 -0.3988
 7833TIP3    H147694   2.966   5.111   7.387 -0.1614 -3.3107  0.5290
 7833TIP3    H247695   2.832   5.178   7.411  0.8098  0.0427 -2.4418
 7834TIP3   OH247696   4.840   1.315   0.211 -0.6031  0.2378 -0.6337
 7834TIP3    H147697   4.898   1.264   0.268 -2.8430 -0.6512  0.9980
 7834TIP3    H247698   4.879   1.403   0.209  0.2320 -0.0436  1.2729
 7835TIP3   OH247699   2.391   4.472   0.517 -0.6849 -0.3738 -0.5802
 7835TIP3    H147700   2.366   4.412   0.586  2.6341  0.4103  1.5352
 7835TIP3    H247701   2.445   4.420   0.458 -0.3414 -0.1877 -0.4350
 7836TIP3   OH247702   1.815   0.996   3.261 -0.1550  0.4789 -0.8491
 7836TIP3    H147703   1.897   0.962   3.226  0.8311  1.6818  0.1851
 7836TIP3    H247704   1.753   0.923   3.251  1.7492 -1.5691  0.9957
 7837TIP3   OH247705   0.399   3.535   8.840 -0.0051 -0.0779 -0.4128
 7837TIP3    H147706   0.442   3.573   8.764  0.1046  0.4940 -0.0715
 7837TIP3    H247707   0.306   3.532   8.817 -0.3001  2.1598  0.2364
 7838TIP3   OH247708   1.865   1.745   1.688 -0.4330 -0.2637  0.2843
 7838TIP3    H147709   1.900   1.831   1.662 -0.5843 -0.5597 -0.9617
 7838TIP3    H247710   1.776   1.764   1.718 -0.8471 -0.0944 -0.9827
 7839TIP3   OH247711   7.408   6.305   8.269 -0.3671 -0.1553  0.3670
 7839TIP3    H147712   7.324   6.283   8.229 -1.0443  1.0017  1.0770
 7839TIP3    H247713   7.440   6.380   8.219  0.4217 -0.8084 -0.1199
 7840TIP3   OH247714   7.239   2.550   7.958  0.0388 -0.1859  0.1062
 7840TIP3    H147715   7.334   2.557   7.961  0.1030 -0.9220 -0.0770
 7840TIP3    H247716   7.218   2.474   8.012 -0.2955 -1.1657 -1.3268
 7841TIP3   OH247717   4.954   2.972   8.557  0.1169 -0.1429  0.0881
 7841TIP3    H147718   4.926   3.060   8.580 -0.8010 -0.5673  0.6852
 7841TIP3    H247719   4.997   2.938   8.636 -0.0145 -0.4154  0.0457
 7842TIP3   OH247720   4.266   6.671   7.921  0.4548 -0.5830 -0.2096
 7842TIP3    H147721   4.229   6.649   8.006  0.1359 -2.5947 -0.8120
 7842TIP3    H247722   4.309   6.590   7.892  1.1276  0.2628 -1.6655
 7843TIP3   OH247723   1.902   5.916   9.416  0.0230 -0.5971 -0.6588
 7843TIP3    H147724   1.844   5.938   9.343  1.0475 -1.6338 -1.8287
 7843TIP3    H247725   1.933   5.827   9.397  0.8739 -0.6249  0.6813
 7844TIP3   OH247726   5.027   7.452   0.827 -0.0543  0.7096 -0.3507
 7844TIP3    H147727   5.084   7.443   0.903 -0.5607  0.7784  0.0353
 7844TIP3    H247728   5.024   7.364   0.789  0.9987  0.8771 -0.8804
 7845TIP3   OH247729   0.134   7.233   3.171 -0.1097 -0.4821 -0.0990
 7845TIP3    H147730   0.184   7.168   3.121  1.3835  0.9048 -0.4646
 7845TIP3    H247731   0.061   7.183   3.208  0.2865 -2.1079 -1.3948
 7846TIP3   OH247732   7.444   5.687   8.505  0.6625  0.6122  0.0763
 7846TIP3    H147733   7.452   5.665   8.598  0.1021 -0.9526 -0.2160
 7846TIP3    H247734   7.373   5.751   8.502  1.0341  1.0669  0.7775
 7847TIP3   OH247735   4.343   6.361   0.092  0.5200  0.1874 -0.0051
 7847TIP3    H147736   4.363   6.269   0.103  2.1447  0.3200 -1.4460
 7847TIP3    H247737   4.406   6.392   0.027  0.1091  2.3440  0.5373
 7848TIP3   OH247738   2.904   6.722   8.425 -0.3840 -0.0705  0.4772
 7848TIP3    H147739   2.863   6.647   8.383  0.1066  0.3393 -0.7904
 7848TIP3    H247740   2.994   6.695   8.441 -0.4184 -0.0253  0.7544
 7849TIP3   OH247741   3.401   7.248   2.054 -0.1034  0.0703  0.0510
 7849TIP3    H147742   3.343   7.187   2.098  1.3473 -0.8662  0.7619
 7849TIP3    H247743   3.358   7.333   2.062 -1.5459 -0.6489  0.1734
 7850TIP3   OH247744   1.955   0.387   3.198 -0.0029 -0.0894 -0.2424
 7850TIP3    H147745   1.916   0.471   3.172 -0.1913  0.2134  0.9636
 7850TIP3    H247746   1.891   0.322   3.170 -0.7117  0.3081  0.4060
 7851TIP3   OH247747   6.528   2.467   8.703  0.2932  0.0371 -0.6999
 7851TIP3    H147748   6.471   2.511   8.640  0.1347  1.0659  0.1387
 7851TIP3    H247749   6.606   2.522   8.706  0.7914 -0.6436 -0.8505
 7852TIP3   OH247750   6.572   3.739   9.419 -0.2480 -0.1970  0.0627
 7852TIP3    H147751   6.624   3.756   9.498 -1.3199  2.0430  0.3785
 7852TIP3    H247752   6.628   3.768   9.347  0.4953 -1.6835 -0.0003
 7853TIP3   OH247753   7.075   3.127   9.688 -0.3129 -0.2414 -0.2238
 7853TIP3    H147754   7.110   3.215   9.675 -1.5357  0.2851 -0.1365
 7853TIP3    H247755   7.056   3.122   9.782  0.0588 -0.7185 -0.1726
 7854TIP3   OH247756   6.980   6.811   8.404 -0.3021  0.0140 -0.0372
 7854TIP3    H147757   6.911   6.814   8.338 -0.3873 -1.0245 -0.0179
 7854TIP3    H247758   6.939   6.841   8.485 -0.3173  0.8550 -0.3476
 7855TIP3   OH247759   4.439   6.781   9.083 -0.2183  0.0199 -0.0502
 7855TIP3    H147760   4.349   6.793   9.115  0.6352  2.3705  1.7065
 7855TIP3    H247761   4.442   6.832   9.002 -0.9014 -1.5699 -1.1380
 7856TIP3   OH247762   6.130   1.537   7.157 -0.6705  0.0453  0.2241
 7856TIP3    H147763   6.162   1.531   7.067  1.6756 -1.2716  1.0355
 7856TIP3    H247764   6.037   1.555   7.149 -0.4233  0.5217 -2.4457
 7857TIP3   OH247765   5.160   4.118   6.869  0.5398  0.2476  0.3601
 7857TIP3    H147766   5.202   4.135   6.785  2.0986  0.9943  1.2498
 7857TIP3    H247767   5.093   4.053   6.849  2.9145 -2.0034 -0.9535
 7858TIP3   OH247768   4.014   7.504   8.342 -0.5210 -0.1123  0.3009
 7858TIP3    H147769   4.046   7.573   8.284  0.1323 -1.4267 -0.9685
 7858TIP3    H247770   3.931   7.537   8.375 -1.1104  0.5477 -1.6902
 7859TIP3   OH247771   3.168   5.984   0.692  0.7192  0.1336  0.0710
 7859TIP3    H147772   3.153   6.000   0.786 -0.5187 -1.9062  0.2795
 7859TIP3    H247773   3.169   5.889   0.684  1.9029  0.2517 -1.8641
 7860TIP3   OH247774   7.505   7.271   1.135  0.2525 -0.2140  0.4164
 7860TIP3    H147775   7.457   7.350   1.161  0.0496  0.0650 -0.7460
 7860TIP3    H247776   7.437   7.204   1.125  0.5265 -0.8649  2.4332
 7861TIP3   OH247777   5.616   7.350   8.983  0.0716  0.4738  0.0862
 7861TIP3    H147778   5.559   7.344   8.906  0.3384  0.2227 -0.0906
 7861TIP3    H247779   5.631   7.259   9.010  0.0310  0.5580  0.3967
 7862TIP3   OH247780   0.620   1.588   8.420  0.2668 -0.3296  0.1674
 7862TIP3    H147781   0.627   1.557   8.511 -1.6951  1.6024  1.0538
 7862TIP3    H247782   0.674   1.667   8.418  1.8136 -1.3390 -0.9353
 7863TIP3   OH247783   3.511   3.568   0.325  0.0478  0.3931 -0.9499
 7863TIP3    H147784   3.479   3.574   0.415 -2.0141 -1.5259 -1.4586
 7863TIP3    H247785   3.537   3.657   0.303 -0.1424  1.0604  1.2812
 7864TIP3   OH247786   2.407   2.625   0.980 -0.0420  0.6643 -0.1281
 7864TIP3    H147787   2.465   2.583   1.044  0.5812 -0.0477 -1.1209
 7864TIP3    H247788   2.319   2.602   1.008  0.2685 -0.8842 -0.3471
 7865TIP3   OH247789   0.138   6.087   9.093  0.0534  0.6831 -0.2730
 7865TIP3    H147790   0.073   6.117   9.157 -0.7698 -3.1407  0.9782
 7865TIP3    H247791   0.095   6.095   9.009 -0.1048  2.7678 -0.0306
 7866TIP3   OH247792   1.886   4.197   8.238  0.4208 -0.1463  0.3417
 7866TIP3    H147793   1.818   4.208   8.304  0.3434 -0.6441  0.3480
 7866TIP3    H247794   1.839   4.167   8.160  0.5950 -0.1905  0.2535
 7867TIP3   OH247795   0.517   6.073   2.628 -0.1014 -0.0825  0.2366
 7867TIP3    H147796   0.608   6.044   2.635 -0.0480  0.0476  0.0697
 7867TIP3    H247797   0.483   6.067   2.718 -0.2203 -1.0736  0.1353
 7868TIP3   OH247798   3.009   5.487   8.931 -0.2955  0.3311 -0.1822
 7868TIP3    H147799   3.039   5.456   9.017 -1.8035 -1.7207 -0.3293
 7868TIP3    H247800   3.040   5.578   8.927 -0.9539  0.8093  2.9181
 7869TIP3   OH247801   2.611   0.480   8.669 -0.3626 -0.1843  0.2631
 7869TIP3    H147802   2.669   0.546   8.707  1.0100 -1.5974  0.7584
 7869TIP3    H247803   2.618   0.405   8.729  0.4976 -1.8536 -1.7874
 7870TIP3   OH247804   6.912   5.563   9.487 -0.5171  0.1411  0.3096
 7870TIP3    H147805   6.873   5.478   9.507 -0.9319  0.4601  0.9209
 7870TIP3    H247806   6.928   5.561   9.393 -1.9523 -0.0419  0.0384
 7871TIP3   OH247807   5.124   1.466   0.115  0.1828  0.6097 -0.0278
 7871TIP3    H147808   5.189   1.527   0.150  0.6031  0.2376 -0.1563
 7871TIP3    H247809   5.122   1.484   0.021  0.5608  0.1847 -0.1168
 7872TIP3   OH247810   1.493   5.818   9.189 -0.4055  0.1128 -0.2232
 7872TIP3    H147811   1.426   5.852   9.248 -0.2315  0.3924 -0.1852
 7872TIP3    H247812   1.478   5.723   9.187 -1.1276  0.2290 -0.6245
 7873TIP3   OH247813   1.972   4.077   9.759 -0.5336  0.2334 -0.4890
 7873TIP3    H147814   1.931   3.991   9.757 -0.4993  0.2218 -2.4934
 7873TIP3    H247815   1.904   4.135   9.792 -0.2141 -0.6589  2.0058
 7874TIP3   OH247816   6.237   2.738   9.902 -0.8989 -0.4666 -1.0847
 7874TIP3    H147817   6.209   2.742   9.811  1.0894 -1.6123 -1.8187
 7874TIP3    H247818   6.314   2.795   9.906 -0.8595 -0.5688 -0.1718
 7875TIP3   OH247819   4.588   2.227   1.024  0.0501  0.4071  1.1141
 7875TIP3    H147820   4.654   2.170   0.985 -1.6171 -0.8941  0.0722
 7875TIP3    H247821   4.555   2.178   1.099 -1.6942 -0.2844 -0.0331
 7876TIP3   OH247822   3.779   1.004   0.157  0.3456  0.3377  0.6313
 7876TIP3    H147823   3.705   1.050   0.116  0.1846 -0.3594  0.1155
 7876TIP3    H247824   3.758   0.911   0.146  0.4143  0.1151  2.1017
 7877TIP3   OH247825   2.772   0.703   8.767  0.1796  0.0694  0.0967
 7877TIP3    H147826   2.852   0.721   8.716 -1.2008  4.2589 -1.0029
 7877TIP3    H247827   2.793   0.733   8.855  0.7029 -1.6627  0.5887
 7878TIP3   OH247828   1.242   4.679   0.356 -0.0149  0.0260 -0.4624
 7878TIP3    H147829   1.226   4.592   0.318  1.1505 -1.5295  2.3173
 7878TIP3    H247830   1.162   4.698   0.405  0.9351 -1.0520  1.5927
 7879TIP3   OH247831   3.909   7.380   2.150  0.1014 -0.1080 -0.3337
 7879TIP3    H147832   3.844   7.314   2.128 -1.4416  1.3308 -0.3261
 7879TIP3    H247833   3.993   7.336   2.138 -0.8486 -2.1969  0.1610
 7880TIP3   OH247834   4.107   2.838   1.058 -0.0687 -0.1508  0.4141
 7880TIP3    H147835   4.157   2.758   1.078 -0.4065 -0.5838 -0.4133
 7880TIP3    H247836   4.024   2.825   1.103 -0.9779 -1.3006 -1.4393
 7881TIP3   OH247837   1.527   3.227   9.756 -0.1844 -0.2627  0.4161
 7881TIP3    H147838   1.574   3.150   9.724  0.2476 -0.9896  2.5974
 7881TIP3    H247839   1.596   3.291   9.774 -0.1193 -0.7416  2.0711
 7882TIP3   OH247840   2.641   2.017   8.781 -0.0876  0.0195  0.2793
 7882TIP3    H147841   2.675   2.032   8.693 -1.0531 -0.4060 -0.1727
 7882TIP3    H247842   2.637   1.922   8.789 -0.9034  0.0614  0.4229
 7883TIP3   OH247843   0.814   4.276   7.773  0.5150 -0.0665  0.7085
 7883TIP3    H147844   0.889   4.217   7.769  2.3803  2.1426  0.3387
 7883TIP3    H247845   0.823   4.331   7.695 -0.7097  1.1535  1.3850
 7884TIP3   OH247846   1.779   4.565   7.674 -0.4718  0.2376 -0.1116
 7884TIP3    H147847   1.870   4.593   7.674 -0.4396  0.1354 -0.1489
 7884TIP3    H247848   1.772   4.508   7.751 -1.2574  2.6318  1.7074
 7885TIP3   OH247849   7.602   0.988  10.014 -0.1323  0.4871  0.2914
 7885TIP3    H147850   7.585   1.059  10.077 -1.0775  1.1647 -0.6910
 7885TIP3    H247851   7.538   0.921  10.036 -0.1293  0.5055  0.3607
 7886TIP3   OH247852   0.431   3.816   6.525  0.3407 -0.3020  0.3240
 7886TIP3    H147853   0.361   3.868   6.565 -1.4829 -1.7297 -0.8612
 7886TIP3    H247854   0.386   3.753   6.470  2.6113 -0.9992 -0.8714
 7887TIP3   OH247855   5.224   4.518   8.743  0.0236 -0.2816  0.2900
 7887TIP3    H147856   5.130   4.521   8.729 -0.0635 -0.3948  0.8486
 7887TIP3    H247857   5.258   4.470   8.667 -0.4170 -0.6709  0.3389
 7888TIP3   OH247858   1.927   5.037   0.584 -0.2871  0.1023 -0.4220
 7888TIP3    H147859   2.021   5.025   0.595 -0.0302  2.3163  0.2290
 7888TIP3    H247860   1.890   4.949   0.595  1.4866 -0.4603  1.8601
 7889TIP3   OH247861   5.281   2.248   1.977 -0.5510  0.5712 -0.4978
 7889TIP3    H147862   5.330   2.287   1.905  1.4375 -2.2480 -0.8502
 7889TIP3    H247863   5.348   2.209   2.033 -2.0672  1.9922  2.5650
 7890TIP3   OH247864   7.140   1.398   0.378 -0.1017  0.2129 -0.2468
 7890TIP3    H147865   7.131   1.368   0.468  2.5729 -1.6420 -0.4687
 7890TIP3    H247866   7.079   1.344   0.328 -1.2988  0.9740  0.3507
 7891TIP3   OH247867   4.605   0.934   0.142 -0.3505  0.2816 -0.7187
 7891TIP3    H147868   4.595   1.029   0.133  0.0962  0.4857  0.7009
 7891TIP3    H247869   4.549   0.911   0.216 -0.1586 -0.5169 -0.8137
 7892TIP3   OH247870   6.104   2.364   1.698 -0.0561 -0.0638  0.1548
 7892TIP3    H147871   6.152   2.347   1.779  1.4640  0.4567 -0.6041
 7892TIP3    H247872   6.079   2.278   1.666 -3.5026 -0.2062  2.7452
 7893TIP3   OH247873   2.342   6.521   8.329  0.5294  0.2572  0.6166
 7893TIP3    H147874   2.409   6.585   8.306  0.2723  0.2349 -0.2414
 7893TIP3    H247875   2.276   6.572   8.377  1.6107  0.0839  2.3729
 7894TIP3   OH247876   2.833   5.484   0.236  0.1983 -0.4274 -0.4914
 7894TIP3    H147877   2.895   5.441   0.295  0.6270  0.8634  0.0391
 7894TIP3    H247878   2.870   5.471   0.148  0.7567 -0.4111 -0.2611
 7895TIP3   OH247879   5.514   1.813   8.096 -0.0269  0.6059  0.6878
 7895TIP3    H147880   5.573   1.888   8.095  0.3357  0.3403 -0.7391
 7895TIP3    H247881   5.572   1.738   8.111 -0.0927  0.4307  0.1111
 7896TIP3   OH247882   4.636   6.794   8.097 -0.1789 -0.5167 -0.2726
 7896TIP3    H147883   4.629   6.708   8.139 -0.2990  0.1245  1.0528
 7896TIP3    H247884   4.672   6.851   8.164  0.3224  0.3914 -1.2800
 7897TIP3   OH247885   5.033   4.733   9.796 -0.0716 -0.4806  0.1424
 7897TIP3    H147886   5.064   4.663   9.739  0.4536  1.7859 -2.5614
 7897TIP3    H247887   5.090   4.808   9.776 -1.3551  1.1047  2.0181
 7898TIP3   OH247888   4.606   6.434   8.661 -0.5850 -0.5717 -0.4461
 7898TIP3    H147889   4.669   6.364   8.648 -0.3684 -0.2786 -1.0118
 7898TIP3    H247890   4.643   6.488   8.731  0.4738  0.3567 -1.6772
 7899TIP3   OH247891   4.793   2.816   6.897 -0.1329  0.0753 -0.0104
 7899TIP3    H147892   4.873   2.855   6.933  0.5727  0.7828 -2.1823
 7899TIP3    H247893   4.800   2.723   6.917  0.9200  0.2238  0.3726
 7900TIP3   OH247894   0.986   3.142   9.092  0.2271  0.2106 -0.0464
 7900TIP3    H147895   0.912   3.197   9.069  0.2591 -0.0911 -0.8904
 7900TIP3    H247896   0.951   3.053   9.090  0.5726  0.0807 -0.2665
 7901TIP3   OH247897   2.626   1.623   7.959  0.4186  0.3952 -0.0088
 7901TIP3    H147898   2.689   1.560   7.996 -0.2140  0.3042  0.9699
 7901TIP3    H247899   2.594   1.672   8.035 -0.1305  0.9509 -0.5858
 7902TIP3   OH247900   3.504   4.952   7.511 -0.2310 -0.0670 -0.3770
 7902TIP3    H147901   3.530   4.893   7.581  1.7863  1.3201  0.1256
 7902TIP3    H247902   3.580   4.956   7.453 -1.2753  0.0606 -1.8151
 7903TIP3   OH247903   3.508   1.199   1.687  0.3610  0.4675  0.4577
 7903TIP3    H147904   3.523   1.108   1.664  0.0904  0.1549  1.4748
 7903TIP3    H247905   3.568   1.248   1.631  0.2853 -0.3061 -0.3143
 7904TIP3   OH247906   2.842   2.217   8.782 -0.1184 -0.1604  0.1451
 7904TIP3    H147907   2.856   2.300   8.828 -0.5735  0.8310 -1.4456
 7904TIP3    H247908   2.751   2.194   8.800  0.6018 -1.5804  2.4831
 7905TIP3   OH247909   4.479   0.258   2.765  0.3130  0.2653  0.2294
 7905TIP3    H147910   4.385   0.255   2.780  0.0083  1.7625 -1.0369
 7905TIP3    H247911   4.517   0.269   2.852 -0.4265 -2.9656  1.0993
 7906TIP3   OH247912   6.773   5.667   0.907  0.1380  0.0144 -0.0600
 7906TIP3    H147913   6.855   5.637   0.867  0.4774 -1.5686  1.6568
 7906TIP3    H247914   6.799   5.737   0.966  0.1145  0.1567 -0.2186
 7907TIP3   OH247915   1.840   2.127   2.666  0.2844 -0.1870  0.0901
 7907TIP3    H147916   1.924   2.148   2.708 -0.6669  0.9837  1.5092
 7907TIP3    H247917   1.858   2.048   2.615  2.2628  0.0773  0.2856
 7908TIP3   OH247918   1.430   5.476   7.380 -0.1769  0.5057 -0.3218
 7908TIP3    H147919   1.350   5.431   7.410 -0.9331  1.4488 -0.8834
 7908TIP3    H247920   1.413   5.569   7.395 -0.0717  0.9069 -2.4432
 7909TIP3   OH247921   5.457   2.771   0.830 -0.2394  0.1847 -0.2771
 7909TIP3    H147922   5.503   2.694   0.862 -0.2617  0.9206  1.6901
 7909TIP3    H247923   5.393   2.791   0.899 -1.3315  1.0306 -1.4841
 7910TIP3   OH247924   6.500   3.969   8.837  0.5200 -0.0101 -0.3254
 7910TIP3    H147925   6.423   3.923   8.802 -0.1488 -0.3303  1.4990
 7910TIP3    H247926   6.560   3.975   8.762 -0.3115 -1.8358 -1.1942
 7911TIP3   OH247927   5.610   7.167   9.552  0.6707 -0.5733  0.2146
 7911TIP3    H147928   5.659   7.244   9.582 -1.0438  1.6062 -2.1075
 7911TIP3    H247929   5.534   7.163   9.610  0.4089 -0.0561 -0.0856
 7912TIP3   OH247930   7.629   0.235   1.209  0.4681 -0.6345  0.3778
 7912TIP3    H147931   7.721   0.207   1.209  1.3643  2.0407  0.5992
 7912TIP3    H247932   7.621   0.292   1.132 -0.0938  1.6711  2.0307
 7913TIP3   OH247933   6.670   2.440   1.993 -0.3023 -0.2154 -0.4374
 7913TIP3    H147934   6.754   2.457   1.951  0.9580  0.1658  2.0317
 7913TIP3    H247935   6.619   2.519   1.977  0.4635  0.2810 -0.5082
 7914TIP3   OH247936   5.610   3.142   7.572  0.2734  1.0408  0.2635
 7914TIP3    H147937   5.680   3.173   7.630 -0.2371 -0.0648  1.5168
 7914TIP3    H247938   5.641   3.056   7.542  0.1603  1.2481 -0.4668
 7915TIP3   OH247939   6.962   5.131   0.825 -0.0022 -0.5887  0.1738
 7915TIP3    H147940   6.924   5.116   0.739  0.0272 -0.9832  0.2264
 7915TIP3    H247941   6.888   5.154   0.881  0.3678  3.6857 -0.7831
 7916TIP3   OH247942   6.688   0.602   2.738 -0.1337 -0.4751  0.3069
 7916TIP3    H147943   6.733   0.684   2.716  0.1435 -0.5283  0.6423
 7916TIP3    H247944   6.754   0.553   2.789  0.3191 -1.6460 -1.3417
 7917TIP3   OH247945   3.658   6.943   1.664 -0.3258  0.5187 -0.5347
 7917TIP3    H147946   3.700   7.020   1.704 -0.0142  0.2983 -0.4330
 7917TIP3    H247947   3.610   6.901   1.735  1.3874 -0.6773 -0.0258
 7918TIP3   OH247948   3.278   1.818   2.310 -0.0478  0.3652  0.3375
 7918TIP3    H147949   3.358   1.860   2.278  0.9052 -1.6694 -0.1266
 7918TIP3    H247950   3.207   1.874   2.278  1.1049  1.0540 -1.1480
 7919TIP3   OH247951   5.022   6.985   8.907 -0.2365 -0.5225 -0.2387
 7919TIP3    H147952   5.083   7.052   8.935 -0.7238 -1.2569  3.0131
 7919TIP3    H247953   5.072   6.930   8.847  1.1985  0.8074 -0.3123
 7920TIP3   OH247954   0.848   1.162   9.637  0.0608 -0.1640  0.1356
 7920TIP3    H147955   0.878   1.221   9.706  0.6066 -1.5094  1.1050
 7920TIP3    H247956   0.921   1.160   9.574  0.2365 -0.1526  0.3354
 7921TIP3   OH247957   7.367   2.266   8.361  0.2464  0.5386 -0.4788
 7921TIP3    H147958   7.400   2.191   8.410 -2.3280 -0.8407 -0.7143
 7921TIP3    H247959   7.433   2.334   8.375  1.3712 -0.9111  1.9102
 7922TIP3   OH247960   6.049   2.838   0.366  0.5350 -0.7359 -0.0755
 7922TIP3    H147961   5.975   2.872   0.417  1.5002 -0.1984  1.0093
 7922TIP3    H247962   6.023   2.852   0.275  0.1727  1.4440  0.2970
 7923TIP3   OH247963   7.452   4.967   0.820  0.0033 -0.1170 -0.3966
 7923TIP3    H147964   7.424   4.876   0.833 -1.4214  0.4127  0.4958
 7923TIP3    H247965   7.377   5.019   0.849  0.9866  1.3548 -0.4149
 7924TIP3   OH247966   3.955   3.869   9.853  0.3530 -0.0211 -0.1523
 7924TIP3    H147967   3.901   3.883   9.775 -0.1264 -0.1536  0.1486
 7924TIP3    H247968   3.984   3.957   9.877  1.3754 -0.0888 -1.0817
 7925TIP3   OH247969   7.048   2.227   9.117 -0.1332 -0.4605 -0.7946
 7925TIP3    H147970   7.122   2.218   9.178 -1.4096  0.4664  0.9837
 7925TIP3    H247971   7.000   2.303   9.150 -0.3992  0.6659 -3.5430
 7926TIP3   OH247972   0.994   7.096   8.154 -0.1217 -0.7130 -0.9072
 7926TIP3    H147973   1.015   7.079   8.246 -1.9741 -0.4786 -0.3971
 7926TIP3    H247974   1.079   7.117   8.114  0.6158  0.1875  0.9682
 7927TIP3   OH247975   2.479   5.175   8.060 -0.1084 -0.1660  0.1518
 7927TIP3    H147976   2.565   5.190   8.021  0.2358  0.9222  1.2583
 7927TIP3    H247977   2.423   5.243   8.023 -1.0961 -2.0698 -2.1277
 7928TIP3   OH247978   2.109   4.853   8.370  0.1743  0.1873 -0.3805
 7928TIP3    H147979   2.142   4.930   8.417  0.8991 -1.3533  1.7992
 7928TIP3    H247980   2.188   4.801   8.351 -0.2531  0.1451 -2.2395
 7929TIP3   OH247981   2.411   4.355   7.673  0.7899 -0.7664  0.0717
 7929TIP3    H147982   2.388   4.325   7.585  2.0669 -0.1440 -0.5012
 7929TIP3    H247983   2.472   4.289   7.706 -0.9778 -1.9181  1.2167
 7930TIP3   OH247984   5.274   0.601   8.015  0.1899 -0.3984 -0.4549
 7930TIP3    H147985   5.253   0.536   7.948 -0.0076 -0.7040 -0.1016
 7930TIP3    H247986   5.237   0.683   7.982 -0.0410 -0.5801 -0.6445
 7931TIP3   OH247987   2.873   7.403   7.172 -0.1496  0.2698 -0.7790
 7931TIP3    H147988   2.798   7.381   7.117 -0.2791  0.3622 -0.6417
 7931TIP3    H247989   2.880   7.498   7.167  0.8818  0.1556 -1.9812
 7932TIP3   OH247990   4.591   6.574   9.786  0.1553 -0.7252 -0.2423
 7932TIP3    H147991   4.626   6.499   9.835 -0.2124 -0.5386  0.3114
 7932TIP3    H247992   4.580   6.642   9.852 -1.1652 -0.7445 -0.4120
 7933TIP3   OH247993   2.034   5.937   0.879 -0.3450  0.3223  0.5611
 7933TIP3    H147994   2.014   5.894   0.962 -1.3507 -0.4403 -0.0443
 7933TIP3    H247995   2.095   6.007   0.902  1.2916 -1.3523  1.6057
 7934TIP3   OH247996   4.715   3.293   8.174  0.2207  0.0508  1.1689
 7934TIP3    H147997   4.651   3.221   8.183 -0.3494  0.2455 -0.7831
 7934TIP3    H247998   4.690   3.355   8.242 -2.4680  0.6378 -0.1974
 7935TIP3   OH247999   3.304   1.015   0.993  0.1285 -0.5855 -0.5733
 7935TIP3    H148000   3.339   1.103   1.003  0.9497 -0.8619 -0.8428
 7935TIP3    H248001   3.305   0.999   0.899 -2.9902  0.2466 -0.8202
 7936TIP3   OH248002   2.484   4.821   9.823 -0.5598 -0.0229  0.5130
 7936TIP3    H148003   2.516   4.844   9.736 -0.0534 -0.4510  0.5803
 7936TIP3    H248004   2.410   4.763   9.807 -0.5452 -0.0017  0.3700
 7937TIP3   OH248005   1.909   4.725   9.015 -0.0630  0.2003  0.0873
 7937TIP3    H148006   1.944   4.650   8.967  2.1434  1.8216 -0.9986
 7937TIP3    H248007   1.901   4.694   9.105 -0.0502 -1.5761 -0.4851
 7938TIP3   OH248008   2.868   1.038   7.901 -0.0310 -0.1391 -0.0607
 7938TIP3    H148009   2.773   1.053   7.894 -0.3976 -1.2699  1.8826
 7938TIP3    H248010   2.888   0.980   7.828 -0.4007  1.7184 -1.7340
 7939TIP3   OH248011   4.918   2.227   2.664 -0.2322 -0.2768 -0.5521
 7939TIP3    H148012   4.871   2.261   2.739  0.8392  0.4058 -0.1640
 7939TIP3    H248013   4.999   2.192   2.700 -0.0784 -0.6933 -1.2849
 7940TIP3   OH248014   2.049   5.460   3.069  0.6002  0.2332 -0.1912
 7940TIP3    H148015   2.102   5.459   3.149  0.5062  0.7408 -0.1194
 7940TIP3    H248016   1.990   5.533   3.081 -0.4373 -0.6022 -0.0691
 7941TIP3   OH248017   6.963   7.410   1.076  0.7593 -0.0081  0.3913
 7941TIP3    H148018   6.924   7.342   1.021  3.6000 -0.7976 -0.8502
 7941TIP3    H248019   6.967   7.488   1.021 -0.8916  0.7232  1.2309
 7942TIP3   OH248020   5.866   2.939   8.687  0.0520  0.6953 -0.2360
 7942TIP3    H148021   5.773   2.940   8.711  0.3059  0.2781  0.8562
 7942TIP3    H248022   5.898   3.025   8.713 -0.3367  1.4046 -2.0092
 7943TIP3   OH248023   3.846   0.774   8.748  1.0919 -0.3280 -0.3086
 7943TIP3    H148024   3.897   0.785   8.667  1.0524  2.0428 -0.0731
 7943TIP3    H248025   3.826   0.863   8.776 -0.2132 -1.1352  1.5152
 7944TIP3   OH248026   4.869   1.010   1.490 -0.1707  0.0013  0.5682
 7944TIP3    H148027   4.827   0.935   1.450  0.5747 -0.5134  0.7269
 7944TIP3    H248028   4.847   1.004   1.583 -0.6327  0.3404  0.4859
 7945TIP3   OH248029   3.918   6.642   0.016 -0.2770 -0.2622  0.3404
 7945TIP3    H148030   3.915   6.635   0.111 -1.8374 -2.7645  0.2005
 7945TIP3    H248031   3.887   6.557  -0.015  3.1933 -0.7722 -2.4397
 7946TIP3   OH248032   6.069   2.638   1.630  0.5212 -0.1840 -0.1217
 7946TIP3    H148033   6.051   2.659   1.722 -2.3418 -2.4675 -0.0395
 7946TIP3    H248034   6.069   2.543   1.626  0.9167 -0.1499 -2.4746
 7947TIP3   OH248035   7.240   3.643   0.339 -0.0646 -0.2835 -0.6920
 7947TIP3    H148036   7.280   3.559   0.361 -1.0403 -0.4768  0.4147
 7947TIP3    H248037   7.304   3.686   0.282  1.5988 -0.6913  0.8001
 7948TIP3   OH248038   4.786   1.412   6.944 -0.1829 -0.2125 -0.2181
 7948TIP3    H148039   4.876   1.388   6.923  0.0872  1.6212 -1.3861
 7948TIP3    H248040   4.746   1.331   6.974  1.1856 -1.6337 -2.0033
 7949TIP3   OH248041   6.139   0.397  10.025 -0.0550  0.2054  0.4335
 7949TIP3    H148042   6.115   0.360   9.939  1.1953  0.9471 -0.2640
 7949TIP3    H248043   6.177   0.482  10.004  3.1304 -0.8342  1.4099
 7950TIP3   OH248044   5.133   0.408  10.024  0.4228  0.3433  0.6288
 7950TIP3    H148045   5.104   0.462  10.097 -1.2080  1.1263 -0.5397
 7950TIP3    H248046   5.099   0.452   9.946  2.2952 -0.3464 -0.6350
 7951TIP3   OH248047   1.310   0.624   1.039  0.0379 -0.2780  0.6316
 7951TIP3    H148048   1.333   0.532   1.054  1.1037 -0.0004  0.8248
 7951TIP3    H248049   1.395   0.669   1.035 -0.4929  0.8529  1.5239
 7952TIP3   OH248050   2.258   0.621   1.656 -0.6103 -0.7451 -0.3409
 7952TIP3    H148051   2.317   0.549   1.633 -0.3711  0.1439 -2.8808
 7952TIP3    H248052   2.302   0.699   1.624 -1.2603  0.4703  1.5722
 7953TIP3   OH248053   0.744   5.135   1.950 -0.1362  0.1501 -0.1515
 7953TIP3    H148054   0.775   5.046   1.967  1.3923  0.6410 -0.2023
 7953TIP3    H248055   0.720   5.135   1.857 -1.3413 -0.5109  0.1296
 7954TIP3   OH248056   7.466   3.895   1.601 -0.2141  0.7979  0.1773
 7954TIP3    H148057   7.546   3.948   1.601  0.3670 -0.0120 -1.1618
 7954TIP3    H248058   7.396   3.955   1.577  0.2536  1.1931 -0.2113
 7955TIP3   OH248059   1.042   3.020   1.060 -0.5071 -0.6381 -0.2543
 7955TIP3    H148060   1.065   3.112   1.072  2.5016 -1.3539  0.2745
 7955TIP3    H248061   1.005   3.016   0.972  2.2023  0.6963 -1.5813
 7956TIP3   OH248062   2.592   7.263   2.904  0.1099  0.5578  0.3048
 7956TIP3    H148063   2.497   7.274   2.911  0.3295  1.3308  3.0990
 7956TIP3    H248064   2.629   7.330   2.961  2.2536 -1.3799  1.3638
 7957TIP3   OH248065   6.313   0.618   8.495 -0.1286  0.4844 -0.4878
 7957TIP3    H148066   6.383   0.681   8.512  0.9080 -0.2623 -1.8263
 7957TIP3    H248067   6.243   0.670   8.455 -0.4721  1.2740  1.0453
 7958TIP3   OH248068   2.970   2.659   0.017 -0.1260  0.5131 -0.3637
 7958TIP3    H148069   3.062   2.663   0.042 -0.6264  0.0655  1.7611
 7958TIP3    H248070   2.939   2.750   0.025 -0.2655  0.3841  0.6582
 7959TIP3   OH248071   0.475   2.845   9.523  0.0432 -0.1413 -0.4673
 7959TIP3    H148072   0.446   2.927   9.483 -0.0392  1.0999  1.9049
 7959TIP3    H248073   0.560   2.866   9.562  0.5640 -1.5268 -0.7946
 7960TIP3   OH248074   4.392   4.530   7.996 -0.8383  0.0667  0.5032
 7960TIP3    H148075   4.358   4.609   8.039 -1.5671  0.3143 -0.4968
 7960TIP3    H248076   4.487   4.539   8.001 -0.9140  0.6804  0.9893
 7961TIP3   OH248077   1.599   0.345   3.486  0.1246  0.1437  0.0896
 7961TIP3    H148078   1.506   0.362   3.502  0.1789  0.0565  0.5165
 7961TIP3    H248079   1.629   0.419   3.434  0.2793  1.1910  1.6248
 7962TIP3   OH248080   3.811   1.382   0.125  0.6601  0.1763 -0.5376
 7962TIP3    H148081   3.869   1.357   0.053 -0.3857 -1.0509 -0.9838
 7962TIP3    H248082   3.723   1.372   0.090  0.1300 -0.3729  0.8851
 7963TIP3   OH248083   2.180   1.498   1.902 -0.1268 -0.2722 -0.4564
 7963TIP3    H148084   2.192   1.442   1.978 -1.0026  0.2157  0.0503
 7963TIP3    H248085   2.219   1.582   1.927  0.4623 -0.4048 -0.9143
 7964TIP3   OH248086   4.743   6.845   8.546 -0.2723 -0.2831 -0.2092
 7964TIP3    H148087   4.689   6.767   8.538 -0.4139 -0.1257 -0.8041
 7964TIP3    H248088   4.681   6.918   8.554 -0.1858 -0.4251  2.8542
 7965TIP3   OH248089   4.958   1.125   0.395  0.1260  0.0822  0.0069
 7965TIP3    H148090   4.939   1.146   0.487  0.7761  0.6983  0.0056
 7965TIP3    H248091   5.039   1.075   0.398  1.9225  2.7785 -0.4299
 7966TIP3   OH248092   0.488   4.406   2.737 -0.2700 -0.0472 -0.1669
 7966TIP3    H148093   0.457   4.490   2.770 -1.8170 -1.1974  1.4917
 7966TIP3    H248094   0.551   4.375   2.803 -0.1568 -0.4646 -0.4615
 7967TIP3   OH248095   6.759   2.209   0.447  0.2125 -0.6302 -0.7447
 7967TIP3    H148096   6.715   2.124   0.446 -1.2933  0.1004  0.0614
 7967TIP3    H248097   6.825   2.202   0.377 -0.4728 -2.1304 -1.3009
 7968TIP3   OH248098   6.501   0.832   0.726 -0.1747 -0.3491 -0.7052
 7968TIP3    H148099   6.467   0.921   0.714  1.8721  0.5257 -0.5718
 7968TIP3    H248100   6.435   0.775   0.686 -0.9535  1.3213 -1.9557
 7969TIP3   OH248101   7.067   1.463   6.931  0.1103  0.4927 -0.6039
 7969TIP3    H148102   7.013   1.509   6.867 -0.1104  1.4544  0.2643
 7969TIP3    H248103   7.010   1.392   6.963 -1.3812  2.5618  1.6277
 7970TIP3   OH248104   5.824   0.342   9.592  0.1375 -0.2799  1.0086
 7970TIP3    H148105   5.849   0.335   9.499  0.6971  0.6622  1.0754
 7970TIP3    H248106   5.731   0.364   9.590 -0.0381 -1.0060  0.6956
 7971TIP3   OH248107   1.750   5.581   8.335  0.5160  0.1160 -0.1172
 7971TIP3    H148108   1.828   5.603   8.386 -1.6424  1.0478  3.0782
 7971TIP3    H248109   1.721   5.497   8.369 -1.0881  0.8347  0.3971
 7972TIP3   OH248110   4.953   4.439   8.917  0.1825  0.1941 -0.1024
 7972TIP3    H148111   5.005   4.362   8.894  1.0048  0.6532  0.1681
 7972TIP3    H248112   4.914   4.417   9.001  2.4673  1.0049  1.2532
 7973TIP3   OH248113   2.478   0.230   1.942  0.3590 -0.3334 -0.1406
 7973TIP3    H148114   2.486   0.263   1.852  1.0302 -1.4100 -0.5035
 7973TIP3    H248115   2.405   0.279   1.979 -0.2316 -0.1809 -1.4343
 7974TIP3   OH248116   0.137   4.798   8.177 -0.1466 -0.1292  0.5642
 7974TIP3    H148117   0.122   4.788   8.083 -2.7053 -1.7223  1.0479
 7974TIP3    H248118   0.090   4.877   8.202  0.6743  0.3887  0.4961
 7975TIP3   OH248119   3.620   5.731   0.692  0.3522  0.3181  0.0691
 7975TIP3    H148120   3.574   5.697   0.769 -0.1394  0.5015 -0.1369
 7975TIP3    H248121   3.556   5.723   0.620  0.6318  0.6039 -0.2163
 7976TIP3   OH248122   1.656   1.266   0.617 -0.6118 -0.7645  0.4955
 7976TIP3    H148123   1.628   1.353   0.589  0.8803 -0.0830  1.0055
 7976TIP3    H248124   1.736   1.249   0.567  0.4085 -0.8148  2.0634
 7977TIP3   OH248125   1.506   5.303   7.993  0.2678 -0.3864  0.0268
 7977TIP3    H148126   1.570   5.244   8.033 -1.1753 -1.3871  0.9647
 7977TIP3    H248127   1.486   5.263   7.909  0.9471  0.0050 -0.3325
 7978TIP3   OH248128   3.720   0.332   0.782 -0.0710 -0.2416 -0.2793
 7978TIP3    H148129   3.763   0.307   0.700  0.9184 -0.7802  0.3890
 7978TIP3    H248130   3.653   0.264   0.795  0.0590 -0.4004 -0.4255
 7979TIP3   OH248131   1.722   5.946   8.422 -0.0367 -0.1148 -0.1423
 7979TIP3    H148132   1.739   5.897   8.502 -1.2041  1.7833  1.3808
 7979TIP3    H248133   1.796   5.926   8.365  1.3032 -0.8907  1.7503
 7980TIP3   OH248134   5.431   0.608   8.247 -0.3248 -0.0830 -0.4488
 7980TIP3    H148135   5.361   0.585   8.185 -1.2361  1.3497  0.0151
 7980TIP3    H248136   5.510   0.612   8.192 -1.0403  0.7516 -1.4606
 7981TIP3   OH248137   2.726   5.975   0.938  0.5146 -0.1628 -0.1922
 7981TIP3    H148138   2.716   5.903   1.000  1.5764 -0.3770 -0.2433
 7981TIP3    H248139   2.637   6.008   0.924  0.1900 -0.4916  0.9873
 7982TIP3   OH248140   1.474   1.744   9.293  0.1452 -0.1338 -0.0489
 7982TIP3    H148141   1.408   1.737   9.223 -0.5197  1.2901  0.3993
 7982TIP3    H248142   1.550   1.783   9.250 -0.4374  1.2211  0.0872
 7983TIP3   OH248143   4.458   0.102   0.143 -0.7390  0.0442  0.6822
 7983TIP3    H148144   4.367   0.074   0.142 -0.5623 -0.5154 -0.0536
 7983TIP3    H248145   4.455   0.194   0.114 -0.9477 -0.3794 -0.7220
 7984TIP3   OH248146   2.817   1.122   9.031 -0.1930  0.5421 -0.1406
 7984TIP3    H148147   2.728   1.147   9.006 -0.9682 -1.2548  0.6064
 7984TIP3    H248148   2.835   1.172   9.111 -1.1136 -0.0795  0.4807
 7985TIP3   OH248149   2.847   7.346   2.132  0.0406 -0.6360  0.2068
 7985TIP3    H148150   2.837   7.320   2.041 -0.6090  0.0547  0.0740
 7985TIP3    H248151   2.916   7.289   2.166  1.2227 -0.0050 -1.0645
 7986TIP3   OH248152   6.126   6.212   8.413 -0.4212 -0.5931  0.0456
 7986TIP3    H148153   6.118   6.280   8.480  0.3254 -0.8168  0.3704
 7986TIP3    H248154   6.166   6.138   8.459  0.1600 -0.7244 -0.6531
 7987TIP3   OH248155   1.675   1.405   6.972 -0.1075  0.6676  0.0482
 7987TIP3    H148156   1.650   1.405   6.879 -0.0666 -0.4118  0.0220
 7987TIP3    H248157   1.682   1.498   6.995 -1.0594  0.9628 -0.7689
 7988TIP3   OH248158   5.061   7.057   9.581 -0.1271 -0.0538 -0.1827
 7988TIP3    H148159   5.031   7.134   9.532  0.0067 -0.3266 -0.6902
 7988TIP3    H248160   5.007   7.058   9.660 -2.5944 -1.3597 -1.7152
 7989TIP3   OH248161   3.956   2.314   8.198 -0.2892 -0.4521 -0.1878
 7989TIP3    H148162   3.873   2.304   8.151 -0.0720 -0.5470 -0.5549
 7989TIP3    H248163   3.931   2.355   8.280 -0.4558  1.4758 -1.1453
 7990TIP3   OH248164   4.876   5.332   9.833  0.0659 -0.5434  0.4939
 7990TIP3    H148165   4.806   5.299   9.777  0.4872 -0.5249 -0.0565
 7990TIP3    H248166   4.867   5.427   9.830  0.3834 -0.5192  0.0489
 7991TIP3   OH248167   7.170   7.305   0.504 -0.0480 -0.2365  0.0945
 7991TIP3    H148168   7.131   7.382   0.463 -0.4449 -0.4088  0.1414
 7991TIP3    H248169   7.112   7.285   0.577  0.8424  0.2690  0.9583
 7992TIP3   OH248170   5.739   0.877   2.153  0.0213  0.3818 -0.0651
 7992TIP3    H148171   5.739   0.956   2.208  3.1901 -0.6550  1.7403
 7992TIP3    H248172   5.711   0.807   2.212  0.3465 -0.2915 -0.7000
 7993TIP3   OH248173   1.397   4.305   0.141 -0.1492  0.0168  0.2893
 7993TIP3    H148174   1.455   4.267   0.075 -2.4779  2.2153 -3.3797
 7993TIP3    H248175   1.436   4.391   0.161 -0.6875  0.3748 -0.1503
 7994TIP3   OH248176   1.520   0.568   6.893  0.5384 -0.2988  0.5805
 7994TIP3    H148177   1.565   0.492   6.930 -1.2441  0.0509  3.7756
 7994TIP3    H248178   1.584   0.606   6.832  2.7364 -2.3995  1.4098
 7995TIP3   OH248179   5.092   0.220   8.131 -0.1700  0.8233 -0.1039
 7995TIP3    H148180   5.076   0.310   8.160 -2.7562  0.6986 -0.9332
 7995TIP3    H248181   5.166   0.191   8.184  0.1248  3.0971  0.8639
 7996TIP3   OH248182   4.721   0.157   2.637  0.3585  0.3947 -0.2773
 7996TIP3    H148183   4.635   0.189   2.665  1.2486 -0.3057  3.9424
 7996TIP3    H248184   4.779   0.234   2.645  0.8280 -0.0643  0.9691
 7997TIP3   OH248185   3.704   7.516   8.131  0.2051  0.4232  0.2061
 7997TIP3    H148186   3.660   7.568   8.063  0.7909  1.4895  0.6138
 7997TIP3    H248187   3.721   7.579   8.201 -0.3048 -0.6439  1.3183
 7998TIP3   OH248188   1.250   1.173   2.761 -0.4573  0.5100 -0.4546
 7998TIP3    H148189   1.327   1.201   2.712 -0.1444  3.2707  1.3789
 7998TIP3    H248190   1.281   1.162   2.851 -1.5140 -1.9257 -0.3126
 7999TIP3   OH248191   6.406   1.387   2.117  0.4039  0.4064  0.4166
 7999TIP3    H148192   6.469   1.460   2.122  1.6016 -0.4885 -0.9197
 7999TIP3    H248193   6.423   1.347   2.032 -1.4588 -0.3668  0.3838
 8000TIP3   OH248194   3.584   0.188   1.298  0.3036  0.1163 -0.0130
 8000TIP3    H148195   3.568   0.161   1.208  1.9817 -2.3787  0.3214
 8000TIP3    H248196   3.513   0.148   1.348  0.5154 -0.2297  0.0106
 8001TIP3   OH248197   2.590   2.133   8.154  0.3881 -0.3536  0.2486
 8001TIP3    H148198   2.606   2.063   8.091 -0.8442  0.1923 -0.7221
 8001TIP3    H248199   2.629   2.211   8.114  1.2565 -0.3469  1.0622
 8002TIP3   OH248200   7.271   1.138   2.828  0.3598  0.1253 -0.2805
 8002TIP3    H148201   7.346   1.134   2.887  0.4630  0.2645 -0.3997
 8002TIP3    H248202   7.307   1.119   2.742  0.3074  0.4614 -0.3789
 8003TIP3   OH248203   4.072   2.223   9.028  0.2734  0.3663 -0.4340
 8003TIP3    H148204   4.024   2.142   9.009  0.4045 -0.3841  2.0289
 8003TIP3    H248205   4.011   2.276   9.078  1.0491  0.6191  0.2717
 8004TIP3   OH248206   2.079   7.385   0.481  0.1750 -0.5101  0.1990
 8004TIP3    H148207   2.101   7.417   0.569  2.2259 -3.5936  0.9706
 8004TIP3    H248208   1.984   7.389   0.478  0.0478 -0.1924  2.5260
 8005TIP3   OH248209   0.236   2.334   9.420 -0.5796 -0.3443  0.4518
 8005TIP3    H148210   0.327   2.307   9.415 -0.3112  0.4068  1.1258
 8005TIP3    H248211   0.211   2.351   9.329 -0.2821 -1.2568  0.1838
 8006TIP3   OH248212   5.818   7.611   1.038  0.0643 -0.3271 -0.5231
 8006TIP3    H148213   5.840   7.655   1.120  0.2760 -0.8976 -0.2724
 8006TIP3    H248214   5.833   7.518   1.056  0.3861 -0.4304 -1.2903
 8007TIP3   OH248215   2.412   3.724   8.728 -0.2930 -0.6321  0.8823
 8007TIP3    H148216   2.432   3.691   8.816 -0.1030  0.0964  1.1230
 8007TIP3    H248217   2.432   3.651   8.670 -1.3546 -1.4713  1.5161
 8008TIP3   OH248218   1.667   5.400   9.704 -0.1516  0.2033  0.0215
 8008TIP3    H148219   1.694   5.363   9.788 -0.1968  2.2117  0.9941
 8008TIP3    H248220   1.747   5.443   9.671 -0.1236 -0.5979 -1.0102
 8009TIP3   OH248221   5.290   1.500   7.836 -0.3642  0.2394 -0.6336
 8009TIP3    H148222   5.305   1.592   7.860 -0.7246  0.1011  0.1553
 8009TIP3    H248223   5.237   1.465   7.908  2.6709 -1.5572  0.9198
 8010TIP3   OH248224   5.043   0.926   2.305  0.2522 -0.0820  0.3436
 8010TIP3    H148225   5.133   0.894   2.293  0.1955 -1.2280  2.5566
 8010TIP3    H248226   5.052   1.001   2.363 -0.2783 -1.0002  1.6673
 8011TIP3   OH248227   1.296   0.142   7.943  0.1474  0.8282  0.4751
 8011TIP3    H148228   1.264   0.160   7.854 -0.3945  1.9767  0.8746
 8011TIP3    H248229   1.257   0.058   7.966 -1.3000  1.4336  0.3322
 8012TIP3   OH248230   5.429   6.651   1.730  0.2765 -0.2072 -0.4009
 8012TIP3    H148231   5.453   6.559   1.726  1.0087 -0.1574  1.7057
 8012TIP3    H248232   5.381   6.667   1.648 -0.2316 -2.5315 -0.6271
 8013TIP3   OH248233   2.124   1.896  -0.003  0.4444 -0.4653 -0.7485
 8013TIP3    H148234   2.114   1.968  -0.064 -1.7514  0.1856  0.2781
 8013TIP3    H248235   2.063   1.829  -0.033 -0.0872 -0.4583  0.2614
 8014TIP3   OH248236   0.161   2.102   8.044  0.4261 -0.0968  0.1002
 8014TIP3    H148237   0.229   2.126   7.981  0.1377  0.1190 -0.1350
 8014TIP3    H248238   0.121   2.186   8.069  1.7842  0.0288  2.0254
 8015TIP3   OH248239   5.776   2.921   7.455 -0.1074  0.4164 -0.4562
 8015TIP3    H148240   5.803   2.936   7.364  0.0357 -1.4181 -0.7438
 8015TIP3    H248241   5.857   2.895   7.500 -0.4567 -0.1924 -0.1716
 8016TIP3   OH248242   3.534   1.989   7.682 -0.1294  0.4212  0.5131
 8016TIP3    H148243   3.501   1.944   7.604 -1.2199  0.6362  0.8408
 8016TIP3    H248244   3.573   2.070   7.649  0.9809 -0.2893  0.0206
 8017TIP3   OH248245   5.542   3.069   8.489  0.0229 -0.1253  1.0107
 8017TIP3    H148246   5.525   3.060   8.395 -1.5772 -2.1983  1.4203
 8017TIP3    H248247   5.635   3.091   8.494 -0.3577  2.4211 -1.1030
 8018TIP3   OH248248   1.148   2.564   9.097  0.2200  0.3115 -0.0458
 8018TIP3    H148249   1.082   2.544   9.164 -0.7732  0.0715 -1.0559
 8018TIP3    H248250   1.230   2.532   9.134 -0.3131  0.1012  1.0108
 8019TIP3   OH248251   1.785   2.684   1.590  0.1372 -0.2986 -0.0147
 8019TIP3    H148252   1.737   2.603   1.610  1.4936 -0.9589  0.6952
 8019TIP3    H248253   1.744   2.750   1.646 -0.3213 -0.7161  0.1542
 8020TIP3   OH248254   5.415   2.451   0.706 -0.6260  0.2026  0.5581
 8020TIP3    H148255   5.351   2.487   0.767 -1.7599 -0.7250 -0.0318
 8020TIP3    H248256   5.362   2.418   0.633  0.4095 -1.7861  0.6463
 8021TIP3   OH248257   4.735   0.458   2.255 -0.9915 -0.1718  0.3313
 8021TIP3    H148258   4.725   0.435   2.162  0.6995  1.7108 -0.3990
 8021TIP3    H248259   4.733   0.374   2.301 -1.3037 -1.2036 -1.4637
 8022TIP3   OH248260   3.611   5.678   9.157  0.7992 -0.2557 -0.0081
 8022TIP3    H148261   3.630   5.771   9.143 -1.4181  0.1102 -1.0098
 8022TIP3    H248262   3.688   5.633   9.123  1.8232  1.1915  0.2884
 8023TIP3   OH248263   3.427   2.278   8.138 -0.0354 -0.3416 -0.0744
 8023TIP3    H148264   3.442   2.366   8.103 -1.0120  0.3595  1.1583
 8023TIP3    H248265   3.453   2.286   8.230 -0.6312 -1.2108  0.1700
 8024TIP3   OH248266   7.287   4.443   8.676 -0.1435 -0.4183  0.1449
 8024TIP3    H148267   7.282   4.349   8.693  0.9408 -0.1529  2.3273
 8024TIP3    H248268   7.325   4.449   8.588 -2.4859 -1.9791 -1.0689
 8025TIP3   OH248269   5.316   3.132   1.193 -0.0677  0.2907 -0.2223
 8025TIP3    H148270   5.227   3.119   1.160  0.0252 -0.2329 -0.2887
 8025TIP3    H248271   5.372   3.107   1.119  0.1350  1.0601 -0.3367
 8026TIP3   OH248272   0.704   2.924   1.104 -0.2347  0.0106  0.4024
 8026TIP3    H148273   0.689   2.994   1.167  0.3838  0.2054  0.3432
 8026TIP3    H248274   0.799   2.927   1.088 -0.0420 -1.4465  1.1159
 8027TIP3   OH248275   0.895   0.461   1.376  0.7667 -0.1007  0.3858
 8027TIP3    H148276   0.930   0.390   1.429  0.7220  0.6409  1.4312
 8027TIP3    H248277   0.958   0.470   1.304  0.4482 -1.5901 -0.1345
 8028TIP3   OH248278   3.330   0.581   8.573  0.4288  0.2859 -0.3854
 8028TIP3    H148279   3.263   0.559   8.509  0.9279 -0.5979 -0.6317
 8028TIP3    H248280   3.282   0.617   8.647 -0.2364  0.4376 -0.8826
 8029TIP3   OH248281   7.226   2.629   7.392 -0.5142 -0.5145 -0.2697
 8029TIP3    H148282   7.250   2.651   7.302  0.6448  0.8276  0.3123
 8029TIP3    H248283   7.205   2.536   7.390 -0.0834 -0.6035 -1.8374
 8030TIP3   OH248284   0.402   3.310   1.811 -0.2641  0.4192 -0.1082
 8030TIP3    H148285   0.335   3.327   1.877  0.1179  0.6065  0.2355
 8030TIP3    H248286   0.361   3.249   1.750  0.5559 -2.6788  2.2330
 8031TIP3   OH248287   1.837   0.938   9.732  0.0361 -0.2963  0.3036
 8031TIP3    H148288   1.875   1.021   9.703  1.0101  0.1599  2.6688
 8031TIP3    H248289   1.748   0.960   9.759  0.5925  0.2061  1.7927
 8032TIP3   OH248290   6.096   0.389   1.681  0.6018 -0.4270 -0.0503
 8032TIP3    H148291   6.164   0.404   1.616  2.1099 -1.0235  1.3061
 8032TIP3    H248292   6.088   0.293   1.686 -0.3258 -0.3640 -0.1743
 8033TIP3   OH248293   2.810   6.612   9.476  0.1285  0.1721 -0.2628
 8033TIP3    H148294   2.851   6.531   9.508  0.2011 -0.0644 -0.9211
 8033TIP3    H248295   2.717   6.601   9.496  0.1901  0.0870 -0.0221
 8034TIP3   OH248296   2.991   7.294   0.600  0.0021  0.5633 -0.3719
 8034TIP3    H148297   3.028   7.226   0.544 -1.0506  0.3456 -0.8296
 8034TIP3    H248298   2.896   7.277   0.599 -0.1617  1.3631  0.4001
 8035TIP3   OH248299   0.531   1.928   1.886 -0.4353  0.4014  0.1814
 8035TIP3    H148300   0.607   1.943   1.941  0.5559  2.7663 -1.6414
 8035TIP3    H248301   0.459   1.915   1.947  1.4189 -2.5980  1.9833
 8036TIP3   OH248302   4.822   2.410   0.673 -0.3957  1.3118  0.3217
 8036TIP3    H148303   4.897   2.467   0.655  2.6226 -1.4771  2.9018
 8036TIP3    H248304   4.830   2.388   0.766 -3.3443 -0.6999  0.2411
 8037TIP3   OH248305   7.253   2.157   6.990 -1.4892  0.5204  0.3178
 8037TIP3    H148306   7.189   2.145   6.920 -0.6964 -0.5984 -0.2540
 8037TIP3    H248307   7.280   2.249   6.983 -0.3268  0.0716 -1.8453
 8038TIP3   OH248308   6.119   0.934   8.625 -0.1700  0.8132  0.0233
 8038TIP3    H148309   6.114   0.838   8.624  1.2400  0.6585  1.7846
 8038TIP3    H248310   6.184   0.955   8.558  1.6916  0.2481  1.5314
 8039TIP3   OH248311   1.382   5.294   1.730  0.0775 -0.4246  0.1819
 8039TIP3    H148312   1.303   5.335   1.693  0.8102  0.4004 -0.5057
 8039TIP3    H248313   1.444   5.366   1.741  0.4711 -0.9358  1.4852
 8040TIP3   OH248314   2.301   7.492   9.343  0.6275 -0.1577  0.2487
 8040TIP3    H148315   2.278   7.451   9.260  0.6698 -0.5921  0.4527
 8040TIP3    H248316   2.254   7.575   9.342  1.2038  0.1840 -0.5389
 8041TIP3   OH248317   0.400   2.194   8.254 -0.8331  0.0131  0.0713
 8041TIP3    H148318   0.310   2.201   8.225 -0.6328  1.0417 -0.3364
 8041TIP3    H248319   0.416   2.100   8.261 -2.8615 -0.2347  3.1408
 8042TIP3   OH248320   3.962   6.195   8.004 -0.6367  0.4076 -0.3590
 8042TIP3    H148321   3.937   6.287   8.009  3.7507  1.8738 -1.0681
 8042TIP3    H248322   4.036   6.187   8.064  0.7612 -1.9778 -2.2267
 8043TIP3   OH248323   1.423   1.665   7.470 -0.1142  0.0448 -0.6553
 8043TIP3    H148324   1.424   1.596   7.403 -1.8890 -0.1230 -0.5652
 8043TIP3    H248325   1.330   1.680   7.486 -0.0006  4.4203 -2.6972
 8044TIP3   OH248326   4.233   3.304   0.007  0.6782  0.1966  0.1254
 8044TIP3    H148327   4.240   3.265   0.094  1.0460  0.4887  0.2319
 8044TIP3    H248328   4.169   3.250  -0.038  1.8150 -1.0992 -0.0281
 8045TIP3   OH248329   0.067   2.542   0.232  0.1176 -0.2330  0.7987
 8045TIP3    H148330   0.049   2.548   0.326  0.8340  0.3835  0.9076
 8045TIP3    H248331   0.134   2.608   0.217  1.7004 -1.8687  0.2895
 8046TIP3   OH248332   5.795   3.096   8.425  0.2033  0.0336  0.5240
 8046TIP3    H148333   5.799   3.006   8.391  3.2975 -0.0359  0.7958
 8046TIP3    H248334   5.859   3.097   8.497  0.1411  2.4276  0.6099
 8047TIP3   OH248335   1.924   7.293   8.442 -0.5469  0.5740  0.4805
 8047TIP3    H148336   1.970   7.216   8.410  0.5184  0.9166  1.1474
 8047TIP3    H248337   1.971   7.367   8.403 -1.4695  0.9059 -0.0390
 8048TIP3   OH248338   1.763   6.477   9.123  0.4791 -0.3701  0.3027
 8048TIP3    H148339   1.826   6.544   9.151 -0.0609 -0.3188  1.4724
 8048TIP3    H248340   1.812   6.395   9.126  1.1478 -0.0552 -1.1458
 8049TIP3   OH248341   4.424   1.528   8.699 -0.1797  0.2770  0.4850
 8049TIP3    H148342   4.509   1.565   8.720  0.1943 -0.6894  0.7350
 8049TIP3    H248343   4.375   1.532   8.782 -0.4345  0.9829  0.3006
 8050TIP3   OH248344   5.431   4.054   0.293  0.0622  0.5518 -0.2150
 8050TIP3    H148345   5.348   4.100   0.308 -0.2494 -0.4438  1.3765
 8050TIP3    H248346   5.442   4.055   0.198 -0.9611  2.0857 -0.3543
 8051TIP3   OH248347   3.089   7.720   8.221  0.8699 -0.3283 -0.3612
 8051TIP3    H148348   2.999   7.732   8.189  0.9284 -1.1507 -0.8371
 8051TIP3    H248349   3.090   7.765   8.306  0.4225  0.9691 -1.0161
 8052TIP3   OH248350   4.398   3.087   9.011 -0.0318 -0.0326 -0.2598
 8052TIP3    H148351   4.428   3.175   9.032 -0.6538 -0.0614  0.7942
 8052TIP3    H248352   4.468   3.029   9.040  0.5295  0.1239 -1.2700
 8053TIP3   OH248353   4.549   5.514   9.754 -0.7288 -0.1137 -0.1982
 8053TIP3    H148354   4.641   5.487   9.756 -1.0203 -1.1942 -0.4663
 8053TIP3    H248355   4.526   5.533   9.845 -0.1203  0.6372 -0.1913
 8054TIP3   OH248356   1.101   1.907   9.395  0.3000 -0.4338 -0.4839
 8054TIP3    H148357   1.029   1.845   9.404  0.8289 -1.1830 -1.3335
 8054TIP3    H248358   1.111   1.920   9.300  1.5822 -0.6978 -0.4057
 8055TIP3   OH248359   7.383   0.545   7.618  0.3295  0.6518  0.2232
 8055TIP3    H148360   7.361   0.612   7.553 -3.2054  1.3069  1.8520
 8055TIP3    H248361   7.369   0.462   7.573  1.2750  1.0407 -0.8084
 8056TIP3   OH248362   2.569   4.018   8.115  0.0200 -0.3749  0.1546
 8056TIP3    H148363   2.650   4.060   8.142 -0.4000  0.1477  0.6427
 8056TIP3    H248364   2.580   3.926   8.138  0.8513 -0.5015 -0.6890
 8057TIP3   OH248365   6.976   0.795   0.069  0.0677  0.0303  0.1290
 8057TIP3    H148366   6.882   0.779   0.071 -0.9102  4.1988 -1.6713
 8057TIP3    H248367   7.004   0.762  -0.017 -0.4872  1.6805 -0.7092
 8058TIP3   OH248368   5.107   3.105   9.172  0.1671  0.8557  0.2929
 8058TIP3    H148369   5.078   3.037   9.233  1.2706  0.5974  0.5407
 8058TIP3    H248370   5.195   3.079   9.147  0.3588  1.8632 -0.1050
 8059TIP3   OH248371   6.929   0.512   0.276  0.4680  0.0612  0.2115
 8059TIP3    H148372   6.960   0.539   0.190  0.7135  1.1654  0.6180
 8059TIP3    H248373   6.887   0.590   0.311  0.1046 -0.4658  0.9723
 8060TIP3   OH248374   0.566   7.357   0.106  0.1083  0.1495 -0.0018
 8060TIP3    H148375   0.529   7.390   0.189  0.8280 -1.1124  0.8566
 8060TIP3    H248376   0.597   7.269   0.128 -1.2638 -0.9154 -2.0574
 8061TIP3   OH248377   2.349   1.332   9.294 -0.5889 -0.4916  0.4691
 8061TIP3    H148378   2.381   1.247   9.264 -1.2980 -0.7394  0.3986
 8061TIP3    H248379   2.377   1.393   9.226 -0.7862 -0.8017  0.1034
 8062TIP3   OH248380   3.065   0.974   1.570 -0.2515 -0.1249  0.1600
 8062TIP3    H148381   3.149   0.966   1.525 -0.1056 -1.8558  0.6545
 8062TIP3    H248382   3.088   0.993   1.661 -0.4021 -0.1466  0.2040
 8063TIP3   OH248383   7.573   0.824   1.618  0.3382  0.2346 -0.1828
 8063TIP3    H148384   7.596   0.824   1.711 -1.5944 -3.2529  0.4529
 8063TIP3    H248385   7.621   0.750   1.581 -0.3242  0.4552 -1.5606
 8064TIP3   OH248386   2.698   6.571   7.773 -0.2628 -0.2808 -0.3838
 8064TIP3    H148387   2.642   6.637   7.814  0.6652  0.1925  0.1495
 8064TIP3    H248388   2.774   6.621   7.742  0.9121 -1.2385  0.8972
 8065TIP3   OH248389   2.548   1.447   0.350  0.6723 -0.0804 -0.5395
 8065TIP3    H148390   2.521   1.473   0.261 -0.0479  0.6519 -0.1161
 8065TIP3    H248391   2.625   1.501   0.368 -0.0211  0.8170 -0.1861
 8066TIP3   OH248392   5.262   6.239   9.545  0.1756 -0.7544  0.3591
 8066TIP3    H148393   5.269   6.171   9.611 -0.2637 -0.0857  1.1179
 8066TIP3    H248394   5.338   6.296   9.561 -0.5304  0.0330  1.0419
 8067TIP3   OH248395   1.331   2.245   7.620 -0.8567  0.6446  0.0688
 8067TIP3    H148396   1.371   2.262   7.705  0.3713 -2.2638  0.1945
 8067TIP3    H248397   1.285   2.161   7.631  0.1001 -0.2771 -2.3348
 8068TIP3   OH248398   7.546   2.322   3.033  0.0522  0.8140 -0.6546
 8068TIP3    H148399   7.566   2.416   3.023  0.4070  0.8340  0.0863
 8068TIP3    H248400   7.630   2.279   3.020  0.1341  0.7026  0.1831
 8069TIP3   OH248401   0.228   2.369   2.510  0.5396 -0.3304  0.3669
 8069TIP3    H148402   0.248   2.323   2.591 -1.6451  0.8123  1.6590
 8069TIP3    H248403   0.143   2.410   2.526  0.6876  1.1171 -2.0120
 8070TIP3   OH248404   5.838   7.015   2.660 -0.2823  0.0750 -0.4413
 8070TIP3    H148405   5.861   7.076   2.730 -0.3194 -3.2702  2.8068
 8070TIP3    H248406   5.746   6.994   2.676  0.0636 -1.7326 -0.6177
 8071TIP3   OH248407   5.173   1.825   9.584  0.1306  0.2986  0.2548
 8071TIP3    H148408   5.255   1.778   9.596 -1.2188 -2.0140  0.8844
 8071TIP3    H248409   5.182   1.903   9.639  0.8824 -1.2916  2.5435
 8072TIP3   OH248410   7.480   0.611   3.001  0.2288 -0.4975 -0.0926
 8072TIP3    H148411   7.464   0.705   3.015 -2.7163 -0.5694 -2.0290
 8072TIP3    H248412   7.469   0.598   2.907  0.5399 -2.8095  0.1308
 8073TIP3   OH248413   1.965   3.646   7.164 -0.3116 -0.2355 -0.1928
 8073TIP3    H148414   1.923   3.576   7.114 -0.7236 -0.1943  0.0884
 8073TIP3    H248415   1.956   3.724   7.109 -0.9477 -0.1459  0.0211
 8074TIP3   OH248416   7.316   1.361   1.331  0.2298 -0.1160  0.2407
 8074TIP3    H148417   7.317   1.446   1.288 -3.0793  0.3366  0.7895
 8074TIP3    H248418   7.354   1.301   1.268 -0.2949  1.2637 -1.4495
 8075TIP3   OH248419   3.907   2.289   2.636 -0.6404  0.1060  0.4874
 8075TIP3    H148420   3.847   2.269   2.708 -2.1363 -1.0063 -0.9904
 8075TIP3    H248421   3.988   2.243   2.659 -1.4485 -1.1491  0.9783
 8076TIP3   OH248422   3.048   1.957   9.120 -0.2188  0.8647  0.4201
 8076TIP3    H148423   3.055   2.052   9.118 -4.0623  1.3078 -1.8287
 8076TIP3    H248424   3.010   1.934   9.035  1.6730 -2.8634  0.3984
 8077TIP3   OH248425   3.662   0.218   3.412 -0.0966 -0.6538 -0.2358
 8077TIP3    H148426   3.705   0.232   3.497  0.5916 -1.3887 -0.4498
 8077TIP3    H248427   3.718   0.154   3.367 -1.8938 -2.3618 -0.1751
 8078TIP3   OH248428   2.490   5.998   7.562  0.2099  0.6473  0.3802
 8078TIP3    H148429   2.526   6.071   7.612  1.3746  1.6816 -1.8292
 8078TIP3    H248430   2.396   6.016   7.559  0.2201  0.9519  1.5383
 8079TIP3   OH248431   6.133   1.509   7.950  0.0644  0.2612  0.2898
 8079TIP3    H148432   6.118   1.428   7.900 -0.9684  0.0305  0.9267
 8079TIP3    H248433   6.058   1.564   7.929  0.8334  1.1246 -0.2442
 8080TIP3   OH248434   0.935   4.978   8.442  0.1324 -0.5524  0.7878
 8080TIP3    H148435   0.968   4.913   8.379 -0.0380  0.0930  0.0101
 8080TIP3    H248436   0.907   4.926   8.517  1.3170 -1.2555  0.7677
 8081TIP3   OH248437   7.464   0.757   7.102  0.0151 -0.4977  0.4600
 8081TIP3    H148438   7.544   0.710   7.079  0.3362 -1.5330  3.3507
 8081TIP3    H248439   7.410   0.752   7.023  1.7787 -1.9707 -0.7305
 8082TIP3   OH248440   4.321   0.229   3.174  0.1854  0.6202 -1.0277
 8082TIP3    H148441   4.267   0.178   3.113 -0.8514 -0.0351  0.3912
 8082TIP3    H248442   4.259   0.285   3.221  1.0038  1.3248 -0.7546
 8083TIP3   OH248443   7.565   7.008   2.193  0.4101  0.1608  0.2401
 8083TIP3    H148444   7.538   7.094   2.224  2.4544  1.1678 -0.6231
 8083TIP3    H248445   7.631   6.979   2.255  0.6099 -0.2506 -0.1582
 8084TIP3   OH248446   2.246   2.974   9.960  0.5296  1.1257  0.0602
 8084TIP3    H148447   2.306   2.936   9.896  0.0291  0.8809 -0.2716
 8084TIP3    H248448   2.172   3.005   9.907 -0.6970 -0.6335  0.6878
 8085TIP3   OH248449   5.720   7.405   7.444 -0.1573  0.4379  0.1921
 8085TIP3    H148450   5.786   7.473   7.433  0.0405  0.7795  2.8516
 8085TIP3    H248451   5.636   7.450   7.432  0.0112  0.8521  0.5688
 8086TIP3   OH248452   0.908   6.895   9.443 -0.0825 -0.2797 -0.6750
 8086TIP3    H148453   0.813   6.886   9.451  0.0981 -0.7876  1.6609
 8086TIP3    H248454   0.939   6.805   9.429  0.1957 -0.5169  1.2094
 8087TIP3   OH248455   3.971   6.292   9.679 -0.8843 -0.4885  0.1185
 8087TIP3    H148456   3.954   6.217   9.736  0.5287  0.6531  2.1800
 8087TIP3    H248457   4.031   6.258   9.612 -0.3188 -1.2214  0.9836
 8088TIP3   OH248458   7.359   2.827   8.183 -0.5636  0.2243 -0.0415
 8088TIP3    H148459   7.307   2.790   8.112  0.1585  0.2050 -0.5769
 8088TIP3    H248460   7.295   2.865   8.243 -1.1490  2.1438 -1.7558
 8089TIP3   OH248461   6.569   3.478   1.340  0.1227  0.4594 -0.1820
 8089TIP3    H148462   6.579   3.404   1.400 -1.0970  1.0973  0.8492
 8089TIP3    H248463   6.509   3.538   1.385  1.4203  2.2955 -0.7770
 8090TIP3   OH248464   5.955   4.141   7.867  0.0944  0.1050  0.0946
 8090TIP3    H148465   5.890   4.118   7.801  0.7679 -0.3586 -0.4223
 8090TIP3    H248466   5.909   4.201   7.926 -0.7462 -0.0828 -0.3506
 8091TIP3   OH248467   6.833   7.375   2.391 -0.1457 -0.1891  0.0294
 8091TIP3    H148468   6.926   7.370   2.370 -0.1301  0.8564 -0.2391
 8091TIP3    H248469   6.809   7.466   2.371 -1.1796 -0.3936  0.2702
 8092TIP3   OH248470   0.092   4.819   7.323  0.2213 -0.0760 -0.4453
 8092TIP3    H148471   0.011   4.833   7.372  1.3955 -0.8625  1.9106
 8092TIP3    H248472   0.142   4.899   7.336 -0.0939  0.3588 -1.7857
 8093TIP3   OH248473   0.517   1.633   9.018  0.3018  0.2760  0.3593
 8093TIP3    H148474   0.511   1.699   8.949 -3.0598 -0.3994 -0.1934
 8093TIP3    H248475   0.484   1.678   9.096  0.1236 -0.1187  0.5124
 8094TIP3   OH248476   3.961   2.351   0.169  0.5452  0.0526  0.0719
 8094TIP3    H148477   3.878   2.302   0.163  0.8287 -0.4870  0.5203
 8094TIP3    H248478   3.989   2.360   0.078 -0.7883  1.6194 -0.2423
 8095TIP3   OH248479   4.068   0.743   0.000 -0.0034 -0.1598 -0.1558
 8095TIP3    H148480   4.132   0.790   0.054  0.8870  1.2910 -2.3720
 8095TIP3    H248481   4.121   0.690  -0.060 -0.7953  1.2340 -2.1817
 8096TIP3   OH248482   4.467   2.430   8.441  0.1963 -0.9312 -0.3925
 8096TIP3    H148483   4.429   2.518   8.444 -0.6333 -1.2163 -1.8328
 8096TIP3    H248484   4.554   2.440   8.481 -0.9309 -0.0549  2.0480
 8097TIP3   OH248485   0.473   3.643   9.233 -0.8321 -0.3437  0.2263
 8097TIP3    H148486   0.396   3.630   9.289 -0.0517 -0.2843  1.3407
 8097TIP3    H248487   0.548   3.632   9.292  0.0018  1.4490 -0.4381
 8098TIP3   OH248488   5.874   3.500   9.741  0.3205 -0.0043 -0.3547
 8098TIP3    H148489   5.797   3.459   9.702  0.4258 -0.4307 -0.1256
 8098TIP3    H248490   5.948   3.450   9.705  0.4055 -0.6001  0.6105
 8099TIP3   OH248491   5.446   7.330   0.313 -0.0168 -0.5635 -0.3843
 8099TIP3    H148492   5.458   7.266   0.384 -0.8418 -1.0849 -0.6878
 8099TIP3    H248493   5.530   7.333   0.269 -0.1120 -1.8959 -0.7116
 8100TIP3   OH248494   7.100   0.026   1.152  0.5066 -0.0938  0.2706
 8100TIP3    H148495   7.082  -0.047   1.094 -0.6669  0.1426  0.3111
 8100TIP3    H248496   7.091  -0.011   1.240  0.6014 -0.0560  0.2967
 8101TIP3   OH248497   0.374   6.417   1.960 -0.0213 -0.2525 -0.3159
 8101TIP3    H148498   0.328   6.496   1.931  0.0545  0.8486  2.3050
 8101TIP3    H248499   0.305   6.353   1.977 -0.3349  0.2356  0.2829
 8102TIP3   OH248500   5.105   5.408   8.871  0.1956 -0.6175  0.3678
 8102TIP3    H148501   5.150   5.481   8.913 -0.9541 -0.2232  0.9600
 8102TIP3    H248502   5.172   5.339   8.864  1.5522  0.7574 -1.0238
 8103TIP3   OH248503   6.028   2.431   8.246 -0.3315  0.8231 -0.5417
 8103TIP3    H148504   6.009   2.498   8.181  2.6072  2.0714 -0.2754
 8103TIP3    H248505   6.109   2.390   8.215 -0.8650 -1.1173  0.4618
 8104TIP3   OH248506   1.211   0.312   6.925 -0.0858 -0.0602 -0.0875
 8104TIP3    H148507   1.165   0.276   7.001  0.5879  1.3561  1.0423
 8104TIP3    H248508   1.209   0.407   6.938  1.3331  0.1449 -1.0778
 8105TIP3   OH248509   3.322   2.913   2.064 -0.0084  0.0597  0.5758
 8105TIP3    H148510   3.292   2.962   1.987  0.9108 -0.5025 -0.1679
 8105TIP3    H248511   3.399   2.866   2.033 -0.7224 -1.6670  1.3324
 8106TIP3   OH248512   0.178   1.894   0.996 -0.6300 -0.1254 -0.2491
 8106TIP3    H148513   0.234   1.850   1.060  0.4102  0.2009 -0.8964
 8106TIP3    H248514   0.171   1.831   0.924  1.4543  0.9446 -1.4949
 8107TIP3   OH248515   2.542   6.567   9.503  0.0623  0.4433  0.1401
 8107TIP3    H148516   2.496   6.544   9.584  0.5591 -2.2609 -0.2585
 8107TIP3    H248517   2.518   6.498   9.441  3.6285 -0.4752 -0.4629
 8108TIP3   OH248518   0.168   2.958   0.705  0.2539  0.4133  0.0244
 8108TIP3    H148519   0.126   3.043   0.718  1.0620  0.8353 -0.0421
 8108TIP3    H248520   0.249   2.964   0.756  0.6091 -0.0936 -0.4692
 8109TIP3   OH248521   1.372   2.719   1.472 -0.1865 -0.5182  0.2220
 8109TIP3    H148522   1.314   2.695   1.544  1.1308 -0.4046  1.3489
 8109TIP3    H248523   1.396   2.810   1.490 -1.6752  0.3194 -1.6544
 8110TIP3   OH248524   0.176   5.269   2.162  0.4880 -0.0478 -0.0920
 8110TIP3    H148525   0.255   5.215   2.172  0.7916  0.1438 -1.2506
 8110TIP3    H248526   0.118   5.215   2.108  0.6735  0.6344 -1.0060
 8111TIP3   OH248527   0.531   6.136   9.462  0.0795  0.4289  0.7105
 8111TIP3    H148528   0.462   6.177   9.409 -0.2936 -3.6820 -2.5378
 8111TIP3    H248529   0.484   6.082   9.525  0.3679  0.2423  0.7680
 8112TIP3   OH248530   5.409   0.516   9.395 -0.2344 -0.2224  0.2035
 8112TIP3    H148531   5.438   0.454   9.328  0.5401  3.0752 -2.7954
 8112TIP3    H248532   5.317   0.532   9.373  0.4278  2.0609 -1.2996
 8113TIP3   OH248533   2.344   2.578   3.245  0.1708 -0.1291 -0.5198
 8113TIP3    H148534   2.379   2.492   3.271 -0.6466 -0.0037  1.1995
 8113TIP3    H248535   2.397   2.641   3.293  0.0353  0.2652 -0.8838
 8114TIP3   OH248536   0.217   1.763   1.243  0.0606 -0.2930 -0.6672
 8114TIP3    H148537   0.136   1.724   1.208 -0.6383 -0.4632  1.0341
 8114TIP3    H248538   0.282   1.693   1.235 -0.5753 -0.9930  0.1219
 8115TIP3   OH248539   1.367   0.540   1.366 -0.5066  0.1355  0.0606
 8115TIP3    H148540   1.445   0.536   1.310 -0.2522  0.9119  0.3485
 8115TIP3    H248541   1.348   0.633   1.374 -1.5546 -0.0502 -0.1150
 8116TIP3   OH248542   1.645   2.894   6.963 -0.1773  0.1878  0.7743
 8116TIP3    H148543   1.738   2.893   6.943  0.2124 -0.5473  2.4628
 8116TIP3    H248544   1.612   2.811   6.930 -0.5619  1.0061 -1.0423
 8117TIP3   OH248545   5.028   6.332   8.539  0.5422  0.3620  0.6341
 8117TIP3    H148546   5.115   6.333   8.578  0.6616 -1.8324  0.5708
 8117TIP3    H248547   5.043   6.301   8.449  0.0090  3.0218 -0.4648
 8118TIP3   OH248548   3.310   0.537   7.315 -0.0313  0.2974  0.1943
 8118TIP3    H148549   3.370   0.603   7.348 -1.2734  1.7762 -0.4016
 8118TIP3    H248550   3.362   0.486   7.252  0.5920  1.5750 -0.3523
 8119TIP3   OH248551   2.388   3.612   7.588 -0.4563  0.5058 -0.0470
 8119TIP3    H148552   2.443   3.573   7.521 -0.8223 -1.8502  0.9310
 8119TIP3    H248553   2.386   3.705   7.566  2.0394  0.3306 -1.3988
 8120TIP3   OH248554   1.335   7.111   2.691 -0.1785  0.5368  0.3464
 8120TIP3    H148555   1.415   7.074   2.728 -0.5026 -0.5178  0.0434
 8120TIP3    H248556   1.341   7.093   2.597 -0.7606  0.4327  0.3213
 8121TIP3   OH248557   2.496   0.572   9.295  0.2698  0.3986 -0.1015
 8121TIP3    H148558   2.564   0.607   9.237  0.3359  2.6644  1.2198
 8121TIP3    H248559   2.418   0.568   9.240  0.6602  1.0810 -0.7316
 8122TIP3   OH248560   3.073   6.996   9.941  0.4711 -0.0232  0.2103
 8122TIP3    H148561   3.042   6.968   9.855 -1.0999 -2.0884  1.3453
 8122TIP3    H248562   3.119   6.919   9.977  1.9168  1.1048  0.8703
 8123TIP3   OH248563   0.862   1.062   1.804 -0.0017 -0.1665  0.0878
 8123TIP3    H148564   0.879   1.087   1.713  0.5421 -1.6516 -0.2353
 8123TIP3    H248565   0.772   1.091   1.820 -0.5261 -0.9502 -1.3074
 8124TIP3   OH248566   1.123   5.090   9.885 -0.3425 -0.1268  0.0192
 8124TIP3    H148567   1.179   5.117   9.812 -0.7023 -0.3343 -0.3355
 8124TIP3    H248568   1.140   4.996   9.894 -1.8898 -0.5780 -1.2189
 8125TIP3   OH248569   2.769   0.183   3.064  0.1024 -0.1200  0.0572
 8125TIP3    H148570   2.730   0.242   3.000  0.1337 -2.7375 -2.6339
 8125TIP3    H248571   2.852   0.156   3.024 -0.0224 -2.1077  0.9883
 8126TIP3   OH248572   3.526   2.208   9.232 -0.4115  0.0693 -0.4078
 8126TIP3    H148573   3.527   2.117   9.262  1.7943 -1.2791 -3.9547
 8126TIP3    H248574   3.446   2.245   9.269 -0.7217 -2.8519  2.2569
 8127TIP3   OH248575   1.395   1.854   2.166  0.6684  0.4026 -0.0543
 8127TIP3    H148576   1.327   1.798   2.129 -0.1394  0.0564  1.8226
 8127TIP3    H248577   1.477   1.817   2.134  0.0207  1.0481 -2.6545
 8128TIP3   OH248578   4.759   6.385   9.935 -0.3093  0.0929 -0.0402
 8128TIP3    H148579   4.821   6.452   9.966  1.2592 -1.3586  0.1415
 8128TIP3    H248580   4.814   6.309   9.915 -1.9442 -0.9200 -0.9221
 8129TIP3   OH248581   0.806   0.114   7.152 -0.1884  0.0669  0.2843
 8129TIP3    H148582   0.773   0.101   7.063 -0.1580  0.0251  0.2796
 8129TIP3    H248583   0.878   0.176   7.142  0.4412 -0.6739  0.1594
 8130TIP3   OH248584   1.194   6.543   0.884  0.7002  0.2745 -0.8755
 8130TIP3    H148585   1.213   6.633   0.912  0.9963 -0.5032  1.6668
 8130TIP3    H248586   1.279   6.506   0.863  1.0570 -0.3536  1.3601
 8131TIP3   OH248587   0.759   6.297   1.137 -0.2635  0.0599  0.4327
 8131TIP3    H148588   0.689   6.304   1.072  0.5665 -0.1735 -0.5148
 8131TIP3    H248589   0.741   6.366   1.200 -0.6719  0.7917 -0.4629
 8132TIP3   OH248590   7.079   5.650   9.259  0.6903 -0.2564  0.7866
 8132TIP3    H148591   7.142   5.582   9.234 -0.0900 -0.4824 -0.6998
 8132TIP3    H248592   7.012   5.646   9.191  0.9440  2.4443  0.2831
 8133TIP3   OH248593   4.401   5.840   7.724 -0.3839  0.1932  0.2801
 8133TIP3    H148594   4.392   5.864   7.631  1.4397 -1.3853 -0.3738
 8133TIP3    H248595   4.435   5.919   7.766 -1.3294  0.9600 -0.3517
 8134TIP3   OH248596   2.592   4.631   0.302  0.4683 -0.2796 -0.1393
 8134TIP3    H148597   2.585   4.592   0.215 -0.8048 -0.2574 -0.0710
 8134TIP3    H248598   2.521   4.590   0.352  2.3044 -1.7376  1.4801
 8135TIP3   OH248599   5.355   6.313   7.254  0.0654  0.4040  0.3022
 8135TIP3    H148600   5.424   6.262   7.297  0.2432  0.5074  0.1447
 8135TIP3    H248601   5.274   6.284   7.295  0.0715 -0.6718 -0.4269
 8136TIP3   OH248602   7.342   7.198   7.946 -0.3001  0.6757  0.3193
 8136TIP3    H148603   7.263   7.249   7.928 -0.5744  0.5836  1.2303
 8136TIP3    H248604   7.371   7.229   8.032  0.8625  0.9641 -0.1604
 8137TIP3   OH248605   1.199   3.772   9.197 -0.0130  0.3585 -0.3976
 8137TIP3    H148606   1.242   3.732   9.272 -0.8879 -0.1608 -0.1734
 8137TIP3    H248607   1.120   3.721   9.183 -0.0497  0.6708 -1.4498
 8138TIP3   OH248608   3.589   4.353   0.169 -0.3964  0.1715  0.1039
 8138TIP3    H148609   3.587   4.445   0.143  0.1404  1.0207  2.7742
 8138TIP3    H248610   3.676   4.322   0.142 -0.1136  0.8057  0.2742
 8139TIP3   OH248611   1.237   3.378   9.390 -0.1154 -0.0198 -0.5089
 8139TIP3    H148612   1.230   3.283   9.376  0.7183 -0.6264  2.5249
 8139TIP3    H248613   1.164   3.399   9.447 -1.2081  1.5426 -2.3765
 8140TIP3   OH248614   2.051   4.746   0.094 -0.1055  0.4904  0.4661
 8140TIP3    H148615   2.082   4.657   0.077  1.1413  0.7747  1.1241
 8140TIP3    H248616   2.063   4.758   0.189 -3.3114  0.2522  1.0335
 8141TIP3   OH248617   3.391   0.821   8.386  0.2949 -0.6245  0.2791
 8141TIP3    H148618   3.334   0.801   8.460  0.8879 -1.3313  0.5632
 8141TIP3    H248619   3.421   0.736   8.355  2.0393 -0.2481  0.8260
 8142TIP3   OH248620   4.662   1.211   2.384  0.0663 -0.2505  0.0334
 8142TIP3    H148621   4.610   1.211   2.464  0.9477  2.8961  0.7054
 8142TIP3    H248622   4.705   1.296   2.382  1.7563 -1.0304 -2.7375
 8143TIP3   OH248623   1.382   3.481   7.485 -0.6133  0.0834 -0.0560
 8143TIP3    H148624   1.301   3.488   7.435 -0.4047 -0.7268 -0.5237
 8143TIP3    H248625   1.451   3.505   7.422 -0.5394  1.5734  0.5586
 8144TIP3   OH248626   2.417   6.714   0.778  0.0325  0.4098 -0.4317
 8144TIP3    H148627   2.449   6.655   0.847  0.0832  0.0493 -0.7575
 8144TIP3    H248628   2.361   6.777   0.824 -1.6237 -1.0627 -0.3142
 8145TIP3   OH248629   1.372   0.504   0.623 -0.1896 -0.7119 -0.4484
 8145TIP3    H148630   1.353   0.588   0.666 -0.3084 -0.3157 -1.2512
 8145TIP3    H248631   1.451   0.473   0.665 -2.3722 -2.3338  2.9208
 8146TIP3   OH248632   2.649   5.018   0.799  0.0509  0.0525  0.0454
 8146TIP3    H148633   2.612   5.060   0.721  1.2132 -0.0029 -0.5495
 8146TIP3    H248634   2.739   4.997   0.775  0.4867  0.1929  1.4662
 8147TIP3   OH248635   4.200   0.263   2.828 -0.1143 -0.3454 -0.1799
 8147TIP3    H148636   4.176   0.191   2.885  1.4133  0.0443  1.0305
 8147TIP3    H248637   4.131   0.328   2.840  1.3253  0.7768  3.2221
 8148TIP3   OH248638   5.366   1.736   2.134  0.1978  0.3165  0.0341
 8148TIP3    H148639   5.397   1.671   2.071 -1.9193 -0.4768 -0.2717
 8148TIP3    H248640   5.366   1.689   2.218  2.1587  1.1003  0.5274
 8149TIP3   OH248641   5.637   4.409   9.597 -0.5684  0.4987 -0.4664
 8149TIP3    H148642   5.705   4.404   9.529  0.0045 -2.2612  0.1691
 8149TIP3    H248643   5.566   4.354   9.564 -1.3635  1.1711  0.0843
 8150TIP3   OH248644   5.855   0.930   0.934  0.4509  0.9227  0.0399
 8150TIP3    H148645   5.813   0.848   0.907  2.1259 -0.6092  1.7174
 8150TIP3    H248646   5.796   0.999   0.904 -2.7572 -0.9994  1.3904
 8151TIP3   OH248647   2.895   2.792   7.874  0.3064 -0.2528  0.3364
 8151TIP3    H148648   2.976   2.753   7.907  0.5696  0.5545  0.6661
 8151TIP3    H248649   2.922   2.876   7.836 -0.1416 -0.7075 -1.0415
 8152TIP3   OH248650   7.423   5.589   9.805 -0.1451  0.0828 -0.4371
 8152TIP3    H148651   7.468   5.615   9.725 -1.5764  1.2872 -0.8953
 8152TIP3    H248652   7.414   5.670   9.855 -0.6653 -0.3713  0.2126
 8153TIP3   OH248653   0.083   3.126   0.078  0.3644  0.2930 -0.2362
 8153TIP3    H148654   0.069   3.035   0.052 -0.3637 -0.2263  1.7545
 8153TIP3    H248655   0.077   3.176  -0.003 -4.4409 -0.8734 -0.8834
 8154TIP3   OH248656   2.271   1.133   7.832  0.7746  0.2845 -0.2505
 8154TIP3    H148657   2.322   1.168   7.759  2.4940 -0.0263  0.7519
 8154TIP3    H248658   2.258   1.041   7.809 -2.9445  1.1328 -2.4343
 8155TIP3   OH248659   7.456   7.344   2.536 -0.2591 -0.1263  0.0783
 8155TIP3    H148660   7.404   7.419   2.564 -1.6614 -0.7399 -0.7716
 8155TIP3    H248661   7.459   7.351   2.440  1.8821  0.2858  0.1095
 8156TIP3   OH248662   1.888   0.862   2.338 -0.4634 -0.3662 -0.3190
 8156TIP3    H148663   1.919   0.857   2.429  2.4372  0.1807 -1.1685
 8156TIP3    H248664   1.885   0.771   2.309  1.5711 -0.4369 -0.4913
 8157TIP3   OH248665   1.406   7.335   9.857 -0.0151  0.0961  0.4441
 8157TIP3    H148666   1.336   7.401   9.857 -0.0890  0.0218  0.1073
 8157TIP3    H248667   1.428   7.325   9.764 -1.1541 -1.5577  0.2999
 8158TIP3   OH248668   0.015   2.426   0.914 -0.2643  0.0935  0.3284
 8158TIP3    H148669   0.098   2.460   0.948  0.5958 -1.8890  0.3770
 8158TIP3    H248670  -0.026   2.383   0.989 -1.4310  1.1498  0.3302
 8159TIP3   OH248671   6.822   1.155   8.551  0.4139 -0.6692  0.0574
 8159TIP3    H148672   6.733   1.163   8.517  0.3295  0.3113  0.4813
 8159TIP3    H248673   6.811   1.123   8.640  0.6046 -2.5810 -0.5567
 8160TIP3   OH248674   1.688   6.261   8.718  0.2922 -0.2189 -0.1154
 8160TIP3    H148675   1.654   6.340   8.759  0.6544 -0.0546 -0.1315
 8160TIP3    H248676   1.783   6.266   8.730  0.2549 -1.0924  0.6845
 8161TIP3   OH248677   0.233   4.627   1.274 -0.4628  0.1860 -0.2766
 8161TIP3    H148678   0.154   4.663   1.233 -1.1163 -0.5416  0.3076
 8161TIP3    H248679   0.293   4.612   1.202 -1.2080 -0.1084 -0.8441
 8162TIP3   OH248680   3.144   1.084   9.010  0.1573 -0.5660 -0.5417
 8162TIP3    H148681   3.093   1.115   8.936 -0.4853  0.2619  0.2227
 8162TIP3    H248682   3.160   0.992   8.991  0.3707 -0.2694 -1.8994
 8163TIP3   OH248683   0.451   1.503   0.473 -0.2549 -0.0629  0.4644
 8163TIP3    H148684   0.409   1.483   0.389 -0.8453  2.0691  0.1895
 8163TIP3    H248685   0.431   1.427   0.528 -0.9366 -0.9398 -0.9306
 8164TIP3   OH248686   6.694   2.553   0.386  0.6400 -0.0236 -0.6899
 8164TIP3    H148687   6.609   2.594   0.400  0.7350  0.7438 -2.1463
 8164TIP3    H248688   6.730   2.540   0.474  0.1774  2.1064 -0.1395
 8165TIP3   OH248689   0.212   4.350   8.008  0.3006 -0.4263 -0.4776
 8165TIP3    H148690   0.236   4.257   8.004  0.3853 -0.4077 -0.4032
 8165TIP3    H248691   0.265   4.390   7.940 -0.7395 -0.6473 -1.4564
 8166TIP3   OH248692   2.492   2.981   7.880  0.6296  0.0221 -0.4241
 8166TIP3    H148693   2.512   2.931   7.959  1.7192  0.4624 -0.3946
 8166TIP3    H248694   2.430   2.927   7.832  0.6821 -0.6867  0.2880
 8167TIP3   OH248695   1.354   6.471   8.309  0.1773 -0.3253  0.3702
 8167TIP3    H148696   1.431   6.522   8.332  0.9361 -1.4167  0.3330
 8167TIP3    H248697   1.382   6.417   8.235 -0.8991 -0.0929 -0.2325
 8168TIP3   OH248698   3.394   2.176   1.687 -0.3309 -0.3797 -0.1258
 8168TIP3    H148699   3.387   2.271   1.683 -3.2873 -0.5324 -1.1075
 8168TIP3    H248700   3.433   2.152   1.603 -0.3046 -0.0782 -0.2011
 8169TIP3   OH248701   4.206   1.888   9.926  1.1379 -0.2205  0.1867
 8169TIP3    H148702   4.297   1.866   9.903  1.4103  1.0779 -0.0625
 8169TIP3    H248703   4.211   1.915  10.018  1.0537  0.1359  0.0868
 8170TIP3   OH248704   1.688   0.520   0.395 -0.4141  0.6656 -0.1573
 8170TIP3    H148705   1.655   0.602   0.432  0.7558  0.2060  2.0919
 8170TIP3    H248706   1.776   0.542   0.365 -1.1392  0.8839 -2.3003
 8171TIP3   OH248707   5.269   2.014   0.987  0.2711  0.3366 -0.2376
 8171TIP3    H148708   5.343   1.984   0.935  1.6699 -0.7448  2.2148
 8171TIP3    H248709   5.226   1.933   1.016 -0.4433  0.9080  0.3367
 8172TIP3   OH248710   4.926   2.696   0.112  0.1681 -0.0195  0.2826
 8172TIP3    H148711   4.932   2.717   0.205 -1.5537 -0.0576  0.4440
 8172TIP3    H248712   4.832   2.700   0.093  0.5258  0.6014 -1.5981
 8173TIP3   OH248713   3.483   7.176   1.556  0.4241 -0.4556  0.2981
 8173TIP3    H148714   3.570   7.196   1.521  1.0617 -0.8035  1.6040
 8173TIP3    H248715   3.499   7.105   1.618 -1.2665 -2.7789 -1.7404
 8174TIP3   OH248716   7.198   6.720   7.453 -0.0262  0.5923 -0.3922
 8174TIP3    H148717   7.257   6.779   7.500 -0.8477 -0.6240  2.4431
 8174TIP3    H248718   7.255   6.671   7.394  1.4975  0.8054  0.8327
 8175TIP3   OH248719   4.019   1.415   7.920  0.0123 -0.4123 -0.7733
 8175TIP3    H148720   4.091   1.377   7.869  1.1632 -0.1512  0.6095
 8175TIP3    H248721   4.046   1.505   7.937  0.1015 -0.7596  1.0774
 8176TIP3   OH248722   4.809   2.056   2.299  0.4479 -0.5915 -0.1233
 8176TIP3    H148723   4.865   1.994   2.252 -0.5180 -0.6017 -1.3236
 8176TIP3    H248724   4.869   2.119   2.338  1.2866 -0.4932 -1.5309
 8177TIP3   OH248725   4.808   2.078   7.363  0.4858  0.2762 -0.0156
 8177TIP3    H148726   4.823   2.007   7.426 -0.0657  0.1628 -0.0011
 8177TIP3    H248727   4.727   2.052   7.318  0.2033  0.9571  0.0887
 8178TIP3   OH248728   3.556   6.079   9.249  0.0479  0.4161  0.2041
 8178TIP3    H148729   3.489   6.111   9.189  0.1933  1.8536  0.7860
 8178TIP3    H248730   3.605   6.015   9.197 -1.7612 -0.6946 -0.2256
 8179TIP3   OH248731   5.167   4.366   7.408  0.0734  0.0226  0.1621
 8179TIP3    H148732   5.197   4.377   7.318 -1.6035  0.0562 -0.4175
 8179TIP3    H248733   5.172   4.272   7.425 -0.9830 -0.1681 -0.4934
 8180TIP3   OH248734   0.389   3.046   7.123 -0.0296  0.9558 -0.5651
 8180TIP3    H148735   0.471   3.044   7.074 -0.1447 -0.2244 -0.7463
 8180TIP3    H248736   0.326   3.001   7.067  0.3547 -2.4728  1.4986
 8181TIP3   OH248737   0.740   3.375   7.189 -0.1775  0.5426  0.5933
 8181TIP3    H148738   0.722   3.414   7.103 -0.5218 -1.6825 -0.4352
 8181TIP3    H248739   0.817   3.320   7.175 -0.5480 -0.2601  1.5683
 8182TIP3   OH248740   0.642   1.679   7.898 -0.5059  0.1251  0.7649
 8182TIP3    H148741   0.729   1.650   7.924 -0.4238 -0.2633  0.0782
 8182TIP3    H248742   0.657   1.763   7.854 -0.4201 -0.1478  0.2616
 8183TIP3   OH248743   6.748   1.371   0.339 -0.0580  0.0620  0.3626
 8183TIP3    H148744   6.766   1.464   0.351 -1.5091  0.3624  0.3242
 8183TIP3    H248745   6.808   1.344   0.270 -0.1762  1.1486 -0.1820
 8184TIP3   OH248746   6.381   1.507   1.534 -0.1790 -0.3100 -0.1100
 8184TIP3    H148747   6.350   1.443   1.471 -0.3774  0.9572 -1.3473
 8184TIP3    H248748   6.305   1.564   1.550 -0.1116 -0.5548  1.2331
 8185TIP3   OH248749   2.107   4.250   7.619  0.7018 -0.2884  1.0369
 8185TIP3    H148750   2.037   4.189   7.598  1.2594  0.2657 -3.1468
 8185TIP3    H248751   2.187   4.206   7.592  1.2201  1.7576 -1.0206
 8186TIP3   OH248752   1.851   4.767   8.397 -0.2408  0.2477  0.2349
 8186TIP3    H148753   1.929   4.813   8.367 -1.1692  0.7676 -1.4824
 8186TIP3    H248754   1.863   4.677   8.367 -1.2000  0.7809 -1.9245
 8187TIP3   OH248755   2.770   7.576   9.696 -0.3549  0.2667  0.6127
 8187TIP3    H148756   2.703   7.609   9.636  0.7320  0.8654 -0.3098
 8187TIP3    H248757   2.809   7.502   9.649  1.0434  1.2315  0.1956
 8188TIP3   OH248758   1.311   7.112   8.678 -0.5921 -0.4059 -0.1570
 8188TIP3    H148759   1.403   7.141   8.673 -1.3881  3.0556  1.7488
 8188TIP3    H248760   1.308   7.057   8.756 -0.4727  1.5714  1.3329
 8189TIP3   OH248761   7.455   6.344   8.761  0.4727 -0.1809  0.1891
 8189TIP3    H148762   7.465   6.378   8.672  0.1536  0.0674  0.2441
 8189TIP3    H248763   7.374   6.385   8.793  0.7336 -0.0517  0.6912
 8190TIP3   OH248764   5.616   3.810   9.390 -0.1954  0.3843 -0.5728
 8190TIP3    H148765   5.577   3.827   9.476  0.7327  1.1381 -0.2825
 8190TIP3    H248766   5.548   3.832   9.327 -1.4534 -1.6803 -0.0302
 8191TIP3   OH248767   2.478   1.773   7.724  0.0225 -0.6026  0.2701
 8191TIP3    H148768   2.567   1.810   7.721 -0.3899  0.4481  0.3974
 8191TIP3    H248769   2.427   1.839   7.771 -0.7409 -1.3979  0.5848
 8192TIP3   OH248770   6.923   7.509   9.622  0.1132  0.3386 -0.3542
 8192TIP3    H148771   6.995   7.470   9.573 -0.4875  1.3759 -2.1531
 8192TIP3    H248772   6.885   7.573   9.563 -3.9415 -1.9072 -0.5791
 8193TIP3   OH248773   2.699   3.286   1.347  0.4824  0.1003  0.0244
 8193TIP3    H148774   2.632   3.222   1.369 -0.0934  0.4323 -0.7464
 8193TIP3    H248775   2.712   3.277   1.253 -0.7388  2.1519 -0.4071
 8194TIP3   OH248776   7.573   6.253   7.964 -0.0683 -0.0305  0.0810
 8194TIP3    H148777   7.600   6.341   7.936  1.1357 -0.1774  0.7175
 8194TIP3    H248778   7.524   6.219   7.889 -1.8302  1.7031  0.3608
 8195TIP3   OH248779   2.012   3.188   1.808 -0.2204 -0.2709  0.4151
 8195TIP3    H148780   2.093   3.162   1.852 -0.2365  0.0637  0.6542
 8195TIP3    H248781   2.019   3.283   1.800 -1.7065  0.1251  2.7788
 8196TIP3   OH248782   1.709   4.957   8.180  0.1117 -0.0650 -0.2355
 8196TIP3    H148783   1.736   5.017   8.249  1.9974 -0.3946 -0.6190
 8196TIP3    H248784   1.710   5.011   8.100  1.9064 -0.5628 -0.5961
 8197TIP3   OH248785   4.009   0.230   8.820  0.1063  0.2715  0.9516
 8197TIP3    H148786   4.013   0.169   8.893 -1.1308 -0.0820  0.7445
 8197TIP3    H248787   3.958   0.305   8.853  1.3838  1.0995  1.1204
 8198TIP3   OH248788   0.006   7.459   2.734  0.2874  0.5167  0.2506
 8198TIP3    H148789  -0.090   7.463   2.734  0.1928 -0.9752  1.2012
 8198TIP3    H248790   0.033   7.530   2.792 -0.2070  1.1303 -0.2443
 8199TIP3   OH248791   7.034   2.696   8.600  0.5241 -0.6705 -0.3780
 8199TIP3    H148792   7.043   2.743   8.683  0.0452 -0.8723 -0.2066
 8199TIP3    H248793   7.084   2.748   8.537 -0.6229  0.4888 -0.3589
 8200TIP3   OH248794   7.035   3.332   0.804 -0.2896 -0.0620  0.1802
 8200TIP3    H148795   6.973   3.278   0.755 -1.1028  0.4629  0.5912
 8200TIP3    H248796   6.985   3.411   0.825  0.2300 -0.0121  1.2968
 8201TIP3   OH248797   5.845   4.697   8.635 -0.5540  0.9782  0.8294
 8201TIP3    H148798   5.913   4.729   8.575 -0.7579  0.8988  0.5514
 8201TIP3    H248799   5.764   4.707   8.586 -0.7441  1.0659  1.1589
 8202TIP3   OH248800   6.281   1.858   7.040  0.2996  0.0052  0.5780
 8202TIP3    H148801   6.266   1.789   6.976  2.0447 -0.6177  0.7921
 8202TIP3    H248802   6.376   1.857   7.055  0.0568  0.7741  2.4485
 8203TIP3   OH248803   0.453   2.607   9.778  0.4133 -0.3846 -0.0161
 8203TIP3    H148804   0.543   2.634   9.794  0.1744  0.7059 -0.4336
 8203TIP3    H248805   0.452   2.578   9.687  0.8011 -2.4470  0.5944
 8204TIP3   OH248806   0.559   2.833   8.772 -0.2986 -0.4823  0.0043
 8204TIP3    H148807   0.528   2.860   8.858  1.5505 -2.0112  1.2376
 8204TIP3    H248808   0.503   2.881   8.710 -1.4967  0.8771  2.0156
 8205TIP3   OH248809   1.978   2.441   2.610  0.4111 -0.2986 -0.0703
 8205TIP3    H148810   2.035   2.503   2.657  0.4814 -0.2794 -0.1802
 8205TIP3    H248811   2.027   2.359   2.610 -0.5522 -0.9586  1.9124
 8206TIP3   OH248812   7.247   2.325   0.252 -0.1789  0.0467  0.4458
 8206TIP3    H148813   7.304   2.384   0.202 -1.1380  2.2253  1.8083
 8206TIP3    H248814   7.308   2.266   0.298  0.8943  1.1160  0.4316
 8207TIP3   OH248815   3.397   0.170   9.211  0.5601  0.1262  0.2694
 8207TIP3    H148816   3.326   0.155   9.273 -0.5840  0.8120 -0.8439
 8207TIP3    H248817   3.405   0.265   9.206  1.7987  0.0609  0.6153
 8208TIP3   OH248818   6.581   3.435   1.807  0.4192 -0.7588  0.3543
 8208TIP3    H148819   6.621   3.521   1.792  1.2135 -0.7999  1.9871
 8208TIP3    H248820   6.515   3.451   1.875 -3.3968 -0.4633 -3.0260
 8209TIP3   OH248821   6.845   4.503   1.823 -0.3447 -0.5484  0.7216
 8209TIP3    H148822   6.804   4.579   1.780  0.2653 -0.6156 -0.0026
 8209TIP3    H248823   6.793   4.428   1.793  1.1706 -0.8294 -1.4713
 8210TIP3   OH248824   0.305   7.542   1.374 -0.2780  0.2673  0.0808
 8210TIP3    H148825   0.247   7.547   1.298 -0.4800 -0.2332  0.1933
 8210TIP3    H248826   0.313   7.448   1.391 -0.5696  0.3839  0.9288
 8211TIP3   OH248827   1.400   7.234   0.466  0.1970 -0.2753 -0.5636
 8211TIP3    H148828   1.374   7.144   0.486  0.6047 -0.2244  0.2068
 8211TIP3    H248829   1.317   7.283   0.464 -0.1890 -0.9239 -2.4594
 8212TIP3   OH248830   1.086   3.128   2.017  0.2295 -0.1709 -0.1592
 8212TIP3    H148831   1.175   3.131   2.051  0.1450  0.0752  0.0455
 8212TIP3    H248832   1.081   3.046   1.969 -0.0220 -1.1222  1.4342
 8213TIP3   OH248833   0.017   5.096   0.849 -0.4158  0.5392  0.3538
 8213TIP3    H148834  -0.061   5.040   0.850 -0.3565  0.4560  0.3402
 8213TIP3    H248835   0.090   5.035   0.852 -0.3156  0.6186  4.3331
 8214TIP3   OH248836   7.191   5.648   0.289 -0.4773 -0.5115 -0.2685
 8214TIP3    H148837   7.242   5.617   0.214  0.5204  0.1704  0.1011
 8214TIP3    H248838   7.256   5.665   0.356 -1.2730 -0.2437  0.4494
 8215TIP3   OH248839   2.020   2.035   0.441  0.1350  0.4154 -0.2007
 8215TIP3    H148840   1.957   2.018   0.372  0.8605 -0.2185 -0.7296
 8215TIP3    H248841   1.982   2.106   0.492 -0.6917  0.4802 -0.8887
 8216TIP3   OH248842   6.539   0.474   8.335 -0.0030  0.1228  0.1644
 8216TIP3    H148843   6.516   0.505   8.247 -0.8492 -1.6717 -0.3008
 8216TIP3    H248844   6.470   0.509   8.391 -2.0916 -2.3849 -0.6691
 8217TIP3   OH248845   3.477   1.444   2.318  0.1320 -0.1258  0.1412
 8217TIP3    H148846   3.538   1.514   2.297  1.2097 -1.0668  0.0370
 8217TIP3    H248847   3.443   1.466   2.405 -0.1853  0.9374 -0.2358
 8218TIP3   OH248848   6.619   7.567   2.381 -0.0712  0.1935 -0.6650
 8218TIP3    H148849   6.608   7.542   2.472  0.0810  0.9470 -0.4290
 8218TIP3    H248850   6.596   7.489   2.331  0.8553 -0.5469  0.0476
 8219TIP3   OH248851   1.831   1.654   8.521 -0.0772 -0.0375  0.0596
 8219TIP3    H148852   1.850   1.607   8.440  0.9839  0.1307  0.1921
 8219TIP3    H248853   1.758   1.712   8.498 -0.4219 -0.6776 -0.5056
 8220TIP3   OH248854   4.648   4.911   9.156 -0.0392  0.0899 -0.2058
 8220TIP3    H148855   4.674   4.958   9.076  1.7902 -0.0681  0.2567
 8220TIP3    H248856   4.625   4.981   9.218  0.4784  0.2914 -0.2380
 8221TIP3   OH248857   6.975   6.490   8.725  0.0931  0.4260  0.0037
 8221TIP3    H148858   6.888   6.464   8.757  0.1908  0.4752  0.3199
 8221TIP3    H248859   6.971   6.480   8.630 -0.1037 -0.0314  0.0620
 8222TIP3   OH248860   0.077   5.159   1.401  0.0556  0.2283 -0.1891
 8222TIP3    H148861   0.032   5.105   1.336 -0.7684 -0.1784  0.6977
 8222TIP3    H248862   0.085   5.102   1.478  0.1131  1.0203  0.4063
 8223TIP3   OH248863   6.294  -0.046   0.274 -0.0615 -0.3389 -0.3817
 8223TIP3    H148864   6.361   0.020   0.293  0.6553 -1.3280  0.6346
 8223TIP3    H248865   6.333  -0.101   0.207  0.3974 -1.2717  0.6364
 8224TIP3   OH248866   7.663   6.123   8.213 -0.2049 -0.0745 -0.5113
 8224TIP3    H148867   7.647   6.152   8.123  0.8405 -0.6774 -0.9113
 8224TIP3    H248868   7.597   6.168   8.265 -0.8742  0.2279 -1.5916
 8225TIP3   OH248869   5.816   1.662   7.377  0.0034 -0.4818 -0.2206
 8225TIP3    H148870   5.812   1.613   7.295  0.3157 -0.8729 -0.0073
 8225TIP3    H248871   5.872   1.610   7.433  0.0577 -0.0511  0.1338
 8226TIP3   OH248872   0.802   1.904   9.499 -0.4113  0.4546 -0.4499
 8226TIP3    H148873   0.762   1.942   9.577 -0.0638  0.8034 -0.4360
 8226TIP3    H248874   0.780   1.811   9.503 -0.7748  0.5525 -0.1727
 8227TIP3   OH248875   2.273   6.280   6.932 -0.0727 -0.1149 -0.4223
 8227TIP3    H148876   2.317   6.364   6.920  0.1341 -0.3232 -1.1885
 8227TIP3    H248877   2.317   6.221   6.870  1.4960 -1.4406  1.7832
 8228TIP3   OH248878   1.925   0.794   2.930 -0.0396 -0.1831 -0.4294
 8228TIP3    H148879   1.869   0.731   2.976 -0.5681  0.9815  0.5908
 8228TIP3    H248880   1.973   0.839   3.000  0.6471  0.2572 -1.1595
 8229TIP3   OH248881   6.757   4.803   0.067  0.5076 -0.4112 -0.3184
 8229TIP3    H148882   6.834   4.837   0.113  0.4509 -0.1018 -0.4460
 8229TIP3    H248883   6.740   4.868  -0.001 -0.3712 -0.0400  0.2392
 8230TIP3   OH248884   0.926   2.658   2.468  0.0074 -0.7218  0.2348
 8230TIP3    H148885   0.878   2.671   2.550  0.8485  2.2972  0.3431
 8230TIP3    H248886   0.880   2.713   2.404 -0.1933 -2.4698 -1.2218
 8231TIP3   OH248887   6.261   0.422   8.694  0.0226 -0.3486 -0.0063
 8231TIP3    H148888   6.337   0.367   8.677 -0.6928 -1.1985 -0.5501
 8231TIP3    H248889   6.267   0.491   8.627  1.5458  0.9753  1.3893
 8232TIP3   OH248890   3.712   4.066   8.335  0.2555 -0.5049 -0.2333
 8232TIP3    H148891   3.718   4.161   8.327 -0.3633 -0.5664 -1.6817
 8232TIP3    H248892   3.647   4.051   8.403  1.0869  0.0916  0.7233
 8233TIP3   OH248893   0.323   2.523  10.031 -0.0768  0.1621  0.4428
 8233TIP3    H148894   0.387   2.534   9.961  0.3562  0.7202  0.9203
 8233TIP3    H248895   0.326   2.605  10.080 -1.5832  0.4350  0.1293
 8234TIP3   OH248896   1.294   0.802   8.651 -0.0511  0.4443 -0.1498
 8234TIP3    H148897   1.380   0.777   8.683 -0.7128  0.5710  1.8354
 8234TIP3    H248898   1.287   0.759   8.565  1.2354 -1.1119  0.4736
 8235TIP3   OH248899  -0.055   6.423   1.437 -0.1618  0.2254  0.0525
 8235TIP3    H148900  -0.087   6.453   1.521  1.4940  1.4906  0.2771
 8235TIP3    H248901  -0.043   6.503   1.385 -0.8283 -0.4962 -1.2807
 8236TIP3   OH248902   2.245   6.762   0.281 -0.0442 -0.1725  0.2000
 8236TIP3    H148903   2.317   6.719   0.235 -1.0032  0.9236 -2.4804
 8236TIP3    H248904   2.289   6.828   0.336  1.0783 -0.3369 -0.4637
 8237TIP3   OH248905   2.290   3.096   6.691 -0.4723 -0.4240  0.1954
 8237TIP3    H148906   2.253   3.139   6.613 -0.0848  0.0040  0.2416
 8237TIP3    H248907   2.228   3.116   6.761 -0.3507 -0.0247  0.1925
 8238TIP3   OH248908   1.044   3.772   7.622  0.2941 -0.2976  0.2152
 8238TIP3    H148909   1.114   3.741   7.679  2.9616  1.9966 -1.5589
 8238TIP3    H248910   0.987   3.824   7.678  0.9367 -0.8236  1.3760
 8239TIP3   OH248911   2.100   1.425   2.851  0.3177  0.2647 -0.2794
 8239TIP3    H148912   2.172   1.435   2.914  0.0517  1.3512 -0.1224
 8239TIP3    H248913   2.040   1.497   2.872 -0.3278 -0.0317 -1.0540
 8240TIP3   OH248914   3.344   0.436   9.170 -0.5969 -0.3398 -0.1523
 8240TIP3    H148915   3.413   0.476   9.117  1.1272 -1.6709  0.9656
 8240TIP3    H248916   3.269   0.431   9.112  0.2358  1.1395 -1.4364
 8241TIP3   OH248917   3.857   0.457   1.475  0.2876  0.6377 -0.0151
 8241TIP3    H148918   3.924   0.475   1.541  0.4540 -1.4502  0.4363
 8241TIP3    H248919   3.891   0.384   1.424 -0.7036  0.9528 -1.1851
 8242TIP3   OH248920   3.458   6.053   0.843 -0.3616 -0.3431 -0.5620
 8242TIP3    H148921   3.377   6.031   0.889  0.7440 -1.2129  1.0886
 8242TIP3    H248922   3.506   5.970   0.838 -0.2254 -0.2049 -2.9854
 8243TIP3   OH248923   2.464   1.602   1.715  0.3449  0.5020 -0.0281
 8243TIP3    H148924   2.432   1.513   1.731  0.6551 -0.1558 -2.6886
 8243TIP3    H248925   2.559   1.594   1.713  0.3450  0.6009 -1.5618
 8244TIP3   OH248926   4.404   3.943   8.576 -0.0021 -0.4586  1.0173
 8244TIP3    H148927   4.318   3.921   8.540 -1.0719  2.4498  1.5584
 8244TIP3    H248928   4.438   3.860   8.609 -1.2077 -2.2909 -1.9332
 8245TIP3   OH248929   3.853   1.236   7.763  0.3886  0.4099  0.0812
 8245TIP3    H148930   3.783   1.290   7.800 -0.7386 -0.3287 -0.8883
 8245TIP3    H248931   3.861   1.163   7.824  0.2471  0.4445  0.1425
 8246TIP3   OH248932   0.912   4.928   3.442 -0.0001  0.1458  0.0507
 8246TIP3    H148933   0.976   4.882   3.495 -0.1581 -1.0824 -0.7803
 8246TIP3    H248934   0.962   4.966   3.370  0.2030  1.7419  0.9931
 8247TIP3   OH248935   7.227   6.236   3.198  0.0308  0.0928  0.0907
 8247TIP3    H148936   7.185   6.153   3.219 -1.1814  0.6360 -0.1272
 8247TIP3    H248937   7.230   6.283   3.282 -1.2199  0.6759 -0.1826
 8248TIP3   OH248938   5.774   4.721   7.062  0.0107  0.0585  0.0724
 8248TIP3    H148939   5.794   4.758   6.976 -2.6134 -1.0575 -1.1267
 8248TIP3    H248940   5.808   4.632   7.058 -0.0451  0.0304  0.2403
 8249TIP3   OH248941   3.847   1.309   0.739 -0.3552 -0.5487 -0.1544
 8249TIP3    H148942   3.812   1.389   0.699 -1.0276  0.0093  1.4567
 8249TIP3    H248943   3.919   1.339   0.794 -0.2344 -1.1288  0.0084
 8250TIP3   OH248944   1.812   6.981   9.453 -0.1675 -0.3936  0.5873
 8250TIP3    H148945   1.813   6.915   9.384  0.6400  0.1542  0.0684
 8250TIP3    H248946   1.755   7.051   9.419 -0.4333 -0.4884  0.8302
 8251TIP3   OH248947   6.543   3.073   9.444 -0.1141 -0.2450  0.3027
 8251TIP3    H148948   6.513   3.038   9.528 -1.0474  0.6009  0.3467
 8251TIP3    H248949   6.464   3.113   9.406 -0.0749 -1.8775 -1.6518
 8252TIP3   OH248950   6.774   6.696   1.091  0.4194 -0.3889 -0.7311
 8252TIP3    H148951   6.693   6.724   1.134 -0.5484 -0.8110 -2.1931
 8252TIP3    H248952   6.766   6.729   1.002  1.2026 -1.6938 -1.3093
 8253TIP3   OH248953   5.142   4.332   9.523 -0.4838 -0.1333 -0.3788
 8253TIP3    H148954   5.073   4.361   9.582  0.5761  0.0506  0.8135
 8253TIP3    H248955   5.121   4.241   9.504 -0.2180 -0.5698  1.2617
 8254TIP3   OH248956   6.879   0.219   7.756  0.9349  0.0518 -0.0093
 8254TIP3    H148957   6.965   0.226   7.799  1.6086 -0.8259 -1.1648
 8254TIP3    H248958   6.852   0.129   7.771  1.1066 -0.2280 -1.2538
 8255TIP3   OH248959   4.628   6.584   7.803  0.0963 -0.0485  0.5192
 8255TIP3    H148960   4.623   6.598   7.897 -1.6987 -1.0973  0.6201
 8255TIP3    H248961   4.691   6.513   7.792 -0.4530 -0.6278  1.0280
 8256TIP3   OH248962   1.761   2.260   7.821 -0.4646  0.0117 -0.0919
 8256TIP3    H148963   1.807   2.330   7.867 -0.2535 -0.6471  0.7484
 8256TIP3    H248964   1.708   2.304   7.755  0.4048  0.8751 -0.2228
 8257TIP3   OH248965   5.468   3.292   8.900 -0.1481 -0.7510 -0.0894
 8257TIP3    H148966   5.542   3.233   8.892  0.4390 -0.1429  0.6635
 8257TIP3    H248967   5.489   3.347   8.976  0.4040  1.8733 -1.9807
 8258TIP3   OH248968   1.443   0.949   2.669 -0.6598 -0.0382  0.0484
 8258TIP3    H148969   1.432   1.042   2.650 -1.6362  0.1175  1.2472
 8258TIP3    H248970   1.536   0.939   2.686 -0.2877  0.4125 -1.5291
 8259TIP3   OH248971   6.724   1.015   8.787  0.4357  0.4551 -0.1455
 8259TIP3    H148972   6.686   0.932   8.816 -1.2573  1.0353 -0.5830
 8259TIP3    H248973   6.712   1.074   8.862  0.3226  0.6859 -0.3447
 8260TIP3   OH248974   3.797   3.416   7.494 -0.2341 -0.1465  0.1171
 8260TIP3    H148975   3.727   3.363   7.454  0.5334  0.9578 -2.9950
 8260TIP3    H248976   3.754   3.498   7.518 -0.1477  0.4142 -1.5118
 8261TIP3   OH248977   1.327   6.947   1.267 -0.0668  0.3292 -0.2081
 8261TIP3    H148978   1.361   7.030   1.299 -0.1361  0.1243  0.3982
 8261TIP3    H248979   1.399   6.909   1.217  0.0830  0.5875 -0.1869
 8262TIP3   OH248980   1.832   0.369   1.456 -0.0335 -0.3168 -0.8051
 8262TIP3    H148981   1.783   0.292   1.426  0.4951 -1.0039  0.0494
 8262TIP3    H248982   1.822   0.368   1.551  1.5268 -0.4189 -0.6154
 8263TIP3   OH248983   2.559   0.852   8.682 -0.1683  0.2195  0.8155
 8263TIP3    H148984   2.541   0.831   8.590 -0.1371  3.1728  0.0541
 8263TIP3    H248985   2.641   0.806   8.701 -0.0218 -0.2093 -0.7318
 8264TIP3   OH248986   2.634   0.993   7.056  0.0304  0.2800  0.1214
 8264TIP3    H148987   2.635   0.939   6.977  1.6152 -0.8297  0.8541
 8264TIP3    H248988   2.612   1.081   7.025  1.4003  0.0363 -1.6622
 8265TIP3   OH248989   3.553   5.518   8.183  0.0185  0.3355  0.2095
 8265TIP3    H148990   3.492   5.573   8.233  0.5123 -1.2319  2.7221
 8265TIP3    H248991   3.636   5.523   8.231 -0.1940 -3.3819  1.3213
 8266TIP3   OH248992   1.416   5.224   9.912 -0.5997 -0.2155  0.0465
 8266TIP3    H148993   1.405   5.170   9.834  0.7981 -0.8376  0.2449
 8266TIP3    H248994   1.447   5.163   9.979  0.6026  0.7286  0.3910
 8267TIP3   OH248995   3.341   1.662   2.516  0.0351  0.4803  0.3996
 8267TIP3    H148996   3.324   1.718   2.440  1.1256  0.6297  0.2524
 8267TIP3    H248997   3.425   1.692   2.550 -0.4571  0.4257  1.6921
 8268TIP3   OH248998   2.480   0.992   0.276  0.4168 -0.3665  0.0169
 8268TIP3    H148999   2.385   0.998   0.273  0.2253 -2.4833  0.2730
 8268TIP3    H249000   2.502   1.009   0.367  0.6783  3.5234 -0.6156
 8269TIP3   OH249001   4.157   0.805   7.883  0.1418  0.3692  0.1571
 8269TIP3    H149002   4.168   0.877   7.820  0.7001 -0.0104 -0.1825
 8269TIP3    H249003   4.151   0.726   7.829  0.3073  0.0725  0.5652
 8270TIP3   OH249004   5.480   2.903   7.180 -0.0171 -0.8931 -0.2438
 8270TIP3    H149005   5.509   2.855   7.102 -0.4906 -1.7965  0.1133
 8270TIP3    H249006   5.435   2.980   7.145  1.6142 -0.1548 -0.8162
 8271TIP3   OH249007   0.106   0.936   1.008  0.1750  0.4948  0.0612
 8271TIP3    H149008   0.180   0.979   1.050 -1.1819  1.1525  1.9364
 8271TIP3    H249009   0.053   1.008   0.973 -1.0539  0.2942  1.3899
 8272TIP3   OH249010   0.297   7.293   1.163 -0.1363  0.2916  0.7049
 8272TIP3    H149011   0.288   7.264   1.072 -2.2629 -0.0632  0.9917
 8272TIP3    H249012   0.256   7.379   1.166  1.1179  0.9098  1.0893
 8273TIP3   OH249013   0.075   0.322   1.473 -0.2296  0.2873  0.3633
 8273TIP3    H149014   0.065   0.227   1.483 -1.0382  0.4712  1.5880
 8273TIP3    H249015   0.042   0.340   1.385  0.0328 -0.5826  0.0740
 8274TIP3   OH249016   0.018   0.430   9.070  0.6205  0.5246 -0.0956
 8274TIP3    H149017   0.095   0.397   9.024  0.6566 -0.5017  0.6731
 8274TIP3    H249018   0.012   0.377   9.149  0.1961  1.8368  0.7871
 8275TIP3   OH249019   5.383   4.553   8.092 -0.5843  0.1620  0.1065
 8275TIP3    H149020   5.317   4.588   8.033 -0.4884 -0.0550 -0.1291
 8275TIP3    H249021   5.426   4.483   8.043 -1.3441 -0.8768  0.8613
 8276TIP3   OH249022   2.306   6.828   6.831  0.5817  0.1209 -0.2108
 8276TIP3    H149023   2.369   6.803   6.898  1.1470 -0.3859 -0.9192
 8276TIP3    H249024   2.337   6.913   6.800  1.0801 -0.2499 -0.7451
 8277TIP3   OH249025   1.816   0.437   6.754  0.2003  0.3824  0.4140
 8277TIP3    H149026   1.892   0.423   6.697  0.2937  0.1092  0.6043
 8277TIP3    H249027   1.784   0.523   6.729 -0.5618 -0.2764 -0.9942
 8278TIP3   OH249028   2.548   5.127   8.679  0.6974 -0.4194  0.1672
 8278TIP3    H149029   2.575   5.203   8.730  1.4437  0.0536 -0.8848
 8278TIP3    H249030   2.568   5.151   8.588 -0.5291 -1.2499 -0.3490
 8279TIP3   OH249031   3.900   5.044   0.195  0.0771 -0.9327 -0.4952
 8279TIP3    H149032   3.988   5.036   0.233 -1.1724 -1.0863  2.6717
 8279TIP3    H249033   3.914   5.081   0.108  3.1776  0.3279  0.4236
 8280TIP3   OH249034   5.646   2.193   1.547 -0.1304  0.0097  0.1111
 8280TIP3    H149035   5.706   2.119   1.553  1.6573  1.1736 -1.8566
 8280TIP3    H249036   5.695   2.267   1.584 -1.0777  0.6167  0.1883
 8281TIP3   OH249037   6.584   1.868   2.190 -0.1052 -0.4165  0.0118
 8281TIP3    H149038   6.519   1.878   2.121  0.7418 -0.1333 -0.7609
 8281TIP3    H249039   6.532   1.848   2.268 -0.9732 -3.6405 -1.1870
 8282TIP3   OH249040   3.698   5.157   7.866  0.3517 -0.6098  0.2266
 8282TIP3    H149041   3.755   5.089   7.901  0.9992 -0.3139 -0.2278
 8282TIP3    H249042   3.610   5.119   7.870  0.3862 -0.5926  2.1231
 8283TIP3   OH249043   4.352   5.502   8.622  0.2012 -0.2485  0.0388
 8283TIP3    H149044   4.268   5.545   8.639  0.0274 -0.6417  0.2089
 8283TIP3    H249045   4.365   5.510   8.528  0.5875  0.9121  0.1783
 8284TIP3   OH249046   2.264   4.150   0.436 -0.2828 -0.3033 -0.1445
 8284TIP3    H149047   2.294   4.061   0.417  0.8010 -0.1533  0.7339
 8284TIP3    H249048   2.280   4.161   0.529 -0.6334  0.7379 -0.1924
 8285TIP3   OH249049   4.233   7.316   2.464  0.4821 -0.3136 -0.3262
 8285TIP3    H149050   4.178   7.394   2.458 -0.0185 -0.6562 -0.2275
 8285TIP3    H249051   4.277   7.311   2.380 -0.2361 -0.4806 -0.6926
 8286TIP3   OH249052   6.520   3.618   9.752  0.0131 -0.0452 -0.1842
 8286TIP3    H149053   6.494   3.540   9.703  0.1768 -0.4644  0.3964
 8286TIP3    H249054   6.613   3.628   9.734 -0.1101  0.3055 -0.6518
 8287TIP3   OH249055   3.084   4.135   9.489  0.0813  0.0589  0.1069
 8287TIP3    H149056   3.136   4.168   9.416  0.4114 -0.5874  0.0404
 8287TIP3    H249057   3.022   4.205   9.508  0.9865  0.8573  0.2112
 8288TIP3   OH249058   6.289   5.513   0.925  0.3841  0.4225  0.1943
 8288TIP3    H149059   6.254   5.598   0.902 -0.3324  0.3604  1.0079
 8288TIP3    H249060   6.379   5.531   0.952  0.7571  0.6846 -1.1573
 8289TIP3   OH249061   2.240   6.084   7.576  0.2487  0.0564 -0.2953
 8289TIP3    H149062   2.196   6.081   7.661 -0.5362 -0.1000 -0.6957
 8289TIP3    H249063   2.255   6.177   7.561  1.0110  0.0443  0.3156
 8290TIP3   OH249064   2.382   7.469   7.794  0.9160 -0.6461  0.1326
 8290TIP3    H149065   2.470   7.472   7.755 -0.5051  0.7556 -3.3678
 8290TIP3    H249066   2.343   7.554   7.771 -1.8929 -1.8186  0.1851
 8291TIP3   OH249067   1.711   5.084   1.029  0.4985  0.5221 -0.3104
 8291TIP3    H149068   1.760   5.141   0.969  0.4742 -0.7295 -1.5811
 8291TIP3    H249069   1.630   5.064   0.983  1.1498 -1.7117 -0.5787
 8292TIP3   OH249070   6.232   5.237   0.417  0.3326 -0.2220 -0.0964
 8292TIP3    H149071   6.251   5.234   0.323  0.3487  0.4407 -0.1162
 8292TIP3    H249072   6.265   5.322   0.445 -0.7704  0.1028  0.2692
 8293TIP3   OH249073   3.180   2.950   2.488 -0.4139 -0.1123 -0.3471
 8293TIP3    H149074   3.201   2.914   2.574 -0.4385 -0.4009 -0.4635
 8293TIP3    H249075   3.101   3.002   2.503 -0.1073  0.2888 -0.0818
 8294TIP3   OH249076   3.433   1.626   9.487 -0.6347  0.0053  0.1278
 8294TIP3    H149077   3.438   1.665   9.574  2.7562  1.1435 -0.4292
 8294TIP3    H249078   3.432   1.701   9.427 -2.1318 -0.7654 -0.8641
 8295TIP3   OH249079   6.707   7.518   8.769 -0.0047  0.5017 -0.4227
 8295TIP3    H149080   6.662   7.494   8.689 -2.9051 -2.3155  1.7792
 8295TIP3    H249081   6.786   7.463   8.770 -0.4480 -0.1437 -0.8969
 8296TIP3   OH249082   1.220   6.641   2.649  0.3272 -0.0150 -0.4703
 8296TIP3    H149083   1.229   6.643   2.553 -0.9184  1.0133 -0.5923
 8296TIP3    H249084   1.164   6.566   2.666  0.2482  0.0181 -0.5808
 8297TIP3   OH249085   2.382   0.498   2.764 -0.0857 -0.7735  0.1407
 8297TIP3    H149086   2.310   0.553   2.734  0.6413  0.1523  0.0461
 8297TIP3    H249087   2.343   0.439   2.829 -1.7636 -2.9839 -2.6662
 8298TIP3   OH249088   0.625   3.043   7.005 -0.1236 -0.1995  0.3633
 8298TIP3    H149089   0.703   3.050   7.061  0.4041 -0.2593 -0.3438
 8298TIP3    H249090   0.659   3.049   6.916 -0.8847 -0.6627  0.0297
 8299TIP3   OH249091   2.834   0.092   9.881 -0.4888  0.3012  0.2143
 8299TIP3    H149092   2.926   0.118   9.889 -0.3900  0.2183 -0.5167
 8299TIP3    H249093   2.835   0.022   9.816 -1.0162 -0.0278  0.5572
 8300TIP3   OH249094   4.753   3.847   7.896 -0.3281  0.2269  0.1980
 8300TIP3    H149095   4.784   3.933   7.923  1.2636 -0.4108  0.5352
 8300TIP3    H249096   4.771   3.844   7.801 -1.6856  0.7651 -0.0952
 8301TIP3   OH249097   3.883   1.588   9.507 -0.1228  0.1637 -0.1240
 8301TIP3    H149098   3.906   1.507   9.462  1.2451  0.3309  0.2525
 8301TIP3    H249099   3.799   1.568   9.548 -0.2485 -0.7605 -0.7746
 8302TIP3   OH249100   0.900   5.739   9.005  0.0898  0.6450  0.6016
 8302TIP3    H149101   0.833   5.806   9.021  0.7851  2.0058 -1.7022
 8302TIP3    H249102   0.966   5.784   8.953  0.4594 -1.9294 -1.3209
 8303TIP3   OH249103   5.811   4.894   8.870 -0.3599 -0.1715  0.4190
 8303TIP3    H149104   5.787   4.845   8.791  1.5355 -0.7938  0.1811
 8303TIP3    H249105   5.825   4.827   8.937  2.2296 -0.0428  0.0979
 8304TIP3   OH249106   0.480   7.292   2.073 -0.5640 -0.2105 -0.1789
 8304TIP3    H149107   0.508   7.211   2.031 -2.0746  0.0154 -1.7482
 8304TIP3    H249108   0.453   7.349   2.000 -0.8348  1.1919  0.9624
 8305TIP3   OH249109   5.306   2.583   9.912 -0.2128 -0.1580 -0.0595
 8305TIP3    H149110   5.366   2.639   9.961 -0.9424  0.4990  0.0992
 8305TIP3    H249111   5.257   2.643   9.856 -0.7073 -0.6840 -0.2054
 8306TIP3   OH249112   1.649   2.913   0.455  0.3182 -1.1621  0.2550
 8306TIP3    H149113   1.737   2.939   0.427 -0.7401  0.0720 -2.2557
 8306TIP3    H249114   1.591   2.950   0.388 -2.0188 -3.1162  1.0656
 8307TIP3   OH249115   1.755   3.538   0.912 -0.1190  0.0562 -0.1703
 8307TIP3    H149116   1.768   3.605   0.846  0.5150 -0.2627 -0.3789
 8307TIP3    H249117   1.744   3.457   0.862 -0.7544 -0.0146  0.0810
 8308TIP3   OH249118   5.650   1.938   1.920 -0.5850 -0.0239 -0.2574
 8308TIP3    H149119   5.632   2.004   1.987 -1.6583  1.8543 -2.2596
 8308TIP3    H249120   5.586   1.955   1.851  0.2182 -2.0971 -1.6357
 8309TIP3   OH249121   5.984   1.309   1.451  0.0106 -0.2056 -0.7188
 8309TIP3    H149122   5.932   1.309   1.532  0.9753  1.1002 -0.0754
 8309TIP3    H249123   5.965   1.393   1.411  0.9767 -0.0650 -0.8988
 8310TIP3   OH249124   1.907   0.299   9.497 -0.4155 -0.1568 -0.0111
 8310TIP3    H149125   1.998   0.296   9.469 -0.6960  0.0642 -0.9753
 8310TIP3    H249126   1.877   0.208   9.493 -0.1417 -0.2860  0.6756
 8311TIP3   OH249127   4.961   0.814   6.892 -0.8882 -0.4010  0.2064
 8311TIP3    H149128   4.958   0.729   6.937 -1.4512  0.3516  1.6665
 8311TIP3    H249129   4.901   0.869   6.941  0.6261  1.3088  0.2658
 8312TIP3   OH249130   4.486   3.395   9.033 -0.2308 -0.3133 -0.1074
 8312TIP3    H149131   4.523   3.475   8.995 -0.9161  0.5067  0.8982
 8312TIP3    H249132   4.426   3.426   9.101 -0.6488 -1.6846  0.1799
 8313TIP3   OH249133   2.758   6.474   0.817 -0.1217 -0.0419  0.6236
 8313TIP3    H149134   2.751   6.514   0.730  0.9574  2.4331  1.5913
 8313TIP3    H249135   2.846   6.499   0.847 -1.1871  0.8699  3.2040
 8314TIP3   OH249136   2.381   1.104   0.519 -0.7085  0.1621 -0.7003
 8314TIP3    H149137   2.333   1.166   0.465 -3.0039  1.0249  2.0526
 8314TIP3    H249138   2.318   1.034   0.538  0.4386 -0.7795 -0.2092
 8315TIP3   OH249139   7.350   1.718   8.875  0.1867  0.3967  0.1424
 8315TIP3    H149140   7.370   1.693   8.785 -0.0489  1.4308 -0.2099
 8315TIP3    H249141   7.386   1.647   8.929  0.5156 -0.1206 -0.7469
 8316TIP3   OH249142   5.537   2.860   8.906  0.2641 -0.2954  0.1271
 8316TIP3    H149143   5.574   2.815   8.830 -2.4370 -1.1055 -0.8408
 8316TIP3    H249144   5.502   2.789   8.961 -1.9347  0.4310 -0.2391
 8317TIP3   OH249145   3.957   3.857   8.006 -0.3461  0.7352 -0.7201
 8317TIP3    H149146   4.016   3.932   8.018  2.0740 -1.2502  0.6776
 8317TIP3    H249147   3.917   3.843   8.091  0.5557 -0.5592 -0.4790
 8318TIP3   OH249148   6.552   1.096   2.831 -0.2903 -0.3461 -0.1966
 8318TIP3    H149149   6.470   1.046   2.829  0.9129 -2.3692 -0.9959
 8318TIP3    H249150   6.588   1.080   2.919 -1.2325  1.4793  0.5876
 8319TIP3   OH249151   1.094   6.317   1.327 -0.1108 -0.2403  0.7770
 8319TIP3    H149152   1.049   6.354   1.251 -0.2557 -0.7016  0.6379
 8319TIP3    H249153   1.094   6.388   1.391  0.6330  0.4028  0.0976
 8320TIP3   OH249154   0.451   1.776   3.286  0.4205 -0.3017  0.5018
 8320TIP3    H149155   0.465   1.720   3.210 -0.7980 -0.5092  0.4119
 8320TIP3    H249156   0.485   1.862   3.260 -0.0644 -0.3464 -0.3089
 8321TIP3   OH249157   5.968   3.730   0.973  0.7342  0.4240 -0.5293
 8321TIP3    H149158   5.932   3.659   1.025  0.2598 -0.2635 -1.7531
 8321TIP3    H249159   6.060   3.707   0.961  0.7725  0.4315 -0.2526
 8322TIP3   OH249160   2.380   3.146   8.368  0.1186  0.4247  0.0409
 8322TIP3    H149161   2.347   3.169   8.281 -0.3948 -0.5545 -0.0358
 8322TIP3    H249162   2.375   3.228   8.417 -1.0104  0.6551 -0.4187
 8323TIP3   OH249163   7.328   6.799   9.582 -0.1042 -0.4175 -0.4448
 8323TIP3    H149164   7.363   6.860   9.517 -0.5196 -0.8114 -1.0472
 8323TIP3    H249165   7.403   6.776   9.636  0.5485 -1.1117 -1.5961
 8324TIP3   OH249166   0.404   5.042   9.516  0.0964 -0.4530  0.3545
 8324TIP3    H149167   0.419   5.129   9.480  2.5892 -0.4153  1.2658
 8324TIP3    H249168   0.330   5.007   9.466 -0.3297  1.7851 -0.6915
 8325TIP3   OH249169  -0.057   4.347   8.565 -0.3384  0.0275 -0.2214
 8325TIP3    H149170   0.014   4.359   8.627 -1.3931 -0.7545  1.1959
 8325TIP3    H249171  -0.050   4.422   8.506  2.0603 -0.4020 -0.5827
 8326TIP3   OH249172   4.797   4.276   8.677 -0.8848 -0.6019  0.1231
 8326TIP3    H149173   4.738   4.237   8.742 -0.3515 -0.0190  0.9779
 8326TIP3    H249174   4.884   4.252   8.707 -0.5955  0.3533  0.0845
 8327TIP3   OH249175   5.061   7.062   6.660 -0.3360  0.5182 -0.2217
 8327TIP3    H149176   4.976   7.023   6.677 -0.5091  1.3979  0.9995
 8327TIP3    H249177   5.047   7.156   6.665  0.9793  0.6718  1.4736
 8328TIP3   OH249178   5.237   6.406   9.258 -0.0584  0.0413  0.0601
 8328TIP3    H149179   5.260   6.349   9.330 -0.3722 -0.7219 -0.4299
 8328TIP3    H249180   5.162   6.363   9.215 -0.9502  1.3115  0.2669
 8329TIP3   OH249181   0.663   5.482   0.724 -0.0601  0.1464 -0.2702
 8329TIP3    H149182   0.617   5.566   0.725  2.7107  1.7915 -0.4461
 8329TIP3    H249183   0.704   5.476   0.810 -1.0722 -1.6346  0.1546
 8330TIP3   OH249184   0.836   0.464  -0.051  0.2088  0.9866 -0.0769
 8330TIP3    H149185   0.796   0.445   0.034 -0.0657 -0.0195 -0.4154
 8330TIP3    H249186   0.831   0.381  -0.099 -0.8689  1.8683 -1.5769
 8331TIP3   OH249187   0.242   1.335   1.012  0.5007  0.2422  0.3011
 8331TIP3    H149188   0.153   1.309   1.035  0.8242 -0.3666  0.8967
 8331TIP3    H249189   0.296   1.260   1.036  1.1084  0.3682 -0.6182
 8332TIP3   OH249190   5.757   1.493   2.149  0.0537 -0.7523  0.0451
 8332TIP3    H149191   5.709   1.425   2.100 -1.3331 -0.1803  0.5548
 8332TIP3    H249192   5.741   1.573   2.100 -1.8603 -0.0571  1.6721
 8333TIP3   OH249193   1.133   2.762   1.041  0.2074 -0.5728  0.3780
 8333TIP3    H149194   1.065   2.718   1.092 -0.6662 -0.3922 -0.5981
 8333TIP3    H249195   1.123   2.855   1.063  0.6496 -0.6190  0.8048
 8334TIP3   OH249196   6.591   5.639   7.750 -0.2297 -0.2058 -0.1017
 8334TIP3    H149197   6.674   5.681   7.772  2.0326 -3.5313 -1.5029
 8334TIP3    H249198   6.551   5.619   7.835  0.7996  0.6605  0.6200
 8335TIP3   OH249199   0.587   7.477   8.841  0.6422 -0.5989  0.3476
 8335TIP3    H149200   0.593   7.528   8.761 -0.0808  1.1430  1.3454
 8335TIP3    H249201   0.653   7.408   8.831  0.4871 -0.4995 -1.7589
 8336TIP3   OH249202   6.533   1.251   2.352  0.7032  0.0492 -0.1399
 8336TIP3    H149203   6.446   1.240   2.313  0.7518 -0.4479 -0.1105
 8336TIP3    H249204   6.551   1.344   2.343 -0.0087  0.2366  0.2179
 8337TIP3   OH249205   5.741   7.759   2.171  0.5498 -0.3331  0.1027
 8337TIP3    H149206   5.819   7.746   2.117  0.3640 -0.7228 -0.0759
 8337TIP3    H249207   5.686   7.818   2.119  0.6514 -0.1952  0.1520
 8338TIP3   OH249208   7.714   3.496   9.541 -0.0908  0.7670  0.3871
 8338TIP3    H149209   7.626   3.482   9.575 -1.3563 -0.0057 -2.8648
 8338TIP3    H249210   7.723   3.591   9.535 -1.0627  0.8345 -0.0916
 8339TIP3   OH249211   2.651   5.632   0.980  0.1155 -0.3625  0.4683
 8339TIP3    H149212   2.633   5.566   0.913 -0.2556 -0.5486  0.7431
 8339TIP3    H249213   2.592   5.609   1.052  0.3227 -0.0112  0.7533
 8340TIP3   OH249214   4.258   5.485   9.952  0.1565 -0.2614 -0.5375
 8340TIP3    H149215   4.187   5.506  10.013 -0.7918 -0.6407 -1.4706
 8340TIP3    H249216   4.328   5.452  10.007 -0.6007 -0.4136  0.3632
 8341TIP3   OH249217   2.828   7.537   8.538  0.3914 -0.3669  0.2526
 8341TIP3    H149218   2.734   7.529   8.550  0.6632 -0.7984  2.7191
 8341TIP3    H249219   2.841   7.625   8.503 -0.9618 -0.6225 -0.9387
 8342TIP3   OH249220   2.112   6.475   8.075  0.3678 -0.0805 -0.6007
 8342TIP3    H149221   2.173   6.482   8.002  1.5120  0.3422  0.3479
 8342TIP3    H249222   2.136   6.393   8.118  0.3207  0.1153 -0.1915
 8343TIP3   OH249223   5.172   6.842   1.641 -0.1119 -0.6219 -0.4614
 8343TIP3    H149224   5.141   6.932   1.655 -1.7244 -1.1981 -0.0955
 8343TIP3    H249225   5.212   6.817   1.724 -2.2833 -1.2064  0.4740
 8344TIP3   OH249226   1.078   5.214   0.752 -0.1554  0.0966  0.7580
 8344TIP3    H149227   1.166   5.181   0.765  0.2450  0.7355 -0.1831
 8344TIP3    H249228   1.044   5.230   0.840  1.1224  0.9963  1.1095
 8345TIP3   OH249229   7.544   6.051   1.437 -0.0318  0.0676 -0.1375
 8345TIP3    H149230   7.510   6.136   1.411 -0.0166  0.2179  0.3321
 8345TIP3    H249231   7.468   6.003   1.468  0.3739  0.9867  2.5170
 8346TIP3   OH249232   5.878   1.848   1.779 -0.4674 -0.1700 -0.1130
 8346TIP3    H149233   5.809   1.874   1.840  0.4575 -0.5039  1.1300
 8346TIP3    H249234   5.895   1.756   1.800 -1.4252 -0.8714 -2.1980
 8347TIP3   OH249235   0.858   5.150   1.386 -0.3328 -0.3164  0.1717
 8347TIP3    H149236   0.809   5.083   1.433  0.2486 -0.5522  0.4521
 8347TIP3    H249237   0.856   5.122   1.295 -0.3902 -0.5339  0.2389
 8348TIP3   OH249238   7.310   3.854   0.987 -0.6242 -0.6843  0.2529
 8348TIP3    H149239   7.373   3.807   1.040  0.9032  1.0991  0.1174
 8348TIP3    H249240   7.362   3.898   0.920 -2.0503  0.4366 -0.1927
 8349TIP3   OH249241   4.210   7.501   0.110 -0.1025 -0.7260  0.3680
 8349TIP3    H149242   4.181   7.592   0.110  0.7961 -0.4274  0.9661
 8349TIP3    H249243   4.257   7.490   0.028  0.4432 -0.4296  0.6378
 8350TIP3   OH249244   6.279   1.093   7.414  0.1714 -0.2222 -0.3362
 8350TIP3    H149245   6.184   1.091   7.424  0.2077 -1.5645  0.0105
 8350TIP3    H249246   6.310   1.148   7.486 -0.2722 -0.8947  0.3877
 8351TIP3   OH249247   7.566   6.094   7.588  0.1248 -0.2403  0.7203
 8351TIP3    H149248   7.477   6.121   7.565 -0.6723 -1.8962  1.7025
 8351TIP3    H249249   7.608   6.174   7.619 -0.9357  0.6199  0.0103
 8352TIP3   OH249250   6.376   4.994   9.241  0.3816 -0.6667  0.0732
 8352TIP3    H149251   6.412   5.065   9.187  1.1909 -0.5229  0.7761
 8352TIP3    H249252   6.348   4.928   9.178 -0.8566  0.4747 -0.6179
 8353TIP3   OH249253   7.406   3.168   2.531 -0.1443  0.0758 -0.3589
 8353TIP3    H149254   7.471   3.103   2.505 -0.3919 -0.4057  0.1953
 8353TIP3    H249255   7.409   3.235   2.463 -1.0979 -1.3613 -1.8724
 8354TIP3   OH249256   5.766   6.622   0.653 -0.4078  0.3594  0.0238
 8354TIP3    H149257   5.733   6.697   0.703  1.6747  0.1588  1.8542
 8354TIP3    H249258   5.846   6.656   0.612 -1.0223 -0.0689 -1.5910
 8355TIP3   OH249259   1.518   2.244   1.510  0.2962 -0.2642 -0.1929
 8355TIP3    H149260   1.579   2.170   1.516  0.7779 -0.0031 -1.5281
 8355TIP3    H249261   1.446   2.211   1.455 -0.1052 -0.1184  0.2309
 8356TIP3   OH249262   6.056   3.940   8.437  0.2465 -0.9002 -0.6971
 8356TIP3    H149263   5.975   3.890   8.447  0.2979 -0.6783  1.3634
 8356TIP3    H249264   6.081   3.962   8.527  2.4741 -0.7589 -1.2913
 8357TIP3   OH249265   4.211   1.801   8.806 -0.1067  0.1947  0.5009
 8357TIP3    H149266   4.190   1.712   8.835 -0.5180  0.0906 -0.0930
 8357TIP3    H249267   4.125   1.841   8.787  0.1534 -0.4972 -2.7798
 8358TIP3   OH249268   5.402   6.815   7.438  0.3633  0.3237 -0.2311
 8358TIP3    H149269   5.367   6.726   7.438  0.1344  0.4115 -0.0636
 8358TIP3    H249270   5.495   6.805   7.420  1.1884 -0.2825  3.5391
 8359TIP3   OH249271   5.470   3.179   9.792 -0.0230 -0.3882 -0.3389
 8359TIP3    H149272   5.406   3.108   9.783 -0.4432  0.0819 -1.1233
 8359TIP3    H249273   5.459   3.209   9.882 -0.3143 -0.8744 -0.2080
 8360TIP3   OH249274   0.707   6.609   7.416  0.3062 -0.1129  0.3296
 8360TIP3    H149275   0.715   6.607   7.321 -0.4473 -0.7512  0.2720
 8360TIP3    H249276   0.755   6.532   7.446  2.3707  1.2046  0.6438
 8361TIP3   OH249277   2.908   6.305   9.004  0.3485  0.4531  0.8702
 8361TIP3    H149278   2.852   6.228   9.014  0.7286 -0.3495 -2.1818
 8361TIP3    H249279   2.847   6.377   8.986 -0.0316 -0.7767 -4.5514
 8362TIP3   OH249280   3.171   4.258   0.495  0.1943 -0.6393  0.2118
 8362TIP3    H149281   3.145   4.321   0.428  2.4115 -0.5151 -0.6200
 8362TIP3    H249282   3.104   4.189   0.490 -0.7364  0.2939 -0.7833
 8363TIP3   OH249283   7.262   5.389   0.843  0.7289 -0.4558 -0.2944
 8363TIP3    H149284   7.204   5.376   0.768  0.5520 -0.0199 -0.2423
 8363TIP3    H249285   7.336   5.439   0.808  0.8067 -0.5368 -0.2460
 8364TIP3   OH249286   4.114   4.242   9.548 -0.2291  0.3286  0.1072
 8364TIP3    H149287   4.156   4.320   9.511  1.7744 -0.5667  0.3335
 8364TIP3    H249288   4.085   4.192   9.472 -1.5267  1.2437 -0.0396
 8365TIP3   OH249289   0.784   4.511   8.377 -0.0326 -0.6677  0.2022
 8365TIP3    H149290   0.721   4.520   8.305 -0.4059 -0.4753  0.5507
 8365TIP3    H249291   0.860   4.561   8.348  0.5184 -2.0122 -0.8278
 8366TIP3   OH249292   0.496   0.514   1.585  0.1484 -0.1622 -0.5864
 8366TIP3    H149293   0.491   0.423   1.555  0.2982  0.3784 -2.3415
 8366TIP3    H249294   0.430   0.520   1.655 -0.6511 -1.3317 -1.2168
 8367TIP3   OH249295   2.369   0.208   9.658  0.0409  0.3331  0.5196
 8367TIP3    H149296   2.309   0.262   9.710 -0.2461 -0.6867  1.2821
 8367TIP3    H249297   2.429   0.271   9.617 -0.7635  1.2796  0.7497
 8368TIP3   OH249298   0.925   4.490   2.162 -0.1092  0.4010  0.3073
 8368TIP3    H149299   0.995   4.513   2.101 -0.0001 -0.2253  0.1905
 8368TIP3    H249300   0.850   4.470   2.107 -0.2405  0.6026  0.4123
 8369TIP3   OH249301   7.589   2.293   0.292 -0.2515  0.4217 -0.0795
 8369TIP3    H149302   7.641   2.371   0.273  1.0589  0.1393  2.0207
 8369TIP3    H249303   7.544   2.313   0.373  1.3736 -1.5072  1.4212
 8370TIP3   OH249304   4.775   2.517   1.479 -0.1814 -0.6591 -0.0398
 8370TIP3    H149305   4.748   2.555   1.562 -0.8357  0.6485 -0.8206
 8370TIP3    H249306   4.866   2.491   1.493 -0.1115  0.0563  0.9254
 8371TIP3   OH249307   6.999   1.893   7.550 -0.5662  0.6607 -0.5319
 8371TIP3    H149308   6.942   1.946   7.494 -0.3963 -0.2290 -1.5761
 8371TIP3    H249309   6.947   1.814   7.569 -0.4379  0.7397  0.1727
 8372TIP3   OH249310   0.749   6.015   2.349 -0.2617  0.2755  0.6497
 8372TIP3    H149311   0.666   5.997   2.393  0.1720  3.0494  2.9552
 8372TIP3    H249312   0.739   6.104   2.316  0.6207 -0.6175 -2.2264
 8373TIP3   OH249313   4.403   0.292   2.176  0.0294  0.4923 -0.6633
 8373TIP3    H149314   4.307   0.299   2.175  0.0726  1.4780  0.7631
 8373TIP3    H249315   4.434   0.381   2.160  0.6929  0.4746  0.4659
 8374TIP3   OH249316   2.888   7.569   1.634 -0.5017 -0.4636 -0.0888
 8374TIP3    H149317   2.837   7.552   1.713  1.3673 -0.3297  1.2176
 8374TIP3    H249318   2.867   7.496   1.575 -0.2564 -1.8414  1.4398
 8375TIP3   OH249319   7.631   2.339   2.128  0.1564  0.8703  0.3501
 8375TIP3    H149320   7.568   2.275   2.093 -1.8053  2.5317  0.6717
 8375TIP3    H249321   7.647   2.399   2.055  1.1218  0.6607  0.3805
 8376TIP3   OH249322   4.357   1.362   1.315 -0.4906  0.4136 -0.2759
 8376TIP3    H149323   4.404   1.441   1.288  1.2705 -0.5039  0.0070
 8376TIP3    H249324   4.279   1.395   1.360  0.8064  2.0185  0.9155
 8377TIP3   OH249325   7.348   7.304   1.413 -0.3200 -0.0587  0.1675
 8377TIP3    H149326   7.262   7.335   1.383 -0.5646 -1.2459 -0.4312
 8377TIP3    H249327   7.349   7.324   1.507 -1.0179  0.4696  0.0727
 8378TIP3   OH249328   1.717   4.975   7.094 -0.2593  0.2245 -0.0587
 8378TIP3    H149329   1.787   5.040   7.090 -1.1301  1.1264 -1.6266
 8378TIP3    H249330   1.737   4.913   7.025 -1.5693  1.1510 -1.3443
 8379TIP3   OH249331   3.495   3.239   0.936 -0.4706 -0.0116 -0.3781
 8379TIP3    H149332   3.458   3.317   0.895 -0.4372  0.7948  1.0473
 8379TIP3    H249333   3.589   3.245   0.918 -0.3412  0.7792  0.4654
 8380TIP3   OH249334   1.680   3.629   0.551 -0.3160  0.6201 -0.5014
 8380TIP3    H149335   1.625   3.555   0.578  0.0709  0.8264  0.9288
 8380TIP3    H249336   1.643   3.704   0.597  1.6729  0.6124  1.2051
 8381TIP3   OH249337   0.864   7.095   0.250 -0.1546  0.1899  0.1327
 8381TIP3    H149338   0.912   7.015   0.227  1.7055  1.0233  0.9265
 8381TIP3    H249339   0.927   7.166   0.239 -1.5438  1.4927  0.1798
 8382TIP3   OH249340   0.864   0.707   8.936 -0.5805 -0.0079  0.3876
 8382TIP3    H149341   0.822   0.711   9.021  1.1676 -1.8099  1.4457
 8382TIP3    H249342   0.946   0.755   8.947  0.4724 -1.7091  0.3154
 8383TIP3   OH249343   0.818   0.888   7.596 -0.1308  0.1305  0.0665
 8383TIP3    H149344   0.746   0.829   7.575 -0.5096  0.9435 -0.9667
 8383TIP3    H249345   0.814   0.896   7.692 -0.2810 -1.2293  0.1939
 8384TIP3   OH249346   2.648   1.787   0.546  0.6139 -0.2434 -0.3312
 8384TIP3    H149347   2.611   1.722   0.487 -0.0364  0.6805 -0.9785
 8384TIP3    H249348   2.665   1.863   0.490  0.8791  0.3220  0.4966
 8385TIP3   OH249349   2.803   6.680   2.512  0.2171 -0.1511  0.4388
 8385TIP3    H149350   2.874   6.668   2.574  0.5957 -1.4932 -0.2194
 8385TIP3    H249351   2.769   6.592   2.496 -2.9106  0.5864  2.1683
 8386TIP3   OH249352   0.761   6.008   2.659  0.4134 -0.0008 -0.4866
 8386TIP3    H149353   0.825   6.064   2.616  0.8444  0.3977  0.6423
 8386TIP3    H249354   0.788   5.919   2.637  1.7544  0.1397  0.4991
 8387TIP3   OH249355   6.503   2.289   7.266 -0.1823  0.2678 -0.3132
 8387TIP3    H149356   6.412   2.260   7.261 -0.2406  0.6926 -2.4068
 8387TIP3    H249357   6.550   2.232   7.207  1.0925 -0.4236  1.3047
 8388TIP3   OH249358   4.128   1.908   9.493 -0.1819  0.4144  0.2493
 8388TIP3    H149359   4.115   1.829   9.441 -1.3805  1.4645 -1.1671
 8388TIP3    H249360   4.165   1.971   9.431  0.1206  1.1642  1.1747
 8389TIP3   OH249361   3.106   3.118   1.161 -0.6280 -0.2230  0.1302
 8389TIP3    H149362   3.132   3.187   1.222  0.5977 -1.5267  1.1433
 8389TIP3    H249363   3.148   3.140   1.079  2.1397 -1.1662  1.1787
 8390TIP3   OH249364   3.302   1.770   0.272 -0.0489  0.0677 -0.3041
 8390TIP3    H149365   3.313   1.735   0.360  0.4599  0.7126 -0.1000
 8390TIP3    H249366   3.214   1.742   0.245 -0.4473  0.3820  0.6442
 8391TIP3   OH249367   6.035   4.432   0.135 -0.0901  0.3547 -0.0805
 8391TIP3    H149368   5.965   4.482   0.178  0.4994 -0.0399  1.3946
 8391TIP3    H249369   6.044   4.472   0.049 -1.8656  0.6683 -0.1655
 8392TIP3   OH249370   3.283   1.335   9.057  0.2717  0.3292 -0.4690
 8392TIP3    H149371   3.317   1.301   9.140 -0.5705 -0.3288 -0.3832
 8392TIP3    H249372   3.194   1.301   9.052  0.8942 -1.1605 -2.5145
 8393TIP3   OH249373   2.348   0.507   8.784  0.7563  0.1865 -0.2769
 8393TIP3    H149374   2.328   0.474   8.872 -0.3088  0.9196 -0.2218
 8393TIP3    H249375   2.443   0.494   8.775  1.0056  0.6599  1.2264
 8394TIP3   OH249376   7.417   6.448   8.514  0.4694 -0.6913 -0.0836
 8394TIP3    H149377   7.397   6.411   8.428  0.7404 -0.6005 -0.1850
 8394TIP3    H249378   7.342   6.504   8.533  0.3987 -0.7279 -0.2515
 8395TIP3   OH249379   4.886   7.179   7.867  0.0349 -0.0110 -0.4004
 8395TIP3    H149380   4.853   7.128   7.941 -1.5375 -0.0493 -1.0807
 8395TIP3    H249381   4.844   7.141   7.791  0.7881  0.7167 -1.1993
 8396TIP3   OH249382   1.947   7.574   1.993  0.0773 -0.4497 -0.4553
 8396TIP3    H149383   1.963   7.632   1.919 -1.7633  1.7946  0.7766
 8396TIP3    H249384   1.862   7.602   2.028  0.0203 -2.6443  1.4075
 8397TIP3   OH249385   5.176   1.690   9.328  0.4044  0.1040  0.4540
 8397TIP3    H149386   5.155   1.744   9.405 -0.5711  0.2853  0.0657
 8397TIP3    H249387   5.245   1.631   9.359 -0.7463 -0.5860  1.7863
 8398TIP3   OH249388   1.677   5.888   9.651 -0.0972  0.1024  0.8189
 8398TIP3    H149389   1.692   5.982   9.642  3.1788 -0.3588  0.0934
 8398TIP3    H249390   1.698   5.868   9.742  3.0241 -0.3646  0.0976
 8399TIP3   OH249391   0.509   5.281   1.444  0.6680 -0.2792 -0.3339
 8399TIP3    H149392   0.450   5.267   1.369 -0.6275 -0.1371  0.6224
 8399TIP3    H249393   0.596   5.288   1.405  0.1566 -1.2997 -1.7243
 8400TIP3   OH249394   7.642   5.770   0.076  0.1141 -0.2396 -0.2926
 8400TIP3    H149395   7.674   5.850   0.119 -0.3567  0.0158 -0.4182
 8400TIP3    H249396   7.575   5.800   0.015 -1.2353 -0.8828  0.8176
 8401TIP3   OH249397   4.034   6.984   9.624 -0.4527  0.0009  0.3525
 8401TIP3    H149398   4.081   6.925   9.565 -1.5219  0.4054 -0.9470
 8401TIP3    H249399   4.000   6.927   9.693 -0.7505 -0.7867 -0.4216
 8402TIP3   OH249400   1.558   4.872   9.246 -0.2974 -0.3941  1.0262
 8402TIP3    H149401   1.561   4.778   9.259  1.1224 -0.4206  0.7220
 8402TIP3    H249402   1.619   4.907   9.312 -0.4308  0.2606  0.8084
 8403TIP3   OH249403   6.364   0.945   9.838 -0.2710  0.2154 -0.1872
 8403TIP3    H149404   6.428   1.013   9.857 -1.8845  1.8896 -0.5475
 8403TIP3    H249405   6.379   0.878   9.905  0.6019  1.4389  0.8715
 8404TIP3   OH249406   3.296   4.139   7.149  0.0611 -0.1084 -0.5032
 8404TIP3    H149407   3.244   4.062   7.126 -0.6856 -0.6800  2.6727
 8404TIP3    H249408   3.385   4.105   7.162  0.5414  0.2582 -2.4907
 8405TIP3   OH249409   5.097   4.805   0.328  0.4049 -0.0806  0.6412
 8405TIP3    H149410   5.010   4.845   0.324  0.3323  0.4376  4.1104
 8405TIP3    H249411   5.105   4.757   0.246 -2.5127  1.1074 -0.4796
 8406TIP3   OH249412   7.381   0.650   8.255 -0.5873 -0.0100 -0.2739
 8406TIP3    H149413   7.430   0.662   8.174  0.3649  0.5353  0.3649
 8406TIP3    H249414   7.290   0.667   8.231 -0.3015  0.2638 -1.1931
 8407TIP3   OH249415   7.099   3.139   2.181 -0.4381  0.2289  0.2394
 8407TIP3    H149416   7.097   3.192   2.101  1.2535 -0.1383 -0.0699
 8407TIP3    H249417   7.046   3.062   2.160 -0.9263  0.6577 -0.1300
 8408TIP3   OH249418   7.092   6.197   2.409 -0.2466 -0.2453  0.4916
 8408TIP3    H149419   7.060   6.224   2.323  0.0906  1.7340  0.9378
 8408TIP3    H249420   7.082   6.102   2.409  0.1386 -0.3486 -1.8683
 8409TIP3   OH249421   5.706   2.100   9.203  0.2971 -0.4117 -0.2763
 8409TIP3    H149422   5.657   2.018   9.200 -1.4807  0.6431 -1.5451
 8409TIP3    H249423   5.705   2.125   9.295  1.2963 -1.9944  0.2268
 8410TIP3   OH249424   4.114   1.352   0.322  0.0379 -0.4071 -0.1422
 8410TIP3    H149425   4.110   1.367   0.228 -1.5530 -0.7356 -0.1655
 8410TIP3    H249426   4.028   1.317   0.344  0.0482  0.5202  1.5818
 8411TIP3   OH249427   6.300   5.996   7.754 -0.0594  0.5995 -0.3500
 8411TIP3    H149428   6.260   5.925   7.704  0.9853 -1.5809  1.7489
 8411TIP3    H249429   6.329   6.058   7.687 -3.5435  0.5373 -2.1217
 8412TIP3   OH249430   5.939   0.310   7.568  0.0599 -0.0829  0.3451
 8412TIP3    H149431   5.916   0.330   7.659  0.4322  1.3808  0.1389
 8412TIP3    H249432   5.855   0.289   7.526 -0.1838 -0.2164  0.8860
 8413TIP3   OH249433   5.369   4.415   8.541  0.4184 -0.5150 -0.4582
 8413TIP3    H149434   5.452   4.445   8.506 -0.1113  0.7358 -0.6849
 8413TIP3    H249435   5.329   4.365   8.470  0.3906  0.0043 -0.8083
 8414TIP3   OH249436   5.609   0.368   7.523 -0.2336 -0.0805  0.5092
 8414TIP3    H149437   5.525   0.326   7.508 -0.6547  0.3615  1.5798
 8414TIP3    H249438   5.594   0.460   7.501  0.0440 -0.0455  0.4562
 8415TIP3   OH249439   7.113   7.667   8.373  0.2738  0.4306 -0.1308
 8415TIP3    H149440   7.021   7.667   8.398 -0.1589  0.5346 -1.6276
 8415TIP3    H249441   7.152   7.594   8.423 -0.5726  0.4624  0.5992
 8416TIP3   OH249442   3.454   0.009   7.680 -0.0578  0.0417 -0.3493
 8416TIP3    H149443   3.423  -0.039   7.603 -0.3629  2.3809 -1.7603
 8416TIP3    H249444   3.540   0.041   7.656 -0.1739  0.8414  0.2625
 8417TIP3   OH249445   6.164   0.839   9.363  0.6812 -0.4908 -0.3632
 8417TIP3    H149446   6.141   0.766   9.305  1.1913 -1.5821  0.7588
 8417TIP3    H249447   6.080   0.868   9.399  0.1546  1.1693 -2.6545
 8418TIP3   OH249448   7.536   0.649   9.115  0.5352 -0.2404 -0.0170
 8418TIP3    H149449   7.453   0.604   9.099 -0.0924  1.3658 -1.5856
 8418TIP3    H249450   7.603   0.584   9.093 -0.3074 -0.9590 -0.5223
 8419TIP3   OH249451   1.268   6.415   0.246 -0.1747 -0.4821  0.0535
 8419TIP3    H149452   1.212   6.378   0.178  0.1462 -1.7789  0.4694
 8419TIP3    H249453   1.285   6.505   0.217 -0.5648 -0.8077 -1.2418
 8420TIP3   OH249454   7.720   1.494   1.143  0.4808  0.3405  0.2057
 8420TIP3    H149455   7.655   1.445   1.194  1.5842 -0.4206  0.9276
 8420TIP3    H249456   7.690   1.485   1.053  0.4202 -1.3806  0.3520
 8421TIP3   OH249457   1.397   7.547   1.748  1.0465  0.3716  0.5641
 8421TIP3    H149458   1.432   7.458   1.747  1.8347  0.6654 -0.8840
 8421TIP3    H249459   1.375   7.565   1.656 -0.3016  1.2267  1.0178
 8422TIP3   OH249460   3.972   7.436   1.142 -0.0415  0.4530  0.3912
 8422TIP3    H149461   4.067   7.443   1.137  0.1286 -1.0305  1.1737
 8422TIP3    H249462   3.952   7.349   1.109 -0.7969 -0.6286  3.3947
 8423TIP3   OH249463   1.110   2.339   9.711  0.3037 -0.3214 -1.2576
 8423TIP3    H149464   1.055   2.324   9.787  2.0033 -0.0318  0.0934
 8423TIP3    H249465   1.077   2.279   9.645 -1.2891 -0.4992 -0.3483
 8424TIP3   OH249466   0.560   0.094   8.497 -0.1138 -0.2629  0.1379
 8424TIP3    H149467   0.570   0.133   8.583 -1.1520  1.5935 -0.5265
 8424TIP3    H249468   0.618   0.145   8.440  2.4920 -3.0278  0.0754
 8425TIP3   OH249469   0.084   6.043   2.802 -0.0320 -0.2066 -0.1159
 8425TIP3    H149470   0.066   6.117   2.860 -0.3194  0.9653 -1.6084
 8425TIP3    H249471   0.009   5.984   2.813 -0.0613 -0.0245  0.7097
 8426TIP3   OH249472   3.584   1.251   2.095 -0.3350  0.0913 -0.1664
 8426TIP3    H149473   3.494   1.236   2.064 -0.6389  1.7732 -0.2051
 8426TIP3    H249474   3.573   1.289   2.182  0.4547 -2.1516  0.9994
 8427TIP3   OH249475   1.073   0.762   2.614 -0.0033 -0.0190 -0.4908
 8427TIP3    H149476   1.033   0.676   2.627 -0.2367 -0.2700 -2.5486
 8427TIP3    H249477   1.035   0.817   2.683 -2.2422 -0.8099 -1.0137
 8428TIP3   OH249478   2.093   0.942   8.361  0.2445 -0.2242  0.2123
 8428TIP3    H149479   2.150   0.872   8.393 -0.4278 -1.5468 -1.3909
 8428TIP3    H249480   2.015   0.937   8.417 -0.1662 -1.3463 -0.4398
 8429TIP3   OH249481   1.562   5.589   7.000  0.3693  0.0387  0.1618
 8429TIP3    H149482   1.496   5.652   6.970 -0.3639 -0.0581  1.4828
 8429TIP3    H249483   1.593   5.625   7.083  1.0479 -0.5915  0.1955
 8430TIP3   OH249484   0.510   0.776   1.842  0.0850  0.7611 -0.1624
 8430TIP3    H149485   0.581   0.774   1.778 -0.7051 -1.2330 -1.0865
 8430TIP3    H249486   0.538   0.840   1.907  2.9708 -0.2892 -0.2185
 8431TIP3   OH249487   3.581   5.524   7.503  0.0798 -0.0954 -0.5264
 8431TIP3    H149488   3.514   5.592   7.490 -1.8194 -2.0278 -1.4908
 8431TIP3    H249489   3.535   5.454   7.550  2.0255 -0.6648  0.6224
 8432TIP3   OH249490   2.489   2.607   2.037  0.2120 -0.2255  0.4367
 8432TIP3    H149491   2.482   2.538   1.971 -2.4781 -1.5493  1.9345
 8432TIP3    H249492   2.558   2.578   2.096 -0.2308 -1.1664  0.5052
 8433TIP3   OH249493   4.860   0.219   8.986  0.5825  0.2003 -0.4991
 8433TIP3    H149494   4.830   0.248   8.900  0.7911 -1.8246 -1.3013
 8433TIP3    H249495   4.952   0.197   8.972  0.4918 -0.5835  0.1308
 8434TIP3   OH249496   0.663   5.771   0.308  0.3854  0.2272 -0.0545
 8434TIP3    H149497   0.660   5.702   0.242  0.0857  0.2117 -0.0247
 8434TIP3    H249498   0.724   5.738   0.375 -1.0187 -0.7483  0.7841
 8435TIP3   OH249499   1.640   2.018   7.519 -0.3882  0.3143 -0.2356
 8435TIP3    H149500   1.676   2.043   7.434  1.6942 -0.3566  0.3901
 8435TIP3    H249501   1.665   1.926   7.529 -0.7491  0.3468  1.0479
 8436TIP3   OH249502   1.853   6.718   2.321  0.1174 -0.3907  0.1118
 8436TIP3    H149503   1.900   6.669   2.389  0.6086 -0.1924 -0.0815
 8436TIP3    H249504   1.764   6.726   2.355  0.4474  0.0469  0.9138
 8437TIP3   OH249505   5.746   6.568   1.756  0.5323  0.6003  0.2886
 8437TIP3    H149506   5.672   6.512   1.731  0.7077  0.1111  0.8305
 8437TIP3    H249507   5.711   6.626   1.823  0.6550  0.2879  0.6333
 8438TIP3   OH249508   4.999   6.472   0.277  0.2863 -0.0090  0.4095
 8438TIP3    H149509   5.091   6.451   0.296 -0.8055 -4.5818  2.1996
 8438TIP3    H249510   4.962   6.492   0.363 -0.6883  0.0804 -0.0258
 8439TIP3   OH249511   2.714   2.201   9.583  0.0328  0.2542  0.0579
 8439TIP3    H149512   2.633   2.247   9.603 -0.8777 -0.9078 -0.8508
 8439TIP3    H249513   2.741   2.235   9.498 -0.4778 -0.6477 -0.4738
 8440TIP3   OH249514   7.288   0.429   2.125 -0.9819 -0.1507  0.0013
 8440TIP3    H149515   7.251   0.441   2.213 -0.3012 -2.7363  0.7425
 8440TIP3    H249516   7.382   0.420   2.140 -0.8433 -0.4639 -1.0057
 8441TIP3   OH249517   7.068   2.838   7.504  0.2767  0.2162  0.2279
 8441TIP3    H149518   7.063   2.904   7.436  0.9435  0.9959  0.9127
 8441TIP3    H249519   7.115   2.765   7.464  0.7206  0.6962 -0.1390
 8442TIP3   OH249520   0.629   4.196   7.941 -0.3081  0.4644  0.4070
 8442TIP3    H149521   0.707   4.172   7.992 -0.8431 -1.1637  0.5152
 8442TIP3    H249522   0.663   4.250   7.870  1.1724 -1.3518 -0.3697
 8443TIP3   OH249523   0.900   6.894   1.430  0.1445  0.3978 -0.2749
 8443TIP3    H149524   0.953   6.897   1.350  0.1334  4.1482 -0.2949
 8443TIP3    H249525   0.818   6.937   1.406 -0.4095  0.3503  1.4033
 8444TIP3   OH249526   7.014   7.581   2.573  0.0829  0.1950 -0.5181
 8444TIP3    H149527   7.109   7.577   2.565  0.0263 -0.0038 -1.1623
 8444TIP3    H249528   6.985   7.624   2.492 -0.3177  0.9804  0.0378
 8445TIP3   OH249529   2.822   4.838   0.250  0.2405  0.6877  0.3644
 8445TIP3    H149530   2.792   4.782   0.321 -0.3117 -0.5367 -0.8017
 8445TIP3    H249531   2.755   4.831   0.183  1.5693  0.4010 -1.0086
 8446TIP3   OH249532   3.263   1.838   2.002  0.0983  0.3684  0.1057
 8446TIP3    H149533   3.318   1.861   1.927  0.8585 -1.1513  0.1604
 8446TIP3    H249534   3.325   1.817   2.072 -0.4422 -2.7812 -0.2421
 8447TIP3   OH249535   4.838   4.507   0.160  0.3956  0.2548  0.0692
 8447TIP3    H149536   4.859   4.464   0.243  0.7051  0.4688  0.1026
 8447TIP3    H249537   4.827   4.599   0.182  0.4805  0.3138 -0.1301
 8448TIP3   OH249538   5.837   7.631   7.325 -0.3500 -0.0230 -0.1068
 8448TIP3    H149539   5.907   7.696   7.317 -1.0576  0.7472 -0.1507
 8448TIP3    H249540   5.814   7.609   7.235 -1.1737  0.8306 -0.1071
 8449TIP3   OH249541   2.612   7.107   0.923 -0.3068 -0.0138  0.2553
 8449TIP3    H149542   2.692   7.111   0.869 -0.2376 -1.5320  0.2162
 8449TIP3    H249543   2.609   7.017   0.955 -1.1164  0.4743  1.6482
 8450TIP3   OH249544   4.276   4.327   8.941  0.2211  0.3898  0.4333
 8450TIP3    H149545   4.306   4.255   8.884 -1.5115  1.2828 -1.7824
 8450TIP3    H249546   4.356   4.362   8.980  1.7249  0.3905 -2.3641
 8451TIP3   OH249547   2.896   0.554   9.079  0.3201 -0.7635 -0.3999
 8451TIP3    H149548   2.905   0.648   9.068 -0.0879 -0.7146 -0.3351
 8451TIP3    H249549   2.971   0.528   9.132  1.5031 -0.7696 -1.9860
 8452TIP3   OH249550   1.345   5.746   7.035  0.1088 -0.0228 -0.4359
 8452TIP3    H149551   1.307   5.677   7.090  0.4566  0.3778  0.3184
 8452TIP3    H249552   1.279   5.762   6.968 -0.2052 -0.7173 -0.2963
 8453TIP3   OH249553   0.868   3.057   0.023 -0.2904 -0.3335 -0.4022
 8453TIP3    H149554   0.905   2.989  -0.033 -3.3115 -0.3280 -2.6753
 8453TIP3    H249555   0.850   3.014   0.106  1.3193 -1.2411 -0.4978
 8454TIP3   OH249556   4.606   7.089   2.070 -0.1428  0.2906  0.0022
 8454TIP3    H149557   4.562   7.083   1.986  0.7815  0.3059 -0.4946
 8454TIP3    H249558   4.695   7.059   2.053 -0.4529 -1.6189  1.3900
 8455TIP3   OH249559   2.753   3.329   9.866 -0.1480 -0.1762  0.7666
 8455TIP3    H149560   2.708   3.250   9.896  2.5961 -1.9331  0.6575
 8455TIP3    H249561   2.768   3.314   9.772 -1.2949  1.4191  0.2984
 8456TIP3   OH249562   1.817   0.925   1.195 -0.1372 -0.2195 -0.3503
 8456TIP3    H149563   1.828   0.830   1.203  0.1885 -0.1234  0.3720
 8456TIP3    H249564   1.724   0.937   1.176 -0.3137 -0.6465  0.2138
 8457TIP3   OH249565   2.580   5.592   9.812 -0.0198  0.2152  0.4408
 8457TIP3    H149566   2.605   5.684   9.818  0.2051  0.0575  2.5839
 8457TIP3    H249567   2.628   5.549   9.882  0.7261 -1.7784 -1.1886
 8458TIP3   OH249568   0.107   3.959   9.538  0.2988 -0.0347  0.5256
 8458TIP3    H149569   0.106   4.031   9.474  1.3784  0.4735  1.0585
 8458TIP3    H249570   0.030   3.907   9.516  1.1617 -0.4626 -1.8844
 8459TIP3   OH249571   7.289   3.844   8.985 -0.0003  0.4367 -0.2596
 8459TIP3    H149572   7.340   3.924   8.983  0.3657  0.2148  0.1384
 8459TIP3    H249573   7.352   3.774   8.965  0.1120  0.0336  1.3867
 8460TIP3   OH249574   0.746   3.500   0.168  0.6098 -0.4930  0.2840
 8460TIP3    H149575   0.708   3.418   0.197  0.0216  0.0383  1.0491
 8460TIP3    H249576   0.671   3.555   0.144  1.0289 -1.1998 -3.2499
 8461TIP3   OH249577   2.366   3.554   1.232  0.8103 -0.1425  0.0142
 8461TIP3    H149578   2.379   3.547   1.137 -0.0324 -2.3481  0.0041
 8461TIP3    H249579   2.424   3.625   1.259 -0.1158  1.6804 -2.3665
 8462TIP3   OH249580   0.853   3.914   0.706  0.0197  0.7193 -0.7003
 8462TIP3    H149581   0.824   3.823   0.720 -1.1321  1.1060 -0.5116
 8462TIP3    H249582   0.817   3.938   0.621  2.4298  0.2026 -1.9638
 8463TIP3   OH249583   6.359   7.143   8.057 -0.0501  0.2460 -0.5119
 8463TIP3    H149584   6.342   7.087   7.982  0.5578 -0.3326 -0.2367
 8463TIP3    H249585   6.353   7.084   8.132 -0.4451  0.7722 -0.1174
 8464TIP3   OH249586   1.325   4.384   9.744  0.0132 -0.5184  0.0356
 8464TIP3    H149587   1.263   4.400   9.816 -0.3377 -1.7912  0.0329
 8464TIP3    H249588   1.386   4.320   9.778  1.0023  0.2876 -0.1719
 8465TIP3   OH249589   0.919   3.421   9.345  0.1277  0.8509 -0.7097
 8465TIP3    H149590   0.960   3.409   9.430 -2.0358  1.9826  0.5668
 8465TIP3    H249591   0.974   3.371   9.285  0.8800 -1.2271  1.5664
 8466TIP3   OH249592   0.205   2.170   7.416  0.6985 -0.6110  0.2461
 8466TIP3    H149593   0.290   2.212   7.423 -0.7889  2.4866  2.1905
 8466TIP3    H249594   0.215   2.087   7.463  2.8225 -0.7293 -0.3410
 8467TIP3   OH249595   1.361   2.131   2.192 -0.2190  0.8331 -0.1410
 8467TIP3    H149596   1.355   2.036   2.186  1.4966  0.6373  0.7338
 8467TIP3    H249597   1.325   2.153   2.278 -0.2716  0.9435 -0.1903
 8468TIP3   OH249598   6.529   2.497   1.363  0.0738  0.0757  0.0929
 8468TIP3    H149599   6.605   2.440   1.376 -0.0667 -0.5499 -1.5527
 8468TIP3    H249600   6.465   2.441   1.318 -1.2566  0.6794  1.1845
 8469TIP3   OH249601   6.855   5.320   9.596  0.5136  0.6230 -0.0036
 8469TIP3    H149602   6.867   5.349   9.686  1.5863 -0.8241  0.3705
 8469TIP3    H249603   6.789   5.251   9.602  0.8538  0.2657 -0.2390
 8470TIP3   OH249604   3.166   1.783   1.213 -0.0697 -0.0379 -0.5274
 8470TIP3    H149605   3.100   1.761   1.147  0.6322 -1.2192 -0.8675
 8470TIP3    H249606   3.181   1.877   1.201 -1.8271  0.3232 -0.2847
 8471TIP3   OH249607   4.191   4.467   9.877 -0.6303 -0.1628 -0.2821
 8471TIP3    H149608   4.122   4.478   9.942 -0.6076 -0.8729 -0.1282
 8471TIP3    H249609   4.170   4.530   9.808 -0.5158  0.7644  0.5199
 8472TIP3   OH249610   1.522   0.163   1.937  0.4712  0.0317  0.1924
 8472TIP3    H149611   1.567   0.118   1.865 -1.1937  1.2311 -1.7170
 8472TIP3    H249612   1.430   0.163   1.911 -0.1946  0.4894  2.3803
 8473TIP3   OH249613   3.544   3.878   9.780 -0.0323 -0.0509 -0.2916
 8473TIP3    H149614   3.462   3.891   9.828  0.2032  1.8707 -0.3096
 8473TIP3    H249615   3.528   3.802   9.724 -0.9960 -1.1235  1.3533
 8474TIP3   OH249616   0.831   4.679   0.203 -0.3400  0.0120 -0.1421
 8474TIP3    H149617   0.810   4.589   0.229 -0.0890 -0.1130 -0.3668
 8474TIP3    H249618   0.773   4.696   0.129  0.3701 -0.3540 -0.7997
 8475TIP3   OH249619   4.559   7.051   8.593 -0.4239  0.1267 -0.0439
 8475TIP3    H149620   4.609   7.098   8.660  0.2199  1.9739 -1.7117
 8475TIP3    H249621   4.481   7.105   8.579 -0.9428 -0.6540 -0.2519
 8476TIP3   OH249622   7.606   3.182   2.036  0.5997  0.1904  0.4071
 8476TIP3    H149623   7.584   3.247   1.970  0.1782 -0.5200 -0.1732
 8476TIP3    H249624   7.663   3.120   1.991 -1.1143 -1.2924  0.1415
 8477TIP3   OH249625   4.578   2.973   0.818 -0.2837 -0.5544 -0.0020
 8477TIP3    H149626   4.487   2.955   0.842 -0.6011 -1.5607 -1.7553
 8477TIP3    H249627   4.608   3.036   0.883 -1.5253 -1.8706  1.9636
 8478TIP3   OH249628   7.355   2.606   8.669 -0.0577 -0.3843 -0.2212
 8478TIP3    H149629   7.354   2.695   8.632  0.9954 -0.1900  0.1799
 8478TIP3    H249630   7.271   2.568   8.642 -0.1267  0.4042 -1.1973
 8479TIP3   OH249631   5.241   5.032   0.285 -0.6368  0.1266  0.1675
 8479TIP3    H149632   5.313   4.992   0.237  1.5516  0.6269  2.8023
 8479TIP3    H249633   5.189   4.957   0.315 -0.3058 -0.3349 -0.3807
 8480TIP3   OH249634   5.250   6.036   8.962  0.1863  0.1365  0.1642
 8480TIP3    H149635   5.203   6.105   8.915 -1.3077 -1.1037 -0.2383
 8480TIP3    H249636   5.201   6.026   9.043 -0.2399 -1.1301 -0.2300
 8481TIP3   OH249637   2.044   6.501   7.152 -0.2121  0.1504  0.0970
 8481TIP3    H149638   1.985   6.575   7.143 -0.8881 -0.2536  1.0111
 8481TIP3    H249639   2.092   6.497   7.069 -1.7288  0.2746 -0.8137
 8482TIP3   OH249640   1.058   1.065   0.407  0.1121  0.7443 -0.2728
 8482TIP3    H149641   1.058   1.140   0.467 -1.5330  1.2266 -0.8089
 8482TIP3    H249642   1.130   1.083   0.346  1.2259  0.6951  0.9874
 8483TIP3   OH249643   5.057   0.144  10.020 -0.0711  0.5541  0.6034
 8483TIP3    H149644   4.968   0.149   9.985  0.5385  1.7050 -0.9103
 8483TIP3    H249645   5.094   0.231  10.005  1.1995  0.2084  1.5263
 8484TIP3   OH249646   5.783   1.701   2.711 -0.3261  0.1525  0.2119
 8484TIP3    H149647   5.823   1.680   2.796 -0.0922  2.0263  0.5986
 8484TIP3    H249648   5.857   1.705   2.651 -0.0342  2.1578  0.6345
 8485TIP3   OH249649   4.948   3.447   9.712 -0.1667 -0.0549 -0.3122
 8485TIP3    H149650   4.899   3.437   9.793 -0.6886 -0.4052 -0.6613
 8485TIP3    H249651   4.880   3.454   9.644  0.1660  2.8330 -0.4765
 8486TIP3   OH249652   0.840   5.847   3.168 -0.1898 -0.6194  0.0534
 8486TIP3    H149653   0.858   5.875   3.078  1.2937  2.6421  1.1925
 8486TIP3    H249654   0.910   5.785   3.188 -0.2025 -0.9370 -0.8349
 8487TIP3   OH249655   7.634   1.745   9.817 -0.5513 -0.3587  1.0150
 8487TIP3    H149656   7.701   1.705   9.873  2.5994  1.3563 -1.2344
 8487TIP3    H249657   7.657   1.718   9.728 -1.2060  2.4291 -0.1034
 8488TIP3   OH249658   4.774   1.234   8.763  0.2327 -0.2369  0.4567
 8488TIP3    H149659   4.865   1.210   8.747  0.2506 -1.0899  1.6391
 8488TIP3    H249660   4.724   1.185   8.698  0.5359 -0.8197  0.6528
 8489TIP3   OH249661   3.859   1.402   1.047  0.7116  0.3025  0.3176
 8489TIP3    H149662   3.940   1.416   0.999  1.1477  0.2633  1.0398
 8489TIP3    H249663   3.846   1.307   1.045  1.7067  0.0963  1.8258
 8490TIP3   OH249664   6.824   5.751   7.864  0.3005 -0.6133  0.7332
 8490TIP3    H149665   6.785   5.810   7.929 -0.1002 -0.8725  0.7324
 8490TIP3    H249666   6.902   5.797   7.833  0.3602 -0.3765  1.2198
 8491TIP3   OH249667   2.053   5.690   9.991 -0.0134  0.0791  0.1562
 8491TIP3    H149668   1.968   5.652   9.967  0.0895  0.4653 -0.8684
 8491TIP3    H249669   2.113   5.659   9.925 -0.0785  2.5728 -1.2029
 8492TIP3   OH249670  -0.031   6.061   0.584  0.0396 -0.7568  0.8615
 8492TIP3    H149671  -0.084   6.007   0.525 -2.3440  2.6071 -0.4406
 8492TIP3    H249672   0.004   6.000   0.648 -3.3540 -3.6921  0.2629
 8493TIP3   OH249673   0.565   3.616   1.949  0.2219  0.4415  0.0294
 8493TIP3    H149674   0.614   3.597   1.869  0.6088  1.8643 -0.0989
 8493TIP3    H249675   0.487   3.560   1.943  0.3973  0.2895 -1.1880
 8494TIP3   OH249676   4.988   6.773   2.394 -0.0350 -0.7003  0.0291
 8494TIP3    H149677   4.954   6.797   2.480 -2.3541 -0.2309 -0.9592
 8494TIP3    H249678   4.997   6.857   2.348  1.7538 -0.8900 -0.0551
 8495TIP3   OH249679   6.693   4.482   9.051  0.1083 -0.3440  0.5697
 8495TIP3    H149680   6.769   4.540   9.055 -0.4768  0.4196  0.7024
 8495TIP3    H249681   6.706   4.421   9.123  0.2229  0.2520  1.0622
 8496TIP3   OH249682   3.105   1.155   9.889  0.0179  0.2665  0.5069
 8496TIP3    H149683   3.155   1.236   9.879  2.6661 -1.2202  0.5456
 8496TIP3    H249684   3.062   1.164   9.974 -0.8564  2.1329 -0.0799
 8497TIP3   OH249685   7.214   3.611   8.074 -0.0233  0.3276  0.2323
 8497TIP3    H149686   7.120   3.607   8.092  0.1409 -0.1186  1.0110
 8497TIP3    H249687   7.251   3.660   8.147  0.2724  1.1150 -0.4293
 8498TIP3   OH249688   0.145   0.092   0.987 -0.2043  0.0826  0.0992
 8498TIP3    H149689   0.160   0.045   0.905 -1.2154  0.0644 -0.0937
 8498TIP3    H249690   0.176   0.181   0.969 -0.6780  0.1534 -0.4098
 8499TIP3   OH249691   2.660   4.106   1.493 -0.2041  0.3477  0.0883
 8499TIP3    H149692   2.705   4.164   1.431 -0.2735  0.2000 -0.1039
 8499TIP3    H249693   2.573   4.144   1.501 -0.9840 -0.8949 -1.7034
 8500TIP3   OH249694   2.182   6.736   8.419 -0.1206 -0.1096  0.4385
 8500TIP3    H149695   2.177   6.829   8.397 -0.5016 -0.4304 -0.8860
 8500TIP3    H249696   2.099   6.717   8.462 -0.1056  0.1118  0.5720
 8501TIP3   OH249697   1.616   4.963   9.570  0.0039 -0.1731 -0.0631
 8501TIP3    H149698   1.689   4.925   9.619  0.1353  1.9450  1.5280
 8501TIP3    H249699   1.655   5.036   9.521 -0.4733 -1.1201 -1.9534
 8502TIP3   OH249700   0.567   1.075   1.728  0.0397 -0.4218 -0.0899
 8502TIP3    H149701   0.548   1.114   1.643  0.0960 -0.1437  0.0215
 8502TIP3    H249702   0.598   0.987   1.709  0.6353 -0.1503 -0.3959
 8503TIP3   OH249703  -0.038   6.522  -0.012  0.2665 -0.8600  0.2015
 8503TIP3    H149704   0.024   6.577  -0.060 -1.3898  0.4398 -0.5511
 8503TIP3    H249705  -0.023   6.544   0.080  0.2878  0.1512 -0.0341
 8504TIP3   OH249706   0.634   0.433   8.866 -0.7609  0.0164 -0.1381
 8504TIP3    H149707   0.589   0.504   8.819 -2.9326 -0.6092  0.9072
 8504TIP3    H249708   0.711   0.475   8.903 -0.2024  1.0499 -2.2774
 8505TIP3   OH249709   6.321   6.687   2.731  0.3448  0.3439  0.2991
 8505TIP3    H149710   6.322   6.597   2.697  1.4579  0.8019 -0.9606
 8505TIP3    H249711   6.384   6.685   2.803 -0.7922 -0.2376  1.3083
 8506TIP3   OH249712   5.047   2.051   1.289 -0.0232 -0.8352 -0.0322
 8506TIP3    H149713   5.104   2.117   1.250  0.5499 -0.4505  1.3916
 8506TIP3    H249714   4.958   2.084   1.277  0.0951 -0.9543 -1.3830
 8507TIP3   OH249715   6.931   4.686   7.270 -0.7099  0.0698  0.6813
 8507TIP3    H149716   6.940   4.595   7.241  2.5658  0.6902 -0.6697
 8507TIP3    H249717   6.904   4.734   7.192 -0.7434  0.5053  0.9572
 8508TIP3   OH249718   1.700   3.133   1.817 -0.0216  0.0096 -0.2413
 8508TIP3    H149719   1.794   3.122   1.832  0.4042  0.4382 -2.2485
 8508TIP3    H249720   1.695   3.193   1.742 -1.9401  1.0830  0.6797
 8509TIP3   OH249721   6.674   0.893   9.805 -0.0788 -0.2017  0.2240
 8509TIP3    H149722   6.743   0.840   9.765 -1.7198  0.7813 -4.5632
 8509TIP3    H249723   6.617   0.830   9.848  0.5897 -1.7938 -1.1232
 8510TIP3   OH249724   1.337   6.671   0.150 -0.1610  0.1181 -0.6086
 8510TIP3    H149725   1.355   6.743   0.210  0.8765  0.8792 -1.7914
 8510TIP3    H249726   1.285   6.711   0.080 -2.1510 -0.9458  0.1702
 8511TIP3   OH249727   6.842   1.439   8.712 -0.0694  1.2839  0.0895
 8511TIP3    H149728   6.870   1.431   8.803 -0.3583 -1.6781  0.0122
 8511TIP3    H249729   6.871   1.526   8.685  2.7574  1.0850  2.1064
 8512TIP3   OH249730   4.401   7.240   1.192  0.1747 -0.3125  0.6992
 8512TIP3    H149731   4.421   7.229   1.099  3.4094  1.4807  0.9905
 8512TIP3    H249732   4.410   7.153   1.229 -1.9683 -1.2052 -0.7257
 8513TIP3   OH249733   3.546   3.175   6.937  0.4425 -0.1732  0.4922
 8513TIP3    H149734   3.634   3.211   6.947  0.5558  0.4062 -1.8846
 8513TIP3    H249735   3.505   3.228   6.869 -0.4403 -2.6122 -1.0448
 8514TIP3   OH249736   4.196   6.481   7.661 -0.3117 -0.3569 -0.3436
 8514TIP3    H149737   4.200   6.447   7.750  0.0161  1.9590  0.6140
 8514TIP3    H249738   4.287   6.487   7.633 -0.3727 -0.3932 -0.5534
 8515TIP3   OH249739   6.905   6.068   9.045 -0.5193  0.2605  0.2617
 8515TIP3    H149740   6.864   6.115   8.972  0.8444  0.4548 -0.4028
 8515TIP3    H249741   6.878   6.118   9.123  0.9646  2.2768 -0.4251
 8516TIP3   OH249742   3.651   1.512   9.640 -0.2512  0.6620 -0.0613
 8516TIP3    H149743   3.632   1.460   9.719  1.3236  0.2325  0.0820
 8516TIP3    H249744   3.566   1.526   9.599 -0.7334 -2.7401 -0.5173
 8517TIP3   OH249745   6.723   4.951   1.311  0.1615 -0.5975  0.4333
 8517TIP3    H149746   6.777   4.907   1.245 -0.0106  0.3780 -0.3821
 8517TIP3    H249747   6.715   4.887   1.381 -1.2262 -2.4318 -1.2861
 8518TIP3   OH249748   1.002   2.749   7.646  0.0423  0.4620  0.2431
 8518TIP3    H149749   1.013   2.808   7.572 -0.4144 -0.7605 -0.8428
 8518TIP3    H249750   1.043   2.667   7.618 -0.1117 -0.0203  1.3529
 8519TIP3   OH249751   6.275   1.842   7.892 -0.2420  0.0975  0.1167
 8519TIP3    H149752   6.365   1.816   7.874 -0.4423 -0.7627  0.3443
 8519TIP3    H249753   6.280   1.937   7.905  0.4796  0.1978 -0.7860
 8520TIP3   OH249754   4.176   0.274   0.474  0.5317 -0.1111  0.2808
 8520TIP3    H149755   4.236   0.331   0.523 -0.9435  0.7892  1.1108
 8520TIP3    H249756   4.132   0.223   0.542  0.7438 -1.1562 -0.3606
 8521TIP3   OH249757   2.225   3.879   7.760 -0.3588  0.3594 -0.3964
 8521TIP3    H149758   2.242   3.954   7.817 -0.6690 -0.4004  0.7111
 8521TIP3    H249759   2.143   3.842   7.792  0.5152 -1.3132 -0.0098
 8522TIP3   OH249760   1.114   2.153   7.290  0.8313  0.7332  0.1755
 8522TIP3    H149761   1.049   2.183   7.226  1.4284 -1.4542 -1.6189
 8522TIP3    H249762   1.062   2.112   7.359  0.1659  3.2438  1.2623
 8523TIP3   OH249763   3.874   6.693   0.284 -0.4419  0.2439 -0.1214
 8523TIP3    H149764   3.799   6.692   0.343 -1.8027  0.8096 -1.7410
 8523TIP3    H249765   3.888   6.786   0.264 -1.5762 -0.0058 -2.4656
 8524TIP3   OH249766   6.242   3.427   7.670  0.5386 -0.4769 -0.2235
 8524TIP3    H149767   6.208   3.481   7.598  1.0095 -2.9682 -2.4756
 8524TIP3    H249768   6.169   3.418   7.731  0.1024  1.6684 -0.3642
 8525TIP3   OH249769   7.045   6.016   0.573 -0.2027  0.6254 -0.6755
 8525TIP3    H149770   7.009   5.941   0.527  0.8622 -0.2827 -0.0901
 8525TIP3    H249771   7.094   5.978   0.647  1.5135  1.7710 -1.1441
 8526TIP3   OH249772   3.906   6.956   8.629  0.2175 -0.4149 -0.1011
 8526TIP3    H149773   3.971   7.020   8.601  1.9505 -1.5626  1.1081
 8526TIP3    H249774   3.904   6.891   8.558  1.7671 -1.3092  0.6260
 8527TIP3   OH249775   5.986   5.812   9.257  0.3247  0.2008  0.7599
 8527TIP3    H149776   6.035   5.730   9.263  0.4754  0.3462  1.6675
 8527TIP3    H249777   6.051   5.877   9.230  0.5221  0.2801  1.3984
 8528TIP3   OH249778   0.320   4.651   0.925 -0.0454 -0.3497  0.6388
 8528TIP3    H149779   0.393   4.622   0.871 -0.7327 -0.0972 -0.4574
 8528TIP3    H249780   0.277   4.570   0.952 -0.4471 -0.4622 -0.2823
 8529TIP3   OH249781   4.455   1.915   8.581  0.0284  0.0690 -0.3883
 8529TIP3    H149782   4.445   1.873   8.667  1.5212  0.2221 -0.1102
 8529TIP3    H249783   4.372   1.898   8.537 -0.6221 -0.3730  0.9283
 8530TIP3   OH249784   6.850   6.915   7.045 -0.0446 -0.2854  0.5144
 8530TIP3    H149785   6.787   6.861   7.094 -0.6461 -0.0655  0.0007
 8530TIP3    H249786   6.795   6.980   7.001  0.3447 -1.1689 -1.3792
 8531TIP3   OH249787   7.541   5.526   7.295 -0.3268  0.0399 -0.1515
 8531TIP3    H149788   7.592   5.445   7.293 -1.2483 -0.5443 -0.6157
 8531TIP3    H249789   7.462   5.506   7.245 -0.4616  1.3030 -0.4834
 8532TIP3   OH249790   6.536   1.751   2.694  0.2563  0.3696  0.1505
 8532TIP3    H149791   6.457   1.792   2.656 -0.1121 -0.8385 -0.4264
 8532TIP3    H249792   6.568   1.693   2.626  0.5237 -0.6300  1.1045
 8533TIP3   OH249793   4.115   4.473   8.488  0.0822 -0.2379 -0.0218
 8533TIP3    H149794   4.196   4.443   8.527 -0.1519  0.9653  1.4752
 8533TIP3    H249795   4.051   4.474   8.559 -1.5362 -2.0071 -1.3343
 8534TIP3   OH249796   1.330   4.390   7.974  0.2291  0.3601 -0.8855
 8534TIP3    H149797   1.347   4.484   7.968  0.3141  0.4590  0.6793
 8534TIP3    H249798   1.407   4.355   8.019 -1.2772  0.0547  1.5762
 8535TIP3   OH249799   6.137   3.383   0.568 -0.4292 -0.0381  0.4685
 8535TIP3    H149800   6.137   3.447   0.639 -1.9200 -0.5636  0.9697
 8535TIP3    H249801   6.158   3.300   0.609 -0.6421 -0.2356  0.1848
 8536TIP3   OH249802   3.538   3.368   8.773 -0.1960  0.4816 -0.1401
 8536TIP3    H149803   3.507   3.283   8.803  0.1495 -0.2074 -1.6238
 8536TIP3    H249804   3.460   3.423   8.773 -0.3382  0.3068  1.2561
 8537TIP3   OH249805   3.473   6.329   9.332  0.2051  0.3619 -0.4521
 8537TIP3    H149806   3.488   6.235   9.337  0.1209  0.3034 -1.1432
 8537TIP3    H249807   3.536   6.367   9.393  1.8228  0.0006 -1.8211
 8538TIP3   OH249808   6.968   0.324   9.065 -0.3687  0.3655 -0.1857
 8538TIP3    H149809   6.933   0.276   8.989 -0.4091 -0.0889  0.1173
 8538TIP3    H249810   7.023   0.392   9.026 -0.4149  0.1581 -0.6265
 8539TIP3   OH249811   6.848   1.402   2.024  0.5673  0.5423  0.0993
 8539TIP3    H149812   6.887   1.446   1.948  1.7820  2.1838  1.5696
 8539TIP3    H249813   6.881   1.452   2.099 -0.6945 -0.9286  1.7036
 8540TIP3   OH249814   4.599   4.084   8.429 -0.3029 -0.2981 -0.1550
 8540TIP3    H149815   4.688   4.067   8.460 -0.3024  0.5177  0.3508
 8540TIP3    H249816   4.543   4.036   8.490 -0.2485  0.1914  0.2873
 8541TIP3   OH249817   4.970   7.471   1.590 -0.4007 -0.0044 -0.4017
 8541TIP3    H149818   5.028   7.485   1.515 -1.1735  0.1680 -0.9708
 8541TIP3    H249819   4.924   7.390   1.571 -0.0829 -0.3409  0.2303
 8542TIP3   OH249820   0.261   5.462   9.488 -0.1673  0.1067  0.0369
 8542TIP3    H149821   0.260   5.436   9.580  0.4029 -0.5184 -0.1233
 8542TIP3    H249822   0.240   5.383   9.439  0.4363  0.2026 -0.4065
 8543TIP3   OH249823   4.105   0.179   2.316 -0.0175  0.3022 -0.1268
 8543TIP3    H149824   4.143   0.164   2.402 -1.6832  0.4469  0.6796
 8543TIP3    H249825   4.010   0.182   2.332 -0.2672  2.7246 -1.5784
 8544TIP3   OH249826   0.751   2.673   9.413 -0.2162 -0.0180  0.1770
 8544TIP3    H149827   0.824   2.702   9.468 -0.0464 -0.8657  0.4118
 8544TIP3    H249828   0.793   2.628   9.340 -0.4405  1.1189 -0.6828
 8545TIP3   OH249829   1.244   0.130   1.335 -0.1910  0.2701 -0.4181
 8545TIP3    H149830   1.161   0.083   1.351 -0.1108  0.2986  0.0994
 8545TIP3    H249831   1.217   0.220   1.315 -0.2710  0.3747  0.1383
 8546TIP3   OH249832   5.364   1.932   9.959  0.1358  0.5793 -0.3890
 8546TIP3    H149833   5.324   1.907  10.043  0.1674  0.2735 -0.4633
 8546TIP3    H249834   5.424   2.004   9.982 -0.0442  0.6670 -0.1899
 8547TIP3   OH249835   7.719   3.694   7.333  0.4488 -0.1024 -0.1888
 8547TIP3    H149836   7.664   3.770   7.354  1.9093  1.4664 -1.6760
 8547TIP3    H249837   7.658   3.626   7.306 -0.8598  0.8456  0.2856
 8548TIP3   OH249838   4.478   7.091   0.948  0.4119  0.1594 -0.1899
 8548TIP3    H149839   4.502   7.004   0.918 -2.0343 -0.3920 -0.8045
 8548TIP3    H249840   4.434   7.132   0.873 -0.7404  0.9211  0.8413
 8549TIP3   OH249841   6.242   5.928   9.250 -0.2925  0.6854  0.4298
 8549TIP3    H149842   6.281   6.015   9.255  2.4573 -0.4137 -0.0642
 8549TIP3    H249843   6.223   5.905   9.342  2.0418  0.5978  0.9606
 8550TIP3   OH249844   0.981   7.324   0.114  0.5181  0.4070  0.3665
 8550TIP3    H149845   1.017   7.268   0.046 -1.2549 -2.1750  1.3743
 8550TIP3    H249846   0.927   7.387   0.067 -1.3737 -1.8549 -0.7390
 8551TIP3   OH249847   2.107   6.268   3.328 -0.1562  0.0659 -0.2219
 8551TIP3    H149848   2.061   6.216   3.263 -0.0317  1.6909 -1.6774
 8551TIP3    H249849   2.047   6.272   3.403 -1.4501  0.3116 -1.2410
 8552TIP3   OH249850   6.286   5.798   0.897  0.5211 -0.0856 -0.6808
 8552TIP3    H149851   6.287   5.768   0.988  0.4709 -1.4303 -1.1004
 8552TIP3    H249852   6.215   5.863   0.894 -0.3121 -0.9333 -0.0307
 8553TIP3   OH249853   1.719   6.204   6.966  0.1844  0.3875  0.0379
 8553TIP3    H149854   1.649   6.262   6.936 -0.7177 -0.3855  0.5879
 8553TIP3    H249855   1.798   6.258   6.963  0.0429  0.6087 -2.9023
 8554TIP3   OH249856   2.286   3.328   2.922 -0.0626  0.3757  0.5512
 8554TIP3    H149857   2.276   3.236   2.946 -0.0082  0.1788 -0.1476
 8554TIP3    H249858   2.203   3.351   2.880  0.7521 -0.0370 -1.3915
 8555TIP3   OH249859   0.241   3.129   9.357  0.1430  0.4327  0.3122
 8555TIP3    H149860   0.312   3.133   9.293  0.0042  0.2788  0.1480
 8555TIP3    H249861   0.201   3.043   9.343  0.9537 -0.1688  1.5006
 8556TIP3   OH249862   0.950   6.716   9.950 -0.1750 -0.1289 -0.4260
 8556TIP3    H149863   0.854   6.719   9.954 -0.1611  0.1064 -0.2083
 8556TIP3    H249864   0.969   6.679   9.864 -0.4635 -0.4209 -0.3655
 8557TIP3   OH249865   0.887   7.324   7.548  0.5126 -0.6796  0.0565
 8557TIP3    H149866   0.902   7.386   7.477  0.9662 -1.7945 -0.8510
 8557TIP3    H249867   0.954   7.345   7.613  0.8933 -0.4604 -0.4057
 8558TIP3   OH249868   4.355   0.597   1.828  0.2750 -0.2765 -0.1420
 8558TIP3    H149869   4.311   0.680   1.842 -0.4460 -0.4161 -1.3990
 8558TIP3    H249870   4.286   0.531   1.837  0.7090 -0.6951  0.2037
 8559TIP3   OH249871   1.471   1.114   1.442 -0.0133  0.2035  0.1645
 8559TIP3    H149872   1.529   1.137   1.514  0.0909 -0.7250  0.3876
 8559TIP3    H249873   1.401   1.178   1.446  1.2797  1.7363 -0.4787
 8560TIP3   OH249874   6.660   5.240   0.023  0.1518 -0.1220 -0.2384
 8560TIP3    H149875   6.723   5.303  -0.012  0.6806 -0.1165  0.6845
 8560TIP3    H249876   6.628   5.280   0.104 -0.9946 -0.1603 -0.6620
 8561TIP3   OH249877   5.090   4.872   8.034  0.0378 -0.4923 -1.0557
 8561TIP3    H149878   5.077   4.857   7.941  0.8476  0.8203 -1.4074
 8561TIP3    H249879   5.003   4.894   8.068 -0.3320 -1.3914 -1.4006
 8562TIP3   OH249880   7.288   4.286   3.269 -0.5966  0.1607  0.2462
 8562TIP3    H149881   7.337   4.316   3.192 -0.4756  0.2617  0.3637
 8562TIP3    H249882   7.350   4.290   3.341  0.0493 -2.3810 -0.0977
 8563TIP3   OH249883   7.092   1.638   8.865 -0.0164 -0.7821 -0.3771
 8563TIP3    H149884   7.112   1.550   8.898  1.0667  0.2286  1.9140
 8563TIP3    H249885   7.174   1.686   8.877 -0.2564  0.3034 -2.6157
 8564TIP3   OH249886   2.731   1.956   2.769  0.3454  0.0850  0.4275
 8564TIP3    H149887   2.775   1.937   2.852  0.3130  0.0801  0.4436
 8564TIP3    H249888   2.664   1.887   2.761 -1.2017  1.3792  1.5142
 8565TIP3   OH249889   0.785   7.015   0.486  0.8222  0.5467 -0.4663
 8565TIP3    H149890   0.800   6.923   0.507 -0.9740  0.0214 -1.2938
 8565TIP3    H249891   0.818   7.026   0.396 -1.3397 -0.0156 -1.3883
 8566TIP3   OH249892   1.175   3.780   9.957  0.1890 -0.0755  0.1838
 8566TIP3    H149893   1.193   3.831   9.878 -1.4295  2.0020  1.0524
 8566TIP3    H249894   1.091   3.737   9.940 -0.6344  1.1114  1.0289
 8567TIP3   OH249895   2.112   1.862   2.359 -0.2936  0.5068 -0.4968
 8567TIP3    H149896   2.152   1.787   2.403 -0.2890  0.1917 -1.0356
 8567TIP3    H249897   2.186   1.910   2.322 -0.1982  1.3665  0.7347
 8568TIP3   OH249898   5.943   2.693   8.393  0.0820 -0.0755  0.0067
 8568TIP3    H149899   5.860   2.740   8.389 -0.5058 -0.9520  1.2696
 8568TIP3    H249900   5.919   2.605   8.424  1.4878 -0.3078  0.5051
 8569TIP3   OH249901   1.516   3.985   7.960  0.5641 -0.0127  0.1125
 8569TIP3    H149902   1.446   3.978   7.895  0.2990 -0.6323  0.4492
 8569TIP3    H249903   1.591   3.940   7.920  0.3817 -0.4497  0.2567
 8570TIP3   OH249904   0.598   7.373   2.330 -0.4854 -0.2531 -0.5142
 8570TIP3    H149905   0.563   7.460   2.351  1.3251  0.0967  1.4186
 8570TIP3    H249906   0.578   7.361   2.238 -1.1955  2.0298 -0.7354
 8571TIP3   OH249907   5.817   6.353   9.380 -0.2493 -0.2224  0.0230
 8571TIP3    H149908   5.875   6.277   9.382 -0.8524 -0.8254  4.2780
 8571TIP3    H249909   5.729   6.316   9.385 -0.5878  0.7070  1.4382
 8572TIP3   OH249910   4.607   5.938   7.328  0.2485  0.2220  0.4309
 8572TIP3    H149911   4.638   5.864   7.275  0.4252  1.5229 -1.3927
 8572TIP3    H249912   4.522   5.910   7.362 -0.6911 -0.1124 -1.9812
 8573TIP3   OH249913   2.968   4.301   9.191  0.3833 -0.6922 -0.0502
 8573TIP3    H149914   2.993   4.214   9.161  3.3256  0.0405 -0.0371
 8573TIP3    H249915   2.968   4.355   9.112 -2.6834 -0.8567 -0.2704
 8574TIP3   OH249916   5.970   1.781   6.907  0.1323  0.2330 -0.2259
 8574TIP3    H149917   5.982   1.854   6.846 -0.4738  0.8646  0.3962
 8574TIP3    H249918   6.052   1.731   6.900 -0.5260 -0.6521 -2.7529
 8575TIP3   OH249919   1.330   3.081   2.113 -0.3367  0.4248  0.2782
 8575TIP3    H149920   1.393   3.125   2.170  1.9371  0.1806 -1.8638
 8575TIP3    H249921   1.329   2.990   2.143  0.9510  0.2665 -0.1062
 8576TIP3   OH249922   0.606   5.824   7.942  0.3754  0.1762 -0.0050
 8576TIP3    H149923   0.606   5.884   7.868  1.0574  1.5983  1.0934
 8576TIP3    H249924   0.615   5.881   8.019 -3.0063 -0.9894  1.4199
 8577TIP3   OH249925   7.307   2.594   1.504 -0.4526  0.2831 -0.4031
 8577TIP3    H149926   7.282   2.563   1.591  1.2725  2.0926  0.8480
 8577TIP3    H249927   7.297   2.689   1.509  1.5219  0.6201 -1.4900
 8578TIP3   OH249928   1.449   2.645   9.318 -0.1239 -1.1833 -0.7521
 8578TIP3    H149929   1.449   2.622   9.411 -0.0073  2.3255  0.2411
 8578TIP3    H249930   1.538   2.675   9.301 -0.4790 -0.6246 -1.6878
 8579TIP3   OH249931   5.961   4.204   0.254  0.5699 -0.0961 -0.3051
 8579TIP3    H149932   6.017   4.132   0.227  0.8503  0.1432 -0.3632
 8579TIP3    H249933   5.986   4.277   0.196  1.0275  0.3648  0.4645
 8580TIP3   OH249934   4.580   0.887   1.208  0.0187 -0.1510  0.3173
 8580TIP3    H149935   4.598   0.802   1.249  0.8684 -0.7073 -1.1352
 8580TIP3    H249936   4.649   0.897   1.142  0.4626  2.0745  1.0143
 8581TIP3   OH249937   1.346   2.572   1.014  0.2497 -0.4032  0.3814
 8581TIP3    H149938   1.402   2.629   0.962  0.1279 -1.8064 -1.3908
 8581TIP3    H249939   1.262   2.618   1.019  0.0762 -0.4984 -1.2291
 8582TIP3   OH249940   1.243   7.478   9.587 -0.0178 -0.8161 -0.1009
 8582TIP3    H149941   1.269   7.565   9.617 -3.0053  0.3995 -0.6825
 8582TIP3    H249942   1.324   7.427   9.588  1.4737  1.3564  2.2374
 8583TIP3   OH249943   6.648   4.274   8.629  0.0490 -0.2231 -0.0210
 8583TIP3    H149944   6.717   4.325   8.673  0.0990 -0.6004  0.3360
 8583TIP3    H249945   6.632   4.323   8.548 -0.1810  0.5843  0.4979
 8584TIP3   OH249946   3.479   1.604   1.917 -0.0520 -0.0790 -0.5787
 8584TIP3    H149947   3.524   1.654   1.849 -0.9985  0.0341 -1.1477
 8584TIP3    H249948   3.542   1.598   1.989 -0.2977  3.0188  0.0335
 8585TIP3   OH249949   2.293   1.634   8.060  0.1188 -0.1678 -0.1471
 8585TIP3    H149950   2.363   1.665   8.117  2.2604 -1.0916 -2.1021
 8585TIP3    H249951   2.253   1.714   8.026  0.8113  0.3911  0.3269
 8586TIP3   OH249952   6.782   7.250   8.226  0.2732  0.4448  0.7319
 8586TIP3    H149953   6.721   7.322   8.241  1.9288  1.7973  1.2394
 8586TIP3    H249954   6.820   7.267   8.141 -1.2080 -1.3280 -0.3695
 8587TIP3   OH249955   3.582   3.718   8.718 -0.0611 -0.1146 -0.4912
 8587TIP3    H149956   3.568   3.665   8.639 -1.6251 -0.5146  0.0177
 8587TIP3    H249957   3.658   3.680   8.760 -1.2571 -2.1088 -0.0361
 8588TIP3   OH249958   5.827   7.115   0.716 -0.0271 -0.0958  1.1112
 8588TIP3    H149959   5.775   7.043   0.681 -2.1388  2.0399 -0.4290
 8588TIP3    H249960   5.791   7.130   0.804 -0.5423 -0.0496  0.8965
 8589TIP3   OH249961   1.934   5.423   7.840 -0.1877 -0.2858 -0.8971
 8589TIP3    H149962   1.927   5.394   7.930 -1.9407 -0.1064 -0.9543
 8589TIP3    H249963   1.881   5.361   7.790 -2.4049  1.7851 -1.2689
 8590TIP3   OH249964   1.222   0.600   7.302 -0.1706  0.1200 -0.4716
 8590TIP3    H149965   1.242   0.565   7.389 -0.7543  0.9918  0.0324
 8590TIP3    H249966   1.154   0.666   7.318 -0.0614  0.5151 -1.5548
 8591TIP3   OH249967   6.666   2.694   1.644 -0.6612  0.1364  0.0105
 8591TIP3    H149968   6.599   2.758   1.667 -0.1656  1.1722 -1.3292
 8591TIP3    H249969   6.729   2.743   1.591 -0.0994 -1.3947 -0.7923
 8592TIP3   OH249970   2.893   7.152   0.286 -0.3269 -0.4504  0.7633
 8592TIP3    H149971   2.825   7.182   0.346  2.3302  2.0826  2.7980
 8592TIP3    H249972   2.950   7.097   0.340  0.5835 -0.4927 -0.2048
 8593TIP3   OH249973   5.405   5.248   0.362  0.0798 -0.2371  0.6731
 8593TIP3    H149974   5.486   5.212   0.398  0.5148 -0.3139 -0.3388
 8593TIP3    H249975   5.352   5.172   0.340  0.7904 -0.2937 -0.9951
 8594TIP3   OH249976   7.057   2.075   0.863 -0.1101  0.6737  0.6988
 8594TIP3    H149977   7.099   2.161   0.869  1.1171  0.0900  0.6596
 8594TIP3    H249978   7.090   2.037   0.783  0.0738 -0.2144  1.1841
 8595TIP3   OH249979   0.952   3.935   6.876  0.1375 -0.0661  0.0908
 8595TIP3    H149980   0.929   3.856   6.925 -0.1132  0.5646  1.0082
 8595TIP3    H249981   0.874   3.953   6.823 -1.0316  1.2657  2.1489
 8596TIP3   OH249982   4.780   4.295   8.045  0.1203  0.1413 -0.2413
 8596TIP3    H149983   4.767   4.360   8.113  0.9411  1.2595 -1.1157
 8596TIP3    H249984   4.723   4.222   8.070 -0.7436  1.1443  0.8111
 8597TIP3   OH249985   6.744   0.417   9.194 -0.0031 -0.5547 -0.8569
 8597TIP3    H149986   6.812   0.392   9.131  1.1796  1.5732 -0.5368
 8597TIP3    H249987   6.763   0.509   9.214 -1.0067 -0.8314  1.7609
 8598TIP3   OH249988   2.520   7.119   1.341 -0.0552 -0.2582  0.0040
 8598TIP3    H149989   2.550   7.086   1.426  0.4944  0.8018  0.2450
 8598TIP3    H249990   2.486   7.207   1.360 -0.4217 -0.2190 -0.7897
 8599TIP3   OH249991   5.800   6.430   9.002 -0.4140  0.4471 -0.2553
 8599TIP3    H149992   5.881   6.449   8.955  0.5009  1.1169  1.4848
 8599TIP3    H249993   5.805   6.336   9.019  0.9693  0.7609  1.4163
 8600TIP3   OH249994   6.126   4.725   7.156  0.2887 -0.5124  0.0720
 8600TIP3    H149995   6.210   4.758   7.122 -0.3991  1.0048 -0.2266
 8600TIP3    H249996   6.066   4.800   7.148 -0.6427 -1.0137  1.9445
 8601TIP3   OH249997   5.082   5.729   7.965  0.6112 -0.0065 -0.0026
 8601TIP3    H149998   5.136   5.770   8.032  0.0585 -0.7358  0.9069
 8601TIP3    H249999   4.993   5.731   7.999  0.1005  0.7478 -1.2834
 8602TIP3   OH250000   2.515   0.227   7.836 -0.0430  0.8055 -0.3516
 8602TIP3    H150001   2.551   0.313   7.855 -0.4151  1.1786 -1.2858
 8602TIP3    H250002   2.556   0.201   7.754  0.0713  0.0848 -0.0758
 8603TIP3   OH250003   1.198   6.125   7.934  0.3841  0.3753 -0.4083
 8603TIP3    H150004   1.289   6.138   7.906 -0.3250  1.5247 -2.4036
 8603TIP3    H250005   1.180   6.034   7.912  0.6241  0.5634 -1.4869
 8604TIP3   OH250006   2.309   1.516   1.467  0.2090  0.1122  0.5640
 8604TIP3    H150007   2.348   1.565   1.539 -0.6500  0.5052  0.7855
 8604TIP3    H250008   2.236   1.468   1.508  0.5545 -0.7425  0.2015
 8605TIP3   OH250009   6.936   0.791   9.689  0.3590 -0.4296  0.1333
 8605TIP3    H150010   7.027   0.786   9.718 -0.0389  1.8165  2.0330
 8605TIP3    H250011   6.937   0.849   9.613  0.3245  1.3446  1.4337
 8606TIP3   OH250012   5.935   6.984   8.313 -0.1092  0.4055  0.2348
 8606TIP3    H150013   5.899   7.071   8.296 -0.2846  0.3005  0.0602
 8606TIP3    H250014   5.859   6.932   8.341 -0.7749 -0.6555 -3.1015
 8607TIP3   OH250015   4.995   1.573   9.832 -0.6273 -0.4661 -0.1961
 8607TIP3    H150016   5.022   1.481   9.841 -0.8412 -0.7892 -2.3275
 8607TIP3    H250017   5.077   1.620   9.818 -0.6539 -0.5805 -0.7502
 8608TIP3   OH250018   1.808   3.588   1.936  0.5608 -0.4731 -0.2219
 8608TIP3    H150019   1.805   3.566   2.029 -0.5854  0.0899 -0.1187
 8608TIP3    H250020   1.827   3.681   1.934 -1.5675 -0.0168 -0.4830
 8609TIP3   OH250021   5.928   6.883   0.933  0.0224  0.4530 -0.2042
 8609TIP3    H150022   5.911   6.789   0.945 -1.4672  0.7148  0.0112
 8609TIP3    H250023   5.977   6.889   0.851  0.2706 -0.5167 -0.1421
 8610TIP3   OH250024   4.735   0.768   0.817 -0.1445 -0.0989 -0.2595
 8610TIP3    H150025   4.787   0.791   0.741  0.2456 -0.4104 -0.0894
 8610TIP3    H250026   4.645   0.768   0.785 -0.1777  1.6744 -0.2632
 8611TIP3   OH250027   3.350   0.916   7.655 -0.0870  0.8539 -0.1097
 8611TIP3    H150028   3.353   1.011   7.644 -2.8017  1.2643  1.6586
 8611TIP3    H250029   3.286   0.902   7.725 -1.0870 -2.3451 -1.4803
 8612TIP3   OH250030   2.450   4.902   0.388 -0.3161  0.1323 -0.3747
 8612TIP3    H150031   2.408   4.827   0.429 -0.7398 -0.1736 -1.3416
 8612TIP3    H250032   2.492   4.867   0.309  1.9834  0.3849  0.6557
 8613TIP3   OH250033   4.002   0.344   0.062 -0.1951  0.6315 -0.1158
 8613TIP3    H150034   4.008   0.306  -0.026  0.0822 -0.2135  0.2657
 8613TIP3    H250035   3.910   0.369   0.071 -1.1030 -2.5712  0.6753
 8614TIP3   OH250036   4.101   0.471   7.210 -0.4906 -0.1967  0.1111
 8614TIP3    H150037   4.130   0.471   7.301 -0.4401  0.8077  0.1090
 8614TIP3    H250038   4.113   0.562   7.181 -1.6691 -0.2219 -0.5245
 8615TIP3   OH250039   1.097   3.703   8.198 -0.5628  0.5648  0.4773
 8615TIP3    H150040   1.059   3.759   8.265 -0.0814  0.1256  1.1305
 8615TIP3    H250041   1.154   3.761   8.148 -0.0490  0.6644  1.1652
 8616TIP3   OH250042   1.881   2.101   8.754 -0.5970  0.4456 -0.5347
 8616TIP3    H150043   1.809   2.117   8.815  0.0836  0.7309  0.2106
 8616TIP3    H250044   1.946   2.054   8.805 -0.7842 -0.9956 -1.5603
 8617TIP3   OH250045   2.012   4.848   1.767 -0.5122  0.3333  0.2858
 8617TIP3    H150046   1.953   4.918   1.739  1.2881  1.6859 -0.3247
 8617TIP3    H250047   2.029   4.866   1.859  0.3118  1.0045  0.0133
 8618TIP3   OH250048   3.075   7.648   1.136  0.0699  0.5635  0.1710
 8618TIP3    H150049   3.037   7.572   1.092 -1.2635  0.6007  1.2169
 8618TIP3    H250050   3.080   7.624   1.228 -0.5381  1.7974  0.5483
 8619TIP3   OH250051   0.992   6.869   2.155  0.2535  0.0044 -0.2008
 8619TIP3    H150052   0.920   6.840   2.211 -0.0057  1.8672  0.4843
 8619TIP3    H250053   1.057   6.904   2.216  1.5626 -1.1552 -0.8445
 8620TIP3   OH250054   3.196   7.168   9.365  0.4685  0.0297 -0.4556
 8620TIP3    H150055   3.194   7.122   9.281  0.3141  1.2544 -1.1487
 8620TIP3    H250056   3.155   7.108   9.426  0.4985 -0.8525 -1.2724
 8621TIP3   OH250057   3.104   0.185   9.895 -0.2764  0.6615 -0.2649
 8621TIP3    H150058   3.155   0.239   9.955  1.2598 -0.8290 -0.1506
 8621TIP3    H250059   3.164   0.114   9.870 -1.7781 -0.2553 -1.4233
 8622TIP3   OH250060   0.911   5.785   0.779 -0.1146  0.2760  0.1155
 8622TIP3    H150061   0.844   5.744   0.723  1.2145 -0.1924 -1.2196
 8622TIP3    H250062   0.992   5.741   0.754  0.8722  1.5901  0.9022
 8623TIP3   OH250063   6.974   6.338   0.057 -0.1551  0.0592 -0.3053
 8623TIP3    H150064   7.009   6.282  -0.013  0.8922 -0.1004  0.3245
 8623TIP3    H250065   7.038   6.408   0.066 -1.3109  1.2180 -0.8775
 8624TIP3   OH250066   6.454   3.574   2.038  0.4835  0.3196 -0.0040
 8624TIP3    H150067   6.484   3.659   2.070  0.8636 -0.0058  0.5209
 8624TIP3    H250068   6.430   3.526   2.118  2.1792 -0.7925 -0.1200
 8625TIP3   OH250069   2.091   2.080   8.011  0.3079  0.1129 -0.3348
 8625TIP3    H150070   2.173   2.100   8.056  1.5282  0.3248 -2.4761
 8625TIP3    H250071   2.108   1.998   7.965 -1.2174 -0.6187  0.3699
 8626TIP3   OH250072   5.593   1.805   2.351  0.2857  0.3458 -0.6037
 8626TIP3    H150073   5.585   1.897   2.376  0.4254  0.6254 -1.5472
 8626TIP3    H250074   5.566   1.803   2.259  1.3704 -0.3609 -0.9235
 8627TIP3   OH250075   1.070   0.153   0.181 -0.2900  0.1993  0.1414
 8627TIP3    H150076   1.079   0.157   0.086 -0.3141  0.4255  0.1473
 8627TIP3    H250077   1.125   0.224   0.213  0.7783 -0.7100  0.3712
 8628TIP3   OH250078   2.587   0.527   7.886  0.2623  0.3769  0.2328
 8628TIP3    H150079   2.616   0.616   7.909  2.4586 -0.0233 -0.7185
 8628TIP3    H250080   2.668   0.478   7.875 -0.8775 -1.3793 -0.7292
 8629TIP3   OH250081   4.631   6.162   7.869  0.3861 -0.5557 -0.6317
 8629TIP3    H150082   4.547   6.176   7.825  1.3221 -0.4729 -2.4522
 8629TIP3    H250083   4.607   6.153   7.962 -1.7325 -1.4601 -1.1945
 8630TIP3   OH250084   1.903   0.188   8.716  0.3610 -0.2234 -0.0089
 8630TIP3    H150085   1.980   0.244   8.714 -0.3319  0.7244 -0.5659
 8630TIP3    H250086   1.837   0.239   8.762 -0.2237 -0.6502 -0.3606
 8631TIP3   OH250087   6.615   4.697   8.095 -0.2291 -0.3554 -0.5055
 8631TIP3    H150088   6.613   4.792   8.101 -0.4150 -0.4499  1.4209
 8631TIP3    H250089   6.701   4.672   8.130  0.1077 -0.8900 -1.6373
 8632TIP3   OH250090   1.442   7.344   2.812  0.1844 -0.1690  0.3063
 8632TIP3    H150091   1.403   7.277   2.756 -0.4616  0.8890 -0.5447
 8632TIP3    H250092   1.382   7.351   2.886  0.3622 -0.6636  0.5021
 8633TIP3   OH250093   3.851   6.812   8.392 -0.1013  0.6089  0.3276
 8633TIP3    H150094   3.782   6.748   8.374  1.2107 -1.0433  0.9250
 8633TIP3    H250095   3.927   6.778   8.345  0.6384  1.7441  0.6816
 8634TIP3   OH250096   2.948   0.600   0.248 -0.4194 -0.3255 -0.1032
 8634TIP3    H150097   2.980   0.510   0.242 -3.0235 -1.2544 -2.5645
 8634TIP3    H250098   2.893   0.601   0.326  3.6861  0.7876  3.0804
 8635TIP3   OH250099   1.971   6.856   7.185  0.4321 -0.2302  0.2448
 8635TIP3    H150100   2.062   6.871   7.160  0.3332 -0.3303 -0.1839
 8635TIP3    H250101   1.938   6.942   7.210  0.6125 -0.1750  0.2913
 8636TIP3   OH250102   1.992   5.730   7.965 -0.1538 -0.1143 -0.4012
 8636TIP3    H150103   2.050   5.661   7.997  1.5346  1.2706 -0.2616
 8636TIP3    H250104   1.937   5.688   7.899  1.8171 -1.2863 -1.3906
 8637TIP3   OH250105   1.538   0.841   7.951 -0.2496  0.1085 -0.4625
 8637TIP3    H150106   1.595   0.768   7.925 -1.6987 -1.0623 -0.4746
 8637TIP3    H250107   1.527   0.893   7.872  0.7427  0.3233 -0.4721
 8638TIP3   OH250108   7.342   2.739   7.652  0.9288 -0.1383 -0.4336
 8638TIP3    H150109   7.298   2.693   7.581  1.8709  0.2872 -1.3125
 8638TIP3    H250110   7.423   2.691   7.666  1.7003  0.9641 -1.0393
 8639TIP3   OH250111   1.675   3.192   2.091 -0.6303  0.0283 -0.1565
 8639TIP3    H150112   1.716   3.278   2.078 -0.2864 -0.3538 -1.8045
 8639TIP3    H250113   1.641   3.169   2.004 -0.5884 -1.5656  0.2347
 8640TIP3   OH250114   5.229   2.176   7.969  0.5559 -0.6418  0.1467
 8640TIP3    H150115   5.303   2.181   8.029  0.0596 -1.7402  0.8849
 8640TIP3    H250116   5.204   2.267   7.953  2.1787 -0.2324 -0.2783
 8641TIP3   OH250117   1.233   2.932   7.498 -0.4983 -0.1087  0.8192
 8641TIP3    H150118   1.282   2.859   7.536  1.9112 -0.4475 -2.4548
 8641TIP3    H250119   1.193   2.895   7.419 -0.6014  1.7268 -0.0320
 8642TIP3   OH250120   3.397   2.573   8.094 -0.5430 -0.5757 -0.3831
 8642TIP3    H150121   3.381   2.579   8.188 -0.6638 -0.7793 -0.3905
 8642TIP3    H250122   3.468   2.636   8.078  0.3522 -1.4447  0.0481
 8643TIP3   OH250123   0.640   1.990   9.743  0.6897 -0.2295  0.3590
 8643TIP3    H150124   0.626   2.065   9.685 -3.6684  0.0559  1.4223
 8643TIP3    H250125   0.668   2.029   9.826  2.1509 -0.1960 -0.1270
 8644TIP3   OH250126   4.216   4.922   9.426  0.2628  0.0125  0.2658
 8644TIP3    H150127   4.235   4.889   9.514 -0.1464  1.3599  0.8779
 8644TIP3    H250128   4.300   4.958   9.396  0.2619  0.0809  0.3441
 8645TIP3   OH250129   5.030   5.049   7.119  0.2988 -0.0416  0.6640
 8645TIP3    H150130   5.033   5.144   7.125 -2.1711  0.5653 -3.5534
 8645TIP3    H250131   5.081   5.028   7.041  0.4167 -2.1828  1.2512
 8646TIP3   OH250132   4.739   4.992   7.252 -0.3147  0.2759  0.3109
 8646TIP3    H150133   4.791   4.920   7.286  0.9120  0.3955 -1.2147
 8646TIP3    H250134   4.750   4.987   7.157 -0.6017  2.1702  0.1405
 8647TIP3   OH250135   2.401   0.257   9.274 -0.0911  0.0454 -0.1419
 8647TIP3    H150136   2.414   0.191   9.206 -1.4482  1.3396 -1.7706
 8647TIP3    H250137   2.488   0.291   9.291  0.3039 -0.3685 -1.2092
 8648TIP3   OH250138   4.090   6.079   7.776 -0.1294 -0.1998  0.1861
 8648TIP3    H150139   4.062   6.126   7.855  0.2921  0.3216  0.0308
 8648TIP3    H250140   4.023   6.101   7.711  0.7815  1.3460 -0.2910
 8649TIP3   OH250141   6.349   3.818   7.921 -0.3132  0.1455 -0.1556
 8649TIP3    H150142   6.255   3.813   7.905 -0.5087  1.3202  0.5480
 8649TIP3    H250143   6.359   3.890   7.983  1.1296  0.5546 -0.8363
 8650TIP3   OH250144   1.402   3.144   7.386 -0.0366 -0.0830  0.2953
 8650TIP3    H150145   1.471   3.087   7.353 -0.3356  0.2014 -0.8909
 8650TIP3    H250146   1.333   3.084   7.414 -1.6224 -0.4516 -3.6701
 8651TIP3   OH250147   7.688   5.610   1.582 -0.1135  0.5539 -0.2939
 8651TIP3    H150148   7.698   5.613   1.487 -1.4894 -0.6625 -0.5034
 8651TIP3    H250149   7.720   5.523   1.607 -1.4290  0.1679  0.1205
 8652TIP3   OH250150   2.747   7.143   8.409 -0.5522 -0.3888 -0.2404
 8652TIP3    H150151   2.771   7.075   8.472 -0.3409  1.0176  1.2556
 8652TIP3    H250152   2.829   7.187   8.388 -0.5528 -1.0772 -1.8603
 8653TIP3   OH250153   0.442   0.600   8.722 -0.0630 -0.7306 -0.6005
 8653TIP3    H150154   0.397   0.683   8.703  0.9618 -0.3435 -1.4533
 8653TIP3    H250155   0.426   0.546   8.646  1.6083 -0.2562 -1.3505
 8654TIP3   OH250156   1.455   0.145   2.494 -0.6652 -0.7737  0.3614
 8654TIP3    H150157   1.530   0.102   2.452  0.5651  1.3388  0.2438
 8654TIP3    H250158   1.456   0.112   2.584  1.5593  0.4506  0.8802
 8655TIP3   OH250159   0.121   2.642   8.138  0.1167  0.6718 -0.6450
 8655TIP3    H150160   0.045   2.659   8.193  1.2786  1.4035  0.8017
 8655TIP3    H250161   0.098   2.678   8.052 -0.7674  1.7962  0.0510
 8656TIP3   OH250162   6.340   7.212   8.858 -0.1088  0.5325 -0.2309
 8656TIP3    H150163   6.371   7.301   8.873  0.7376  0.3516 -0.8750
 8656TIP3    H250164   6.251   7.212   8.894 -0.1476  1.6546 -0.2900
 8657TIP3   OH250165   5.802   2.481   9.109  0.1224 -0.6958 -0.3965
 8657TIP3    H150166   5.719   2.517   9.139  0.2063 -0.1054 -0.8426
 8657TIP3    H250167   5.808   2.395   9.149 -0.3704 -0.4489  0.2151
 8658TIP3   OH250168   3.650   1.398   8.434 -0.3149  0.0577 -1.0584
 8658TIP3    H150169   3.576   1.339   8.446 -0.8053  0.5436 -1.6393
 8658TIP3    H250170   3.614   1.485   8.449 -0.1848  0.4094 -2.6487
 8659TIP3   OH250171   1.766   5.863   1.096 -0.2960  0.2614 -0.6580
 8659TIP3    H150172   1.743   5.821   1.012 -0.6737 -0.1471 -0.3601
 8659TIP3    H250173   1.688   5.915   1.118 -0.8757 -0.9313  0.2370
 8660TIP3   OH250174   3.587   1.777   1.435 -0.5745 -0.2496 -0.0974
 8660TIP3    H150175   3.610   1.770   1.343  2.0398 -0.1706  0.4799
 8660TIP3    H250176   3.564   1.869   1.447  0.4387  0.0511 -0.4080
 8661TIP3   OH250177   3.218   2.236   8.980 -0.1240  0.9902  0.5893
 8661TIP3    H150178   3.261   2.169   9.033  0.8182  1.4006  0.3625
 8661TIP3    H250179   3.286   2.301   8.962 -1.3214  2.6668  1.8315
 8662TIP3   OH250180   2.949   6.819   0.834  0.3912  0.7803  0.6103
 8662TIP3    H150181   3.018   6.871   0.874  0.4713 -0.4565  2.1794
 8662TIP3    H250182   2.981   6.729   0.838 -0.1939  0.4624 -1.0570
 8663TIP3   OH250183   0.604   7.455   9.312  0.3050 -0.1175 -0.2414
 8663TIP3    H150184   0.518   7.456   9.355  0.6755  1.8257  0.5593
 8663TIP3    H250185   0.594   7.514   9.238  0.9491  0.1312 -0.1360
 8664TIP3   OH250186   6.167   1.077   1.616  0.1184  0.5563  0.0089
 8664TIP3    H150187   6.231   1.007   1.605 -0.1542  0.3497 -0.2816
 8664TIP3    H250188   6.084   1.031   1.630 -0.3892  0.7992 -1.9529
 8665TIP3   OH250189   3.150   3.154   8.705 -1.3407  0.3467 -0.5027
 8665TIP3    H150190   3.093   3.088   8.666 -1.7387  0.0893  0.4647
 8665TIP3    H250191   3.094   3.231   8.716 -1.2934  0.3512 -0.2740
 8666TIP3   OH250192   4.854   7.093   9.150 -0.1301  0.0784  0.7128
 8666TIP3    H150193   4.800   7.014   9.148 -1.4634  0.7304 -4.7435
 8666TIP3    H250194   4.941   7.061   9.176 -1.1631 -2.7141  1.1434
 8667TIP3   OH250195   7.069   6.399   9.485  0.7237 -0.0156  0.3716
 8667TIP3    H150196   7.022   6.337   9.541 -1.2848 -0.8413 -2.0404
 8667TIP3    H250197   7.044   6.485   9.517  0.2996 -0.4478  1.2323
 8668TIP3   OH250198   4.470   5.400   0.107 -0.2788 -0.0120 -0.7134
 8668TIP3    H150199   4.503   5.334   0.168  1.8533  0.7365 -0.9630
 8668TIP3    H250200   4.436   5.470   0.163  1.0677  0.3827 -0.3489
 8669TIP3   OH250201   1.218   7.431   8.345 -0.2540  0.0129 -0.1206
 8669TIP3    H150202   1.123   7.421   8.335 -0.1250 -4.3979  0.8005
 8669TIP3    H250203   1.235   7.401   8.434  1.9786  1.9686  0.2088
 8670TIP3   OH250204   7.667   6.074   8.865  0.7072 -0.1783  0.3560
 8670TIP3    H150205   7.723   6.004   8.831  1.1726 -0.6004  1.8728
 8670TIP3    H250206   7.590   6.029   8.899 -0.0176  0.2871 -0.6273
 8671TIP3   OH250207   0.921   4.639   9.284 -0.0394  0.6465  0.1241
 8671TIP3    H150208   0.872   4.645   9.201 -1.9742 -0.8201  1.0866
 8671TIP3    H250209   0.958   4.551   9.284 -0.3994  0.4847  0.9682
 8672TIP3   OH250210   7.414   2.310   0.520  0.2508 -0.2937  0.2088
 8672TIP3    H150211   7.459   2.320   0.603 -0.1035 -1.3222  0.5460
 8672TIP3    H250212   7.337   2.367   0.526 -0.6360 -1.5463  1.2412
 8673TIP3   OH250213   4.743   6.942   8.304  0.3530  0.1479  0.5583
 8673TIP3    H150214   4.722   6.905   8.389 -0.1559 -0.6804  0.0950
 8673TIP3    H250215   4.822   6.896   8.276 -1.3458 -2.1700 -0.8797
 8674TIP3   OH250216   1.052   3.639   9.714 -0.3607 -0.1007 -0.0345
 8674TIP3    H150217   0.999   3.620   9.792 -1.1361 -1.0644 -0.7715
 8674TIP3    H250218   0.987   3.661   9.647  0.2075 -0.6189 -0.7645
 8675TIP3   OH250219   0.063   5.179   8.046  0.0837 -0.1346  0.2380
 8675TIP3    H150220   0.038   5.100   8.094  0.7246 -0.1957  0.4842
 8675TIP3    H250221   0.131   5.219   8.101 -0.9052  1.1018  0.5985
 8676TIP3   OH250222   2.086   2.144   7.289 -0.2463 -0.5271  0.3867
 8676TIP3    H150223   2.145   2.205   7.246  0.0752 -1.4247 -0.4934
 8676TIP3    H250224   2.010   2.197   7.313  0.3922  0.3846  0.4329
 8677TIP3   OH250225   6.097   2.678   0.926 -0.3930  0.4678  0.3628
 8677TIP3    H150226   6.094   2.618   1.000 -1.3337  0.9506  0.7410
 8677TIP3    H250227   6.140   2.629   0.856 -0.8447 -0.5186  0.7624
 8678TIP3   OH250228   4.802   1.910   0.559 -0.3730  0.1352 -0.7306
 8678TIP3    H150229   4.830   1.827   0.597  2.2156  1.5278  0.5940
 8678TIP3    H250230   4.708   1.914   0.578 -0.0386 -1.2696  1.6085
 8679TIP3   OH250231   1.594   6.901   0.383 -0.2851 -0.2220 -0.0415
 8679TIP3    H150232   1.640   6.906   0.300  1.0171  0.7974  0.6970
 8679TIP3    H250233   1.662   6.918   0.449 -1.8894  2.8340  1.0477
 8680TIP3   OH250234   1.663   4.240   0.734 -0.2710  0.2660  0.5166
 8680TIP3    H150235   1.596   4.293   0.690 -0.4934 -0.5097 -0.1081
 8680TIP3    H250236   1.737   4.299   0.746 -0.2792  0.5508 -0.7281
 8681TIP3   OH250237   5.561   1.415   8.226  0.5643  0.1741 -0.0566
 8681TIP3    H150238   5.566   1.385   8.135 -0.9015  0.3093 -0.2135
 8681TIP3    H250239   5.558   1.334   8.277 -1.8018 -0.0196 -0.3772
 8682TIP3   OH250240   3.112   2.658   1.272  0.3940 -0.0859  0.6598
 8682TIP3    H150241   3.065   2.734   1.238  0.1613 -1.1272 -1.5591
 8682TIP3    H250242   3.204   2.685   1.274  0.3627  0.1579 -0.5175
 8683TIP3   OH250243   4.640   4.438   9.540  0.7566  0.0980  0.3635
 8683TIP3    H150244   4.657   4.511   9.480  0.4851 -1.4357 -1.6998
 8683TIP3    H250245   4.727   4.405   9.562  0.8478 -1.0953 -1.5637
 8684TIP3   OH250246   0.442   3.377   0.428 -0.3762 -0.1216  0.1920
 8684TIP3    H150247   0.411   3.288   0.413 -0.0359 -0.0699 -0.9740
 8684TIP3    H250248   0.534   3.367   0.451 -0.3692 -0.0875  0.1790
 8685TIP3   OH250249   5.255   6.841   9.059 -0.7983  0.2734  0.0990
 8685TIP3    H150250   5.226   6.827   8.968  0.0343 -0.8907 -0.0064
 8685TIP3    H250251   5.262   6.753   9.095  0.0114  0.6723  0.9401
 8686TIP3   OH250252   6.889   2.612   8.352 -0.7737 -0.3003 -0.1451
 8686TIP3    H150253   6.950   2.629   8.423 -0.8829  0.0277 -0.1275
 8686TIP3    H250254   6.861   2.521   8.365 -0.5574 -0.3389  0.0479
 8687TIP3   OH250255   5.826   0.513   7.289  0.4261 -0.1681  0.1861
 8687TIP3    H150256   5.741   0.485   7.323 -0.4204  0.0981 -1.5890
 8687TIP3    H250257   5.867   0.432   7.258 -0.0014 -0.0712 -0.6591
 8688TIP3   OH250258   7.006   1.138   1.922  0.1812  0.0211 -0.6863
 8688TIP3    H150259   7.097   1.114   1.940  0.0224  0.3182  0.6375
 8688TIP3    H250260   7.012   1.221   1.875  0.5945 -0.0813 -0.8210
 8689TIP3   OH250261   5.618   0.934   8.042 -0.1940  0.1910 -0.7401
 8689TIP3    H150262   5.631   0.873   7.970 -0.3694  0.5407 -1.0707
 8689TIP3    H250263   5.687   0.912   8.105 -2.1979 -2.5132  0.6903
 8690TIP3   OH250264   1.585   4.882   8.475  0.2899 -0.4859 -0.6879
 8690TIP3    H150265   1.539   4.953   8.430 -1.9241 -0.4594  1.4162
 8690TIP3    H250266   1.676   4.912   8.479 -0.6988  2.8666  1.0506
 8691TIP3   OH250267   3.083   7.524   1.398  0.2095  0.1529 -0.5242
 8691TIP3    H150268   3.149   7.455   1.395 -0.1406 -0.1545 -1.3721
 8691TIP3    H250269   3.000   7.477   1.406 -0.0426  0.4595 -1.2607
 8692TIP3   OH250270  -0.026   1.957   8.205  0.5022  0.4039  0.2964
 8692TIP3    H150271   0.036   2.000   8.146  0.4803 -0.1559 -0.1427
 8692TIP3    H250272   0.025   1.890   8.249 -0.2194 -1.5201 -1.6348
 8693TIP3   OH250273   6.409   6.153   8.822  0.1791  0.1008  0.0465
 8693TIP3    H150274   6.343   6.085   8.812 -1.7099  1.6791  1.0708
 8693TIP3    H250275   6.418   6.191   8.735  1.0941 -1.2680 -0.4835
 8694TIP3   OH250276   7.178   4.414   0.437  0.4104 -0.3112 -0.1034
 8694TIP3    H150277   7.083   4.416   0.452  0.3079 -1.3095 -0.5488
 8694TIP3    H250278   7.213   4.364   0.510  0.4425 -1.0620 -0.6273
 8695TIP3   OH250279   3.028   6.033   8.871 -0.1095  0.3295 -0.1113
 8695TIP3    H150280   3.081   6.112   8.883  2.7928 -1.5538  0.2361
 8695TIP3    H250281   2.970   6.032   8.948  0.0402  1.8833  0.0617
 8696TIP3   OH250282   6.449   5.942   3.250 -0.0597 -0.4431 -0.6445
 8696TIP3    H150283   6.431   5.949   3.344  0.0030 -0.5984 -0.6208
 8696TIP3    H250284   6.484   6.027   3.226  0.1651 -0.4869 -0.4756
 8697TIP3   OH250285   2.032   0.889   1.529  0.6597 -0.3300  0.2422
 8697TIP3    H150286   2.091   0.816   1.545  0.4718  0.0350  3.0920
 8697TIP3    H250287   2.021   0.931   1.614 -0.2454  2.2828 -1.0377
 8698TIP3   OH250288   6.115   3.339   9.861 -0.0905  0.5068 -0.7171
 8698TIP3    H150289   6.101   3.431   9.837  0.7884  1.0890  0.8757
 8698TIP3    H250290   6.098   3.291   9.780 -2.8600  1.8113 -1.0444
 8699TIP3   OH250291   1.891   5.705   3.083  0.3286  0.0895 -0.1673
 8699TIP3    H150292   1.874   5.790   3.042 -1.1818  0.3194  0.8277
 8699TIP3    H250293   1.804   5.667   3.095  0.9744 -1.5131 -0.3967
 8700TIP3   OH250294   2.055   7.607   7.486  0.7681  0.2426  0.1884
 8700TIP3    H150295   2.098   7.577   7.406  1.6836  1.3543  0.2401
 8700TIP3    H250296   2.001   7.533   7.514  2.5576 -1.1756  0.0508
 8701TIP3   OH250297   0.751   6.452   8.671 -0.6326  0.2379 -0.7435
 8701TIP3    H150298   0.816   6.505   8.717 -0.6624  0.4357 -0.9240
 8701TIP3    H250299   0.671   6.461   8.724 -1.2699  2.1804 -1.8962
 8702TIP3   OH250300   6.137   6.955   8.485 -0.2853  0.2016  0.3367
 8702TIP3    H150301   6.147   6.863   8.512 -0.8936  0.4198  1.3495
 8702TIP3    H250302   6.070   6.952   8.417 -0.9402 -0.0126  0.9777
 8703TIP3   OH250303   0.291   1.984   9.825  0.2759  0.0806  0.3882
 8703TIP3    H150304   0.199   1.992   9.800  0.2385 -1.3860 -0.0545
 8703TIP3    H250305   0.337   1.975   9.742  0.7084 -0.0774  0.6450
 8704TIP3   OH250306   0.944   0.420   9.019 -0.3233  0.5231 -0.0177
 8704TIP3    H150307   0.948   0.455   9.108 -1.4475  1.4573 -0.2894
 8704TIP3    H250308   0.940   0.498   8.963  0.8566 -0.0398 -0.9354
 8705TIP3   OH250309   7.083   2.065   2.205  0.2561 -0.2076 -0.2594
 8705TIP3    H150310   7.042   1.988   2.164 -0.6153 -0.9862  1.8917
 8705TIP3    H250311   7.056   2.139   2.150 -1.4517 -1.0889 -0.6818
 8706TIP3   OH250312   2.184   1.771   7.674 -0.0239 -0.0390  0.2834
 8706TIP3    H150313   2.267   1.772   7.626  0.3047 -1.6240  0.7560
 8706TIP3    H250314   2.118   1.786   7.607  0.5746  0.0623 -0.3004
 8707TIP3   OH250315   0.181   1.039   9.958 -0.3423  0.9082 -0.0888
 8707TIP3    H150316   0.095   1.002   9.976  0.4758 -0.8623  0.4176
 8707TIP3    H250317   0.219   1.056  10.044  0.0471  1.0788 -0.2893
 8708TIP3   OH250318   6.878   2.378   7.776 -0.1708 -0.0004 -0.0978
 8708TIP3    H150319   6.884   2.297   7.828 -0.1197  1.1736  1.8320
 8708TIP3    H250320   6.966   2.415   7.779 -0.7678  1.4326  1.3419
 8709TIP3   OH250321   6.775   4.271   9.235  0.2516  0.3784 -0.0323
 8709TIP3    H150322   6.786   4.293   9.327  0.2478 -1.0943  0.3456
 8709TIP3    H250323   6.688   4.231   9.230 -0.0470  1.1046 -0.8083
 8710TIP3   OH250324   6.449   1.402   0.897  0.0656 -0.2622 -0.1923
 8710TIP3    H150325   6.509   1.475   0.881  0.0585  0.2687  1.8911
 8710TIP3    H250326   6.389   1.435   0.965 -0.9693 -1.6588 -0.3841
 8711TIP3   OH250327   0.185   1.149   8.868 -0.2879  0.2376  0.0387
 8711TIP3    H150328   0.187   1.244   8.880  1.4449  0.3290 -0.5477
 8711TIP3    H250329   0.142   1.115   8.947 -1.6684  1.5304 -0.1113
 8712TIP3   OH250330   3.449   0.799   2.588  0.6262 -0.4165  0.3955
 8712TIP3    H150331   3.355   0.813   2.571  0.8695  0.2909 -0.4717
 8712TIP3    H250332   3.452   0.766   2.678 -0.5908 -2.4098 -0.2341
 8713TIP3   OH250333   2.647   7.482   1.747 -0.5954  0.7231  0.5084
 8713TIP3    H150334   2.595   7.402   1.752 -1.0412  0.9739 -0.0082
 8713TIP3    H250335   2.598   7.546   1.799  0.0747  0.5068  1.4384
 8714TIP3   OH250336   0.199   4.814   8.923 -0.0687 -0.7163  0.2954
 8714TIP3    H150337   0.107   4.793   8.939 -0.3755  0.8147  0.6663
 8714TIP3    H250338   0.238   4.817   9.010  0.3382 -1.3160  0.1405
 8715TIP3   OH250339   7.614   7.255   0.794  0.1527 -0.1750  0.1972
 8715TIP3    H150340   7.643   7.167   0.818  1.0308  0.5080  1.8436
 8715TIP3    H250341   7.524   7.261   0.827 -0.4736 -0.9433 -1.2970
 8716TIP3   OH250342   5.514   5.978   8.988  0.1832  0.7476 -0.3061
 8716TIP3    H150343   5.525   5.883   8.997 -0.6211  0.7871  1.4386
 8716TIP3    H250344   5.426   5.988   8.952 -0.2006  0.8410  0.6286
 8717TIP3   OH250345   6.056   5.530   9.276 -0.4657  0.7255 -0.0069
 8717TIP3    H150346   6.019   5.442   9.281  1.3669 -0.2019 -1.4885
 8717TIP3    H250347   6.094   5.546   9.362  1.2214 -0.9296 -0.4023
 8718TIP3   OH250348   4.977   2.251   7.712  0.0070 -0.4262  0.1321
 8718TIP3    H150349   5.034   2.176   7.700  0.3835 -0.3416  1.2482
 8718TIP3    H250350   5.000   2.311   7.640 -0.4198 -1.4287 -0.8612
 8719TIP3   OH250351   5.392   1.056   0.978 -0.2884 -0.1831 -0.2496
 8719TIP3    H150352   5.310   1.101   0.959  0.4862  1.3855 -0.0279
 8719TIP3    H250353   5.439   1.057   0.894 -0.1355 -0.3105 -0.1657
 8720TIP3   OH250354   1.077   1.360   3.120  0.1073 -0.1003  0.4661
 8720TIP3    H150355   1.076   1.452   3.148 -1.5988 -0.0602  0.3577
 8720TIP3    H250356   1.097   1.364   3.026  1.5753  0.0321  0.7575
 8721TIP3   OH250357   1.333   1.009   8.223  0.5486  0.0481  0.4334
 8721TIP3    H150358   1.265   1.042   8.282  0.3081  2.1693 -0.9369
 8721TIP3    H250359   1.308   0.917   8.207 -1.1867  0.3669  1.0879
 8722TIP3   OH250360   5.521   1.686   8.675  1.0511 -0.1044 -0.5786
 8722TIP3    H150361   5.602   1.727   8.707  2.1661 -1.4338 -1.6031
 8722TIP3    H250362   5.457   1.704   8.744  2.2548  0.8028  0.3562
 8723TIP3   OH250363   6.144   2.188   8.985  0.5494 -0.3686 -0.3518
 8723TIP3    H150364   6.185   2.178   9.071 -0.7278 -0.0512  0.3268
 8723TIP3    H250365   6.185   2.266   8.948  0.3768  0.1192  0.4415
 8724TIP3   OH250366   2.631   6.135   0.308 -0.5824 -0.2883  0.2103
 8724TIP3    H150367   2.610   6.178   0.391  1.5337 -1.0140  1.2070
 8724TIP3    H250368   2.680   6.057   0.334 -0.8655 -1.1588 -1.7055
 8725TIP3   OH250369   6.667   5.902   7.501  0.4849 -0.4151 -0.0061
 8725TIP3    H150370   6.649   5.946   7.417 -1.5497  0.3508  0.7686
 8725TIP3    H250371   6.627   5.815   7.491 -0.1960 -0.1492  0.3068
 8726TIP3   OH250372   6.599   6.844   7.644  0.0479  0.3654 -0.0137
 8726TIP3    H150373   6.576   6.760   7.605 -1.2770  0.8293 -0.3027
 8726TIP3    H250374   6.627   6.899   7.571  0.8148  0.2167  0.1607
 8727TIP3   OH250375   2.222   0.861   7.685  0.3770 -0.0050 -0.7966
 8727TIP3    H150376   2.290   0.798   7.658  0.0239  0.1210 -2.0407
 8727TIP3    H250377   2.143   0.830   7.641 -0.2003  0.3084  0.0111
 8728TIP3   OH250378   3.225   4.044   7.545  0.0692 -0.5453  0.1602
 8728TIP3    H150379   3.199   4.136   7.547 -1.2043 -0.7483 -2.7868
 8728TIP3    H250380   3.295   4.039   7.480 -1.3188 -1.9003 -1.3344
 8729TIP3   OH250381   5.820   2.442   7.805  0.3953 -0.0011 -0.8622
 8729TIP3    H150382   5.750   2.507   7.810  0.6875  0.2188  1.0527
 8729TIP3    H250383   5.775   2.358   7.809  0.2250  0.1352  1.4597
 8730TIP3   OH250384   4.985   1.125   1.102  0.6896  0.2861 -0.1455
 8730TIP3    H150385   4.905   1.098   1.146  0.0327  2.0207 -0.1835
 8730TIP3    H250386   4.974   1.095   1.012  1.9090 -3.0152  0.6630
 8731TIP3   OH250387   2.022   5.472   9.176  0.1312 -0.6255  0.3136
 8731TIP3    H150388   1.982   5.385   9.186 -0.1880 -0.4467  0.6531
 8731TIP3    H250389   2.070   5.485   9.258 -0.8250  0.0191  0.7913
 8732TIP3   OH250390   2.519   0.760   8.419  0.5227 -0.2098  0.6275
 8732TIP3    H150391   2.490   0.693   8.357 -1.9723  1.3942 -0.0766
 8732TIP3    H250392   2.561   0.827   8.365 -1.5974  1.1617  0.5784
 8733TIP3   OH250393   1.079   1.909   9.124  0.1794 -0.0927 -0.1232
 8733TIP3    H150394   1.150   1.847   9.108  0.1445 -0.3134  0.5476
 8733TIP3    H250395   1.012   1.887   9.059  0.6045 -0.0652 -0.5761
 8734TIP3   OH250396   1.093   7.443   0.832 -0.0301  0.1366 -0.0070
 8734TIP3    H150397   1.098   7.503   0.906  0.1104 -1.3175  1.2237
 8734TIP3    H250398   1.090   7.499   0.755 -0.8413  1.7289  1.1230
 8735TIP3   OH250399   0.752   3.208   8.207  0.4363  0.1337  0.0208
 8735TIP3    H150400   0.829   3.264   8.213  0.5920 -0.0391 -0.3440
 8735TIP3    H250401   0.787   3.120   8.200  0.2088  0.0623 -0.2339
 8736TIP3   OH250402   7.107   2.312   0.515 -0.9741  0.0233 -0.3591
 8736TIP3    H150403   7.096   2.406   0.524 -3.4311  0.1103 -2.9778
 8736TIP3    H250404   7.138   2.299   0.425  1.1341 -1.6296  0.5183
 8737TIP3   OH250405   6.139   2.057   0.562 -0.2787  0.0328  0.5795
 8737TIP3    H150406   6.128   2.012   0.478  1.8827  2.7184 -1.3674
 8737TIP3    H250407   6.160   1.988   0.624  1.5827 -1.8374 -1.9053
 8738TIP3   OH250408   5.801   2.977   1.918 -0.3739 -0.0160 -0.0680
 8738TIP3    H150409   5.786   2.943   2.006  1.3838  0.4994  0.4776
 8738TIP3    H250410   5.836   2.903   1.869 -1.3492 -0.3020 -0.3435
 8739TIP3   OH250411   7.555   2.920   2.470 -0.9413 -0.4045  0.3909
 8739TIP3    H150412   7.540   2.847   2.409 -1.9557 -1.7411  2.1434
 8739TIP3    H250413   7.644   2.949   2.451 -2.0027  0.9792 -3.4433
 8740TIP3   OH250414   4.333   4.074   7.718  1.3270 -0.4732  0.3243
 8740TIP3    H150415   4.409   4.103   7.767  2.3650 -1.9238 -0.3389
 8740TIP3    H250416   4.344   3.979   7.711 -1.0528 -0.8601  1.0378
 8741TIP3   OH250417   6.218   4.905   0.357  0.1462  0.6308  0.3541
 8741TIP3    H150418   6.298   4.945   0.390  1.1420 -1.6306  0.8904
 8741TIP3    H250419   6.155   4.914   0.429  0.2664  1.4051  0.3668
 8742TIP3   OH250420   1.650   4.549   7.157  0.0553  0.1274  0.0192
 8742TIP3    H150421   1.650   4.468   7.106  3.3605  0.6219 -0.9822
 8742TIP3    H250422   1.654   4.618   7.091 -0.2514  1.0203  0.9151
 8743TIP3   OH250423   2.126   6.882   8.098 -0.4728  0.1745 -0.7999
 8743TIP3    H150424   2.109   6.901   8.006  2.5307 -1.3420 -1.8218
 8743TIP3    H250425   2.070   6.807   8.118 -0.3274 -0.1961 -1.7431
 8744TIP3   OH250426   1.328   2.317   7.339 -0.0772 -0.1701  0.0077
 8744TIP3    H150427   1.266   2.253   7.305  0.8044  0.1048 -2.2750
 8744TIP3    H250428   1.319   2.311   7.434 -0.7433 -2.9144 -0.1595
 8745TIP3   OH250429   1.068   1.932   0.891  0.3767 -0.0856  0.5956
 8745TIP3    H150430   1.092   1.940   0.799  1.9256  0.9901  1.0653
 8745TIP3    H250431   0.976   1.961   0.894 -0.0215 -1.0687 -0.7248
 8746TIP3   OH250432   6.429   2.287   1.778  0.0337  0.2265  1.1334
 8746TIP3    H150433   6.498   2.333   1.731 -1.6466  0.0876 -1.6365
 8746TIP3    H250434   6.371   2.357   1.811 -0.4467  0.2434  0.2726
 8747TIP3   OH250435   0.891   1.903   9.971  0.0058 -0.0692 -0.0874
 8747TIP3    H150436   0.859   1.824   9.928  1.0571 -0.0151 -1.0097
 8747TIP3    H250437   0.820   1.966   9.962 -0.9060 -0.9305  0.7884
 8748TIP3   OH250438   1.968   7.313   0.879 -0.0829 -0.5445 -0.0020
 8748TIP3    H150439   2.049   7.304   0.929 -0.4643  0.2949  0.8017
 8748TIP3    H250440   1.987   7.382   0.815  0.3914 -1.5883 -1.0099
 8749TIP3   OH250441   6.449   5.648   2.520 -0.0641 -0.0629 -0.1138
 8749TIP3    H150442   6.409   5.569   2.481 -0.1856 -0.2948  0.4665
 8749TIP3    H250443   6.374   5.696   2.556  0.0571  0.0861 -0.0632
 8750TIP3   OH250444   3.392   0.630   1.897  0.1751 -0.0932 -1.0685
 8750TIP3    H150445   3.390   0.724   1.917 -1.6873 -0.4979  0.9796
 8750TIP3    H250446   3.300   0.605   1.892  0.6037 -2.0887  0.0466
 8751TIP3   OH250447   6.957   5.388  -0.033 -0.1960  0.0540 -0.4676
 8751TIP3    H150448   6.993   5.454  -0.093  0.7666  0.4611  0.5167
 8751TIP3    H250449   7.033   5.335  -0.008 -1.0569 -1.9842 -1.8407
 8752TIP3   OH250450   0.113   2.806   8.835  0.0303  0.2589 -0.1457
 8752TIP3    H150451   0.180   2.745   8.807  0.2357  0.1468  0.5700
 8752TIP3    H250452   0.142   2.891   8.802  1.8525  0.6573  2.2614
 8753TIP3   OH250453   4.798   5.104   9.642  0.4565 -0.3679 -0.4077
 8753TIP3    H150454   4.822   5.011   9.635  1.7893 -0.0070 -0.9519
 8753TIP3    H250455   4.813   5.139   9.555 -0.8079  0.2103 -0.4146
 8754TIP3   OH250456   0.569   5.244   7.741 -0.1473  0.3634  0.6288
 8754TIP3    H150457   0.643   5.285   7.696 -0.6655  1.9124  1.1136
 8754TIP3    H250458   0.550   5.166   7.690 -0.1196  1.5616 -1.3042
 8755TIP3   OH250459   0.398   1.654   8.254 -0.3873 -0.4601 -0.4605
 8755TIP3    H150460   0.347   1.578   8.225 -0.2335 -1.2502  1.1921
 8755TIP3    H250461   0.474   1.616   8.298 -1.0857  0.5569  1.7789
 8756TIP3   OH250462   6.539   3.294   0.971 -0.1816  0.1429  0.2265
 8756TIP3    H150463   6.510   3.233   1.038  0.0294  0.8644  1.0020
 8756TIP3    H250464   6.635   3.285   0.970 -0.2818 -1.1311 -1.2419
 8757TIP3   OH250465   5.824   4.684   9.291 -0.3639 -0.4548 -0.1085
 8757TIP3    H150466   5.842   4.761   9.345  2.0763 -1.7605  1.1193
 8757TIP3    H250467   5.729   4.673   9.296 -0.6266  1.6818  0.7543
 8758TIP3   OH250468   6.127   7.159   7.075 -0.4370 -0.2549  0.3687
 8758TIP3    H150469   6.071   7.237   7.074 -0.7378 -0.4723 -0.4102
 8758TIP3    H250470   6.093   7.106   7.147 -1.3172 -0.4350 -0.1633
 8759TIP3   OH250471   6.536   6.608   1.693  0.0155  0.4164  0.1332
 8759TIP3    H150472   6.445   6.605   1.664 -0.7597  1.3874  2.2344
 8759TIP3    H250473   6.541   6.543   1.763  0.2333  2.0184  1.6901
 8760TIP3   OH250474   2.169   0.326   7.506  0.1071  0.2182  0.3347
 8760TIP3    H150475   2.206   0.365   7.585  1.7327 -1.5314  0.5140
 8760TIP3    H250476   2.101   0.266   7.539  0.0687  0.2540  0.3209
 8761TIP3   OH250477   2.378   6.112   1.892 -0.0980 -0.0683 -0.2191
 8761TIP3    H150478   2.330   6.048   1.946 -0.1497 -0.1532 -0.3647
 8761TIP3    H250479   2.330   6.194   1.905 -0.5505 -0.2482 -0.7086
 8762TIP3   OH250480   0.586   4.987  10.004 -0.2337 -1.1476  0.0089
 8762TIP3    H150481   0.601   5.005   9.911  0.4614 -0.9887  0.1414
 8762TIP3    H250482   0.514   5.044  10.028  1.3690  0.9200  0.2053
 8763TIP3   OH250483   5.376   7.330   2.542  0.5936  0.1034  0.1464
 8763TIP3    H150484   5.359   7.337   2.448  0.3511 -0.4879  0.1457
 8763TIP3    H250485   5.428   7.408   2.562  1.7104 -0.3857 -0.7217
 8764TIP3   OH250486   1.567   3.826   8.232  0.2939 -0.0180  0.3769
 8764TIP3    H150487   1.510   3.844   8.158  2.5213  0.5094 -1.2998
 8764TIP3    H250488   1.540   3.739   8.262 -0.9267 -0.0700 -0.7585
 8765TIP3   OH250489   0.856   0.873   9.927 -0.3465  0.4220  0.6398
 8765TIP3    H150490   0.782   0.875   9.866 -0.8326 -1.4622  1.1233
 8765TIP3    H250491   0.927   0.832   9.877 -0.9064 -1.6239  1.4634
 8766TIP3   OH250492   2.654   0.015   8.875  0.0789 -0.5334  0.1706
 8766TIP3    H150493   2.656   0.010   8.971 -0.6810  2.2369  0.4433
 8766TIP3    H250494   2.564   0.041   8.855  1.1162  2.7452 -0.8895
 8767TIP3   OH250495   7.193   4.071   7.207 -0.2394  0.0352 -0.1137
 8767TIP3    H150496   7.274   4.064   7.256 -0.5895 -0.3326  0.4307
 8767TIP3    H250497   7.219   4.067   7.115  0.3817  0.2633  0.0504
 8768TIP3   OH250498   4.370   1.659   7.792  0.1286 -0.3095 -0.3726
 8768TIP3    H150499   4.448   1.605   7.804 -1.5465 -2.4181  2.2529
 8768TIP3    H250500   4.334   1.630   7.707  1.1389 -0.7676 -0.6542
 8769TIP3   OH250501   6.835   1.740   3.180 -0.5001 -0.1709  0.1275
 8769TIP3    H150502   6.740   1.750   3.170 -0.6725 -1.4250  0.3728
 8769TIP3    H250503   6.863   1.822   3.222 -1.6679 -0.2971  1.2202
 8770TIP3   OH250504   1.799   0.817   8.471 -0.4447 -0.3080 -0.9189
 8770TIP3    H150505   1.839   0.893   8.514 -1.5754 -0.5073  0.5312
 8770TIP3    H250506   1.705   0.833   8.477 -0.8090 -2.7112  1.1390
 8771TIP3   OH250507   3.552   2.319   9.748  0.1235 -0.0025 -0.1671
 8771TIP3    H150508   3.525   2.351   9.834  0.7686  0.0710  0.0134
 8771TIP3    H250509   3.645   2.342   9.742  0.1586 -0.2823 -0.7560
 8772TIP3   OH250510   3.961   0.781   8.280  0.1546 -0.0655 -0.0577
 8772TIP3    H150511   3.880   0.831   8.275  0.0673 -0.2043 -0.0328
 8772TIP3    H250512   4.031   0.847   8.278  0.0155  0.1888  2.1099
 8773TIP3   OH250513   2.325   7.014   1.128 -0.1254 -0.5750  0.6570
 8773TIP3    H150514   2.245   7.063   1.147 -0.1249  0.9779 -2.6442
 8773TIP3    H250515   2.388   7.045   1.193 -1.1054  1.2284  0.8126
 8774TIP3   OH250516   0.321   2.455   8.572 -0.2235 -0.3058 -0.2846
 8774TIP3    H150517   0.238   2.414   8.547  0.0284 -1.4053  0.5906
 8774TIP3    H250518   0.379   2.439   8.497 -1.3404  2.3468 -1.8616
 8775TIP3   OH250519   7.418   1.221   8.775 -0.2063  0.4967 -0.2179
 8775TIP3    H150520   7.324   1.225   8.757 -0.0103  1.6015 -1.0392
 8775TIP3    H250521   7.458   1.273   8.706  0.9642  0.6356  0.5506
 8776TIP3   OH250522   0.690   0.194   9.904 -0.3530  0.3825  0.1687
 8776TIP3    H150523   0.672   0.170   9.812 -0.4607  0.8225  0.0737
 8776TIP3    H250524   0.607   0.230   9.936 -0.0583  1.0825  0.1620
 8777TIP3   OH250525   1.148   2.870   8.683 -0.6686  0.1974  0.7574
 8777TIP3    H150526   1.212   2.801   8.663 -1.0364 -0.5053  1.9151
 8777TIP3    H250527   1.097   2.835   8.756 -2.5383  0.6548 -0.2740
 8778TIP3   OH250528   2.859   6.370   2.165  0.3622  0.3473 -0.3658
 8778TIP3    H150529   2.812   6.449   2.138 -0.1559  0.6502  1.3100
 8778TIP3    H250530   2.798   6.324   2.222  1.0306 -0.7667 -0.5226
 8779TIP3   OH250531   0.670   0.815   6.496  0.3458 -0.0949 -0.3659
 8779TIP3    H150532   0.632   0.748   6.439 -1.9336 -0.4358  1.4014
 8779TIP3    H250533   0.595   0.867   6.526  1.6372  1.0778  1.0366
 8780TIP3   OH250534   4.128   0.679   2.480 -0.1179  0.5916  0.2927
 8780TIP3    H150535   4.065   0.607   2.474  0.0028  0.3366  1.8183
 8780TIP3    H250536   4.197   0.656   2.417  0.4555 -1.1726  1.4959
 8781TIP3   OH250537   6.770   4.002   9.047 -0.7343  0.4622  0.7012
 8781TIP3    H150538   6.722   3.999   8.964 -1.7974 -0.1903  1.3074
 8781TIP3    H250539   6.862   4.006   9.022 -0.9237 -1.5266 -0.5440
 8782TIP3   OH250540   2.751   2.819   8.693  0.1669 -0.1596 -0.4363
 8782TIP3    H150541   2.751   2.767   8.613 -0.0390 -0.2704 -0.3659
 8782TIP3    H250542   2.720   2.759   8.761 -2.5442  0.7101 -0.8000
 8783TIP3   OH250543   1.546   1.844   9.769  0.0525  0.5610 -0.2061
 8783TIP3    H150544   1.455   1.815   9.772 -0.3630  1.5046 -1.8573
 8783TIP3    H250545   1.546   1.926   9.819  0.3568 -0.2109  1.0956
 8784TIP3   OH250546   3.115   3.646   8.745 -0.0611  0.2713 -0.0573
 8784TIP3    H150547   3.113   3.587   8.670 -0.4347 -0.8163  0.7940
 8784TIP3    H250548   3.124   3.589   8.821  0.8726  1.3788  0.7094
 8785TIP3   OH250549   0.578   2.234   1.757  0.0967 -0.7515  0.3976
 8785TIP3    H150550   0.662   2.279   1.758  0.0248 -0.6190  0.4869
 8785TIP3    H250551   0.595   2.153   1.708  0.3104 -0.7945  0.5381
 8786TIP3   OH250552   3.902   6.754   7.892 -0.2011 -0.2877 -0.5493
 8786TIP3    H150553   3.826   6.697   7.886 -0.9045  0.7002 -1.5624
 8786TIP3    H250554   3.949   6.741   7.810 -1.0792  1.4820 -1.3950
 8787TIP3   OH250555   2.003   6.141   7.144 -0.1825  0.1315 -0.2177
 8787TIP3    H150556   1.981   6.079   7.074  0.2546 -1.5432  1.0384
 8787TIP3    H250557   2.037   6.085   7.214 -0.5337  1.7527  1.2984
 8788TIP3   OH250558   4.628   5.006   7.611 -0.9894  0.3990 -0.0719
 8788TIP3    H150559   4.661   4.916   7.614 -1.0126  0.4009  1.7632
 8788TIP3    H250560   4.539   4.999   7.648 -0.7321  1.2490  0.7493
 8789TIP3   OH250561   5.892   5.199   7.417  0.1516 -0.0116  0.6423
 8789TIP3    H150562   5.815   5.255   7.418 -0.7253 -1.1462  2.7363
 8789TIP3    H250563   5.954   5.241   7.477  0.3150 -0.1983  0.6075
 8790TIP3   OH250564   1.853   0.547   9.375 -0.1647 -0.5973 -0.0010
 8790TIP3    H150565   1.910   0.603   9.428  0.4624 -1.2533  0.0168
 8790TIP3    H250566   1.858   0.461   9.417 -1.3236 -0.6206  0.1229
 8791TIP3   OH250567   1.222   0.388   9.484  0.2037 -0.3207 -0.3263
 8791TIP3    H150568   1.251   0.299   9.506  1.0743  0.5141  2.2129
 8791TIP3    H250569   1.277   0.414   9.410  1.4416 -1.1170  0.2925
 8792TIP3   OH250570   6.781   0.735   0.373 -0.3492  0.2947 -0.6267
 8792TIP3    H150571   6.836   0.789   0.430  0.2607 -2.2214  1.3214
 8792TIP3    H250572   6.692   0.758   0.398 -0.2122  2.0121 -1.5001
 8793TIP3   OH250573   4.315   0.147   7.517  0.6365 -0.1735 -0.4537
 8793TIP3    H150574   4.307   0.239   7.493  1.0389  0.3505  1.2761
 8793TIP3    H250575   4.308   0.100   7.434  1.5598  1.4639 -1.5174
 8794TIP3   OH250576   2.020   4.161   8.482  0.5476 -0.4489 -0.0353
 8794TIP3    H150577   2.082   4.234   8.475  0.5614 -0.3973  0.5670
 8794TIP3    H250578   1.985   4.151   8.394 -2.5773  3.0172  0.5637
 8795TIP3   OH250579   6.993   1.429   1.784 -0.1881  0.6366  0.1504
 8795TIP3    H150580   6.925   1.403   1.722  0.9694 -2.2840 -0.0666
 8795TIP3    H250581   7.074   1.425   1.734  0.5024  0.6684  1.2268
 8796TIP3   OH250582   0.241   1.155   0.259  0.1040 -0.5705 -0.2716
 8796TIP3    H150583   0.316   1.108   0.222 -1.3069 -0.7553 -3.1999
 8796TIP3    H250584   0.177   1.086   0.278 -0.4185 -0.1868 -0.6182
 8797TIP3   OH250585   7.460   1.173   0.180 -0.3751 -0.2711 -0.5887
 8797TIP3    H150586   7.463   1.232   0.105  1.4651 -1.2507 -1.3667
 8797TIP3    H250587   7.391   1.110   0.159  0.4670 -0.8480 -1.7620
 8798TIP3   OH250588   6.011   6.739   9.723 -0.3589  0.5577  0.4484
 8798TIP3    H150589   5.917   6.726   9.732 -0.2443 -0.5972  0.2384
 8798TIP3    H250590   6.041   6.763   9.811 -0.6382 -0.7035  0.9151
 8799TIP3   OH250591   7.497   2.406   9.703  0.4389  0.0426 -0.1393
 8799TIP3    H150592   7.506   2.348   9.779  0.8291 -0.6233 -0.6858
 8799TIP3    H250593   7.562   2.374   9.641 -1.2445 -0.7246 -1.5759
 8800TIP3   OH250594   2.971   7.463   0.303  0.1861  0.3541 -0.3071
 8800TIP3    H150595   2.924   7.384   0.330  0.3130 -0.7106 -2.9626
 8800TIP3    H250596   2.903   7.523   0.274  0.1838  0.7930  0.5518
 8801TIP3   OH250597   3.156   4.546   9.552  0.0330 -0.2602  0.1028
 8801TIP3    H150598   3.240   4.567   9.594  0.6873 -1.0689 -0.7533
 8801TIP3    H250599   3.096   4.614   9.582  0.8624  0.0345  1.1429
 8802TIP3   OH250600   5.602   2.613   7.834  0.0378  0.4481  0.1684
 8802TIP3    H150601   5.537   2.682   7.849 -1.1461 -0.2389 -1.5179
 8802TIP3    H250602   5.595   2.556   7.911 -1.7791  0.0960 -0.2114
 8803TIP3   OH250603   0.380   1.767   2.524  0.5176 -0.3250 -1.0113
 8803TIP3    H150604   0.473   1.750   2.531  0.7161  0.7656 -0.7235
 8803TIP3    H250605   0.337   1.689   2.559  1.3292 -0.5852 -0.5954
 8804TIP3   OH250606   0.258   5.041   0.256 -0.1042  0.0158  0.0629
 8804TIP3    H150607   0.271   4.959   0.304 -0.8971 -0.5199 -0.6101
 8804TIP3    H250608   0.190   5.021   0.192 -0.8951  1.4325  0.4180
 8805TIP3   OH250609   5.660   4.345   9.185  0.4456  0.4705  0.3343
 8805TIP3    H150610   5.705   4.343   9.269 -1.0227 -0.8441  1.1564
 8805TIP3    H250611   5.688   4.265   9.141  1.4446  1.3081 -0.5782
 8806TIP3   OH250612   7.024   4.872   9.203 -0.3314  0.8338  0.2341
 8806TIP3    H150613   6.955   4.834   9.148  0.4753 -2.2071  1.1341
 8806TIP3    H250614   7.083   4.914   9.142 -2.0811  2.0874 -0.6948
 8807TIP3   OH250615   2.483   2.364   3.333  0.2486 -0.4284  0.0796
 8807TIP3    H150616   2.527   2.408   3.406  1.8557  1.1320 -1.7419
 8807TIP3    H250617   2.512   2.273   3.339  0.7488 -0.2106  1.0761
 8808TIP3   OH250618   2.106   5.816   2.587  0.2273  0.1975  0.5837
 8808TIP3    H150619   2.184   5.868   2.607  0.3237  0.2231  0.1433
 8808TIP3    H250620   2.124   5.777   2.502 -0.0651 -0.1405  0.6758
 8809TIP3   OH250621   6.811   7.042   9.443  0.7400 -0.5684  0.1832
 8809TIP3    H150622   6.901   7.007   9.443  0.6340 -0.8522  0.4700
 8809TIP3    H250623   6.785   7.038   9.535  2.1731  4.1096  1.0396
 8810TIP3   OH250624   1.366   5.572   0.139  0.3163  0.4344  0.0409
 8810TIP3    H150625   1.350   5.486   0.177  0.3258  0.2494 -0.3648
 8810TIP3    H250626   1.366   5.557   0.045 -1.4260  1.1477 -0.1194
 8811TIP3   OH250627   0.051   6.555   8.843 -0.3459 -0.1635 -0.1268
 8811TIP3    H150628   0.011   6.630   8.887  1.0434  1.0719 -0.8809
 8811TIP3    H250629   0.065   6.585   8.753  2.3188 -0.4460  0.1157
 8812TIP3   OH250630   2.332   2.805   9.220 -0.6633 -0.2705 -0.2080
 8812TIP3    H150631   2.281   2.875   9.180  1.9082  1.7737 -0.1848
 8812TIP3    H250632   2.398   2.783   9.154  0.4146 -0.5401  0.9227
 8813TIP3   OH250633   6.115   0.493   1.956  0.0251  0.3344 -0.5088
 8813TIP3    H150634   6.150   0.415   1.999 -0.0286  1.3979  1.5720
 8813TIP3    H250635   6.095   0.464   1.867  1.7811 -1.5219 -0.3803
 8814TIP3   OH250636   6.076   0.807   8.335 -0.3180 -0.1328 -0.0532
 8814TIP3    H150637   6.045   0.896   8.320  0.8130  0.2076 -0.4345
 8814TIP3    H250638   6.084   0.770   8.247 -2.8331 -1.3769  0.1322
 8815TIP3   OH250639   6.362   0.748   1.641  0.0811  0.2949 -0.0068
 8815TIP3    H150640   6.320   0.670   1.603 -0.7267  0.5485  0.3473
 8815TIP3    H250641   6.394   0.797   1.565 -1.6258  0.8576 -0.4078
 8816TIP3   OH250642   0.960   4.307   9.554 -0.3125 -0.3111  0.3019
 8816TIP3    H150643   0.919   4.275   9.635 -0.5811  0.2742  0.4031
 8816TIP3    H250644   0.886   4.322   9.495 -0.0518 -1.7817 -0.4504
 8817TIP3   OH250645   6.433   1.597   0.414  0.1041 -0.7613 -0.2472
 8817TIP3    H150646   6.376   1.574   0.340 -2.4416 -0.7573  1.5648
 8817TIP3    H250647   6.406   1.537   0.484  1.1521  0.4070  1.2271
 8818TIP3   OH250648   7.333   6.457   7.746  0.1764  0.1534 -0.0752
 8818TIP3    H150649   7.335   6.515   7.822  2.0125 -0.0183  0.0514
 8818TIP3    H250650   7.377   6.506   7.677  0.7168 -0.6064 -0.2956
 8819TIP3   OH250651   0.179   0.940   7.680  0.7593  0.0319  0.5124
 8819TIP3    H150652   0.126   0.984   7.613  0.2082 -0.7901  0.4004
 8819TIP3    H250653   0.199   0.854   7.642 -1.6301 -1.4627  2.3457
 8820TIP3   OH250654   0.223   4.990   7.082  0.2510  0.2813 -0.3751
 8820TIP3    H150655   0.179   4.906   7.070  0.3980  0.1260  0.1523
 8820TIP3    H250656   0.296   4.971   7.141 -0.2765  0.9439  0.5264
 8821TIP3   OH250657   3.119   0.093   1.519 -0.1538 -0.1335  0.4454
 8821TIP3    H150658   3.045   0.091   1.580  0.9037 -0.5617  1.7839
 8821TIP3    H250659   3.126   0.004   1.487 -0.5149  0.0197 -0.0632
 8822TIP3   OH250660   7.340   6.280   2.517  0.2478  0.1990 -0.8201
 8822TIP3    H150661   7.249   6.272   2.488 -0.1708  1.8874 -0.0648
 8822TIP3    H250662   7.367   6.367   2.489  1.6313 -0.2583 -0.9846
 8823TIP3   OH250663   0.432   6.338   0.379  0.0769 -0.1717  0.1833
 8823TIP3    H150664   0.399   6.311   0.464 -1.5968 -1.4441 -0.8014
 8823TIP3    H250665   0.443   6.256   0.330  1.7564  0.4597 -0.6003
 8824TIP3   OH250666   7.684   6.163   1.010  0.1589  0.3365 -0.2178
 8824TIP3    H150667   7.691   6.228   0.940 -0.7074 -0.2529 -0.8570
 8824TIP3    H250668   7.723   6.206   1.086  2.8782  0.3243 -1.4780
 8825TIP3   OH250669   5.452   7.101   9.317 -0.6736 -0.0370  0.4003
 8825TIP3    H150670   5.499   7.025   9.283  1.2045  0.8806  0.7709
 8825TIP3    H250671   5.514   7.142   9.377 -1.2947  2.2393 -0.4045
 8826TIP3   OH250672   3.265   2.601   9.105 -0.7231 -0.2996  0.1211
 8826TIP3    H150673   3.213   2.678   9.082  1.3211  0.6659 -1.5570
 8826TIP3    H250674   3.328   2.632   9.169 -0.1391 -0.6694 -0.2648
 8827TIP3   OH250675   2.424   5.217   9.958 -1.3919 -0.3254 -0.1652
 8827TIP3    H150676   2.470   5.134   9.964  0.5528  0.6531 -0.6125
 8827TIP3    H250677   2.379   5.226  10.042 -0.0627 -0.9832  0.6614
 8828TIP3   OH250678   6.697   7.586   0.778 -0.4881 -0.3205 -0.5267
 8828TIP3    H150679   6.697   7.491   0.768  0.5286 -0.4594  0.5817
 8828TIP3    H250680   6.604   7.610   0.772 -0.6662 -1.2416 -1.8563
 8829TIP3   OH250681   0.699   0.079   9.370 -0.5354 -0.2748 -0.1630
 8829TIP3    H150682   0.642   0.018   9.323  0.8715 -0.8547 -1.1724
 8829TIP3    H250683   0.693   0.161   9.322 -2.5255  0.4942  1.2675
 8830TIP3   OH250684   6.164   7.648   9.284  0.2148  0.1303 -0.2651
 8830TIP3    H150685   6.244   7.667   9.235  0.2696 -1.6177 -0.9218
 8830TIP3    H250686   6.170   7.555   9.305 -0.5793  0.4807  1.7114
 8831TIP3   OH250687   3.966   7.201   1.016 -0.7114  0.6433  0.4362
 8831TIP3    H150688   3.943   7.111   1.037  2.9854 -0.5294  0.1765
 8831TIP3    H250689   3.965   7.205   0.921 -3.0681  1.6383  0.4396
 8832TIP3   OH250690   0.573   5.989   1.578 -0.5454 -0.2423 -0.5888
 8832TIP3    H150691   0.485   6.024   1.594 -0.4525 -0.6044  0.9353
 8832TIP3    H250692   0.577   5.910   1.632  0.8805  0.0465 -0.2371
 8833TIP3   OH250693   0.450   5.941   1.917  0.1001 -0.0886 -0.0215
 8833TIP3    H150694   0.427   5.992   1.994 -0.7103 -1.4601  0.6848
 8833TIP3    H250695   0.495   6.003   1.859  0.3655  1.0606  1.3667
 8834TIP3   OH250696   5.007   3.755   8.897 -0.0736 -0.2164  0.3850
 8834TIP3    H150697   5.004   3.774   8.804 -0.2986 -2.2866 -0.0712
 8834TIP3    H250698   4.963   3.830   8.938  1.1218  1.3336 -1.0212
 8835TIP3   OH250699   4.138   6.009   9.591  0.0845  0.1867 -0.0338
 8835TIP3    H150700   4.070   5.948   9.617 -0.3204  1.0651  1.0758
 8835TIP3    H250701   4.141   6.004   9.495 -1.3824 -0.0393 -0.0855
 8836TIP3   OH250702   0.875   2.757   1.447  0.4689 -0.4026  0.1379
 8836TIP3    H150703   0.820   2.760   1.525  0.7492  0.9010  0.3051
 8836TIP3    H250704   0.926   2.838   1.450  1.1141 -0.7464 -0.9436
 8837TIP3   OH250705   5.380   5.531   0.330 -0.8116  0.4853 -0.4136
 8837TIP3    H150706   5.395   5.438   0.342  1.9971  0.4249 -3.1097
 8837TIP3    H250707   5.285   5.539   0.317 -1.0646 -2.0411 -0.5096
 8838TIP3   OH250708   3.127   7.235   0.826  0.3825  0.1491 -0.4679
 8838TIP3    H150709   3.088   7.308   0.875 -2.4819 -1.6196  0.1455
 8838TIP3    H250710   3.110   7.256   0.734  0.8961  0.9291 -0.3905
 8839TIP3   OH250711   0.208   6.051   8.595  0.1408  0.1439  0.1177
 8839TIP3    H150712   0.131   5.994   8.593 -0.4245  0.9028  0.0236
 8839TIP3    H250713   0.277   5.999   8.553 -0.8680  0.2554 -1.8050
 8840TIP3   OH250714   5.439   6.782   0.923  0.2467  0.2292  0.3093
 8840TIP3    H150715   5.473   6.816   1.006 -1.3816 -0.3532  1.2618
 8840TIP3    H250716   5.409   6.694   0.944 -2.0388  0.7815 -0.3797
 8841TIP3   OH250717   0.290   6.971   9.870 -0.1524  0.5816  0.0673
 8841TIP3    H150718   0.294   6.981   9.965  0.0707  0.5408  0.0629
 8841TIP3    H250719   0.333   7.049   9.836 -0.3063  0.6359 -0.0013
 8842TIP3   OH250720   0.372   4.085   7.968 -0.2970  0.0550  0.3627
 8842TIP3    H150721   0.465   4.104   7.958 -0.6024  1.3026 -0.2958
 8842TIP3    H250722   0.347   4.041   7.886 -0.3497 -0.0090  0.4127
 8843TIP3   OH250723   1.937   7.674   0.259  0.0551 -0.3377 -0.6973
 8843TIP3    H150724   1.841   7.676   0.257  0.0425  2.4882 -2.6339
 8843TIP3    H250725   1.958   7.581   0.269 -2.8430 -0.9532  0.8432
 8844TIP3   OH250726   4.221   4.917   7.446  0.2834  0.1641 -0.5442
 8844TIP3    H150727   4.158   4.903   7.375 -0.2413 -0.8824  0.1086
 8844TIP3    H250728   4.306   4.922   7.401 -0.0101 -0.7445 -1.2295
 8845TIP3   OH250729   7.263   7.067   1.699 -0.1377 -0.1017  0.1354
 8845TIP3    H150730   7.335   7.125   1.673  0.2309 -0.5411  0.1613
 8845TIP3    H250731   7.211   7.120   1.759  1.0387 -0.2725  1.3564
 8846TIP3   OH250732   7.179   6.155   2.834 -0.1349  0.4430  0.2547
 8846TIP3    H150733   7.122   6.101   2.778  0.0328  0.1381  0.3756
 8846TIP3    H250734   7.134   6.159   2.918  0.3273 -0.3493  0.5574
 8847TIP3   OH250735   2.907   1.337   1.827 -0.7453  0.3952 -0.1232
 8847TIP3    H150736   2.945   1.413   1.782  0.9165 -0.0379  0.4422
 8847TIP3    H250737   2.832   1.312   1.774  0.0677  1.0204 -1.6361
 8848TIP3   OH250738   1.369   6.288   1.527  0.5413 -0.0162 -0.1048
 8848TIP3    H150739   1.283   6.282   1.568  0.3576 -0.4898 -0.5577
 8848TIP3    H250740   1.390   6.382   1.531  0.3182  0.0077  0.6358
 8849TIP3   OH250741   4.512   2.379   1.415  0.3657 -0.4628  0.2234
 8849TIP3    H150742   4.592   2.428   1.431 -0.8717  1.6161  0.4295
 8849TIP3    H250743   4.467   2.378   1.500  0.4073 -2.1031  0.2555
 8850TIP3   OH250744   7.694   4.690   0.817  0.2046  0.0734  0.0915
 8850TIP3    H150745   7.731   4.632   0.750 -0.8746  1.1819 -1.5505
 8850TIP3    H250746   7.758   4.761   0.826  0.4194 -0.1528  0.3412
 8851TIP3   OH250747   0.780   7.320   0.371  0.7426  0.8447  0.4267
 8851TIP3    H150748   0.707   7.299   0.430  0.2331  1.9427  0.2093
 8851TIP3    H250749   0.792   7.241   0.318  0.6988  0.1173  1.4578
 8852TIP3   OH250750   2.617   6.593   7.390 -0.4032 -0.0063 -0.1904
 8852TIP3    H150751   2.663   6.677   7.388 -2.1192  0.9630 -1.4347
 8852TIP3    H250752   2.635   6.553   7.304  0.8680 -1.2197  0.5963
 8853TIP3   OH250753   6.160   6.522   1.319 -0.1025 -0.4791  0.1618
 8853TIP3    H150754   6.256   6.530   1.320 -0.1706  0.5955 -0.5561
 8853TIP3    H250755   6.130   6.602   1.275 -1.3476 -0.6515  0.6729
 8854TIP3   OH250756   3.796   5.966   7.931 -0.3604  0.3181 -0.1078
 8854TIP3    H150757   3.776   5.986   7.839 -0.6032  0.7463  0.0403
 8854TIP3    H250758   3.847   6.041   7.961  1.7082 -0.8383 -0.5440
 8855TIP3   OH250759   2.317   5.602   8.340  0.1945 -0.3929 -0.3841
 8855TIP3    H150760   2.355   5.584   8.426  1.7203  3.8313  0.0736
 8855TIP3    H250761   2.391   5.629   8.285 -1.3021  3.7355 -0.8022
 8856TIP3   OH250762   7.042   3.371   8.214  0.6351  0.1330  0.1014
 8856TIP3    H150763   7.103   3.315   8.261 -0.0055 -1.2747 -0.6906
 8856TIP3    H250764   7.033   3.331   8.127  0.1284  1.4400 -0.4893
 8857TIP3   OH250765   6.434   2.348   6.621 -0.4078 -0.2820 -0.2219
 8857TIP3    H150766   6.433   2.269   6.568 -0.5210 -0.3561 -0.1107
 8857TIP3    H250767   6.473   2.415   6.565  1.2451 -0.8094  0.2355
 8858TIP3   OH250768   2.930   0.194   2.179  0.3123 -0.3991  0.0364
 8858TIP3    H150769   2.846   0.230   2.151 -0.9815 -1.6985  1.9475
 8858TIP3    H250770   2.985   0.270   2.197 -1.4821  0.5978  1.5711
 8859TIP3   OH250771   7.557   2.216   9.986  0.1555 -0.0590  0.5327
 8859TIP3    H150772   7.633   2.267   9.957  1.1141 -0.1865  2.6579
 8859TIP3    H250773   7.562   2.217  10.082 -2.6900  0.1380  0.7699
 8860TIP3   OH250774   5.611   1.822   7.524 -0.0757 -0.5552 -0.7132
 8860TIP3    H150775   5.534   1.765   7.533  2.6409 -4.3974  0.5007
 8860TIP3    H250776   5.666   1.778   7.459  1.4799  1.6074 -0.9470
 8861TIP3   OH250777   5.535   0.617   2.573 -0.0376  0.1199 -0.3466
 8861TIP3    H150778   5.449   0.589   2.542 -0.3213  0.1744  0.3648
 8861TIP3    H250779   5.576   0.538   2.608 -0.2628  0.2994  0.3490
 8862TIP3   OH250780   0.762   3.834   9.148  0.0696 -0.0701 -0.3548
 8862TIP3    H150781   0.732   3.863   9.061 -3.2242  2.0004  1.2838
 8862TIP3    H250782   0.830   3.897   9.171 -1.2687  1.3917 -0.2202
 8863TIP3   OH250783   3.491   6.636   7.061 -0.2835 -0.2191  0.1815
 8863TIP3    H150784   3.446   6.564   7.015 -0.9221  0.4706 -0.2861
 8863TIP3    H250785   3.540   6.681   6.993 -1.9382  1.3569 -0.0672
 8864TIP3   OH250786   5.641   4.147   9.476  0.3653 -0.2512  0.1759
 8864TIP3    H150787   5.729   4.128   9.445  0.3357 -0.8045  0.4117
 8864TIP3    H250788   5.587   4.077   9.439  0.2305 -0.5806  0.9743
 8865TIP3   OH250789   0.690   0.503   1.172  0.1324  0.7393  0.2012
 8865TIP3    H150790   0.702   0.474   1.262 -3.2334  1.5040  1.0113
 8865TIP3    H250791   0.714   0.427   1.119  2.5075  0.3810  1.6193
 8866TIP3   OH250792   3.237   6.959   9.558 -0.0787 -0.3969  0.1581
 8866TIP3    H150793   3.295   7.035   9.559 -0.3756 -0.1391 -1.1231
 8866TIP3    H250794   3.185   6.968   9.638  1.6699 -0.6899  1.3877
 8867TIP3   OH250795   4.163   0.726   7.059  0.0932 -0.0028  0.2275
 8867TIP3    H150796   4.140   0.676   6.981  1.6405 -1.4048  0.6139
 8867TIP3    H250797   4.105   0.802   7.057  0.6212  0.4471 -2.7334
 8868TIP3   OH250798   5.895   6.361   1.115 -0.0409 -0.7312 -0.2560
 8868TIP3    H150799   5.888   6.426   1.185 -0.8488  0.7252 -1.6324
 8868TIP3    H250800   5.812   6.314   1.118 -1.0474  0.8615 -1.6355
 8869TIP3   OH250801   5.211   7.125   9.061  0.0942 -0.4421  0.2634
 8869TIP3    H150802   5.281   7.175   9.104  0.9484 -0.3167 -1.2329
 8869TIP3    H250803   5.226   7.034   9.090  1.7006 -0.6401 -1.0157
 8870TIP3   OH250804   1.775   5.114   7.981 -0.6920  1.0194  0.1502
 8870TIP3    H150805   1.783   5.139   7.889 -0.7302  0.6797  0.0543
 8870TIP3    H250806   1.856   5.145   8.021  0.2150 -0.5571 -0.3959
 8871TIP3   OH250807   6.009   2.205   8.674 -0.1673 -0.0970  0.1320
 8871TIP3    H150808   6.098   2.221   8.642 -0.3248 -0.9702 -0.8180
 8871TIP3    H250809   6.016   2.211   8.769  0.5163  1.6687 -0.0001
 8872TIP3   OH250810   6.238   2.568   8.525  0.3522 -0.0610  1.1215
 8872TIP3    H150811   6.309   2.618   8.486  0.0344  0.8590  1.6933
 8872TIP3    H250812   6.170   2.565   8.457 -0.0745  1.2652  1.4523
 8873TIP3   OH250813   5.185   4.752   8.969  0.3364  0.3063  0.6690
 8873TIP3    H150814   5.228   4.680   8.923 -0.4384 -0.3859  0.9881
 8873TIP3    H250815   5.253   4.788   9.025  0.6370 -0.4554  0.8176
 8874TIP3   OH250816   5.646   1.698   7.819  0.2389 -0.5001  0.1302
 8874TIP3    H150817   5.649   1.742   7.734  0.2250  1.9009  1.2930
 8874TIP3    H250818   5.569   1.735   7.862  1.0564 -0.5652  1.7274
 8875TIP3   OH250819   3.298   5.102   8.065 -0.2164  0.4446  0.2142
 8875TIP3    H150820   3.220   5.055   8.095  0.5413 -0.1712  1.2943
 8875TIP3    H250821   3.346   5.039   8.012 -0.6419  0.9575 -0.8060
 8876TIP3   OH250822   0.443   1.111   1.494  0.3687 -0.2934  0.2666
 8876TIP3    H150823   0.408   1.031   1.455  0.9540 -1.5826  2.2367
 8876TIP3    H250824   0.385   1.130   1.567  0.7033  0.6410  0.3027
 8877TIP3   OH250825   0.517   1.163   2.261  0.3749 -0.3600  0.2363
 8877TIP3    H150826   0.428   1.141   2.236  0.0590 -2.1295  2.6751
 8877TIP3    H250827   0.548   1.220   2.190 -2.4811 -0.0901 -0.9069
 8878TIP3   OH250828   2.226   0.764   8.535  0.3258 -0.2805  0.3673
 8878TIP3    H150829   2.238   0.852   8.570 -0.6490 -0.0878  0.2303
 8878TIP3    H250830   2.313   0.725   8.539  1.1115  1.2166 -1.0554
 8879TIP3   OH250831   4.632   2.283   8.016 -0.2386 -0.1836 -0.0199
 8879TIP3    H150832   4.554   2.280   8.071 -0.3022  0.6095 -0.0520
 8879TIP3    H250833   4.705   2.280   8.077 -0.2614 -2.0967 -0.0453
 8880TIP3   OH250834   1.323   0.755   8.107  0.6183 -0.1027  0.6790
 8880TIP3    H150835   1.379   0.787   8.036  0.3400 -1.5753 -0.2427
 8880TIP3    H250836   1.285   0.674   8.074  0.0410 -0.5510  2.3170
 8881TIP3   OH250837   6.722   6.136   1.015 -0.4597 -0.6783 -0.2776
 8881TIP3    H150838   6.637   6.156   1.052 -0.8250 -3.1239  0.3344
 8881TIP3    H250839   6.713   6.049   0.977  1.9780 -1.3769  0.5385
 8882TIP3   OH250840   4.733   0.096   1.752 -0.7960 -0.8129  0.3809
 8882TIP3    H150841   4.656   0.154   1.752  0.1165  0.4339  0.2281
 8882TIP3    H250842   4.699   0.012   1.784 -2.4568 -0.6297 -0.7180
 8883TIP3   OH250843   2.851   1.553   2.023  0.1858  0.1130  0.1277
 8883TIP3    H150844   2.864   1.648   2.032  0.6606 -0.0259  1.0933
 8883TIP3    H250845   2.930   1.522   1.978  0.0741  0.1692 -0.1040
 8884TIP3   OH250846   7.633   4.294   0.563  0.5968 -0.0221  0.8858
 8884TIP3    H150847   7.692   4.307   0.637  0.3542 -0.3885  1.1484
 8884TIP3    H250848   7.665   4.354   0.496  0.0264  1.2929  1.7484
 8885TIP3   OH250849   0.035   5.575   1.280 -0.0012  0.3935 -0.2412
 8885TIP3    H150850   0.118   5.527   1.277 -0.1894 -0.1282  1.6205
 8885TIP3    H250851   0.060   5.666   1.291  0.3370  0.2009  0.6381
 8886TIP3   OH250852   6.280   0.427   2.871 -0.1536  0.6169 -0.0989
 8886TIP3    H150853   6.211   0.457   2.930 -1.1134  0.3260 -1.0356
 8886TIP3    H250854   6.352   0.489   2.885 -1.7330  2.8953 -1.3075
 8887TIP3   OH250855   4.846   4.096   8.982  0.2127 -0.0604  0.3420
 8887TIP3    H150856   4.894   4.086   8.899 -0.9170 -1.5201 -0.1757
 8887TIP3    H250857   4.877   4.179   9.018  1.3049  0.2203 -1.1648
 8888TIP3   OH250858   6.215   3.834   0.513  0.2377 -0.6485  0.1725
 8888TIP3    H150859   6.179   3.922   0.527  0.5816 -0.3840 -0.5246
 8888TIP3    H250860   6.204   3.819   0.419  0.6021 -1.1602  0.2082
 8889TIP3   OH250861   6.588   1.007   0.225 -0.2944  0.1337 -0.7300
 8889TIP3    H150862   6.571   0.938   0.288 -0.0276 -0.1683 -0.9824
 8889TIP3    H250863   6.611   1.083   0.278  0.7636 -0.3485 -0.4756
 8890TIP3   OH250864   6.260   3.116   9.718  0.1258 -0.5732  0.1833
 8890TIP3    H150865   6.331   3.055   9.700 -0.3152 -0.8359 -0.7243
 8890TIP3    H250866   6.182   3.061   9.726 -0.6553 -0.0357 -2.7218
 8891TIP3   OH250867   4.148   2.502   9.300  0.2373 -0.0954 -0.6952
 8891TIP3    H150868   4.143   2.430   9.363 -0.1986  1.2663  0.8947
 8891TIP3    H250869   4.074   2.488   9.242 -0.7904 -0.0835  0.5616
 8892TIP3   OH250870   2.486   1.980   2.025 -0.5274  0.1920 -0.0468
 8892TIP3    H150871   2.460   1.928   1.949 -0.9367 -0.0441  0.2511
 8892TIP3    H250872   2.512   2.065   1.988 -3.0851  0.9761 -0.2670
 8893TIP3   OH250873   7.189   5.179   1.592 -0.2660  0.0532 -0.1833
 8893TIP3    H150874   7.105   5.175   1.547 -0.1690  0.6617 -0.4244
 8893TIP3    H250875   7.214   5.272   1.588  0.7235 -0.2201 -0.6880
 8894TIP3   OH250876   4.203   5.632   8.899 -0.6467 -0.1988  0.2069
 8894TIP3    H150877   4.275   5.602   8.954  1.4632  0.1106 -2.2135
 8894TIP3    H250878   4.201   5.727   8.912 -1.0151 -0.2681  0.6904
 8895TIP3   OH250879   7.244   5.215   2.194  0.2370 -0.5065  0.0932
 8895TIP3    H150880   7.226   5.204   2.101 -0.3448  0.0283  0.1373
 8895TIP3    H250881   7.169   5.264   2.228  0.5683 -0.4645  0.7899
 8896TIP3   OH250882   0.708   6.109   3.158 -0.5687 -0.2861  0.0460
 8896TIP3    H150883   0.744   6.021   3.170 -0.6493 -0.2327  0.7092
 8896TIP3    H250884   0.614   6.096   3.147 -0.4205 -0.3868 -1.2098
 8897TIP3   OH250885   6.065   6.839   1.699  0.5260  0.0152 -0.5236
 8897TIP3    H150886   6.060   6.827   1.794 -0.1585 -0.4819 -0.6201
 8897TIP3    H250887   6.149   6.883   1.685  0.5720  0.2103  0.3231
 8898TIP3   OH250888   7.306   2.412   2.690 -0.4997  0.1441 -0.3194
 8898TIP3    H150889   7.336   2.432   2.601 -0.8687  1.2358 -0.2062
 8898TIP3    H250890   7.242   2.342   2.678 -0.4764  0.2151 -0.9033
 8899TIP3   OH250891   7.321   6.528   9.486 -0.0271  0.1945 -0.1244
 8899TIP3    H150892   7.230   6.513   9.463 -0.2188  1.1277  0.0191
 8899TIP3    H250893   7.322   6.612   9.531  0.8566  0.0426  0.1751
 8900TIP3   OH250894   4.819   3.674   8.255  0.1548 -0.4746 -0.0775
 8900TIP3    H150895   4.741   3.679   8.199  1.1039 -0.6491 -1.4476
 8900TIP3    H250896   4.889   3.648   8.197  1.6157  1.3173  0.7758
 8901TIP3   OH250897   1.754   0.679   8.179  0.0551 -0.0178  0.0461
 8901TIP3    H150898   1.764   0.745   8.249 -0.2337 -1.2987  1.3426
 8901TIP3    H250899   1.788   0.598   8.217 -2.4886 -1.3655 -0.3252
 8902TIP3   OH250900   5.347   2.900   8.578 -0.3164 -0.2877  0.2361
 8902TIP3    H150901   5.399   2.832   8.622  1.1236  0.3653 -0.4016
 8902TIP3    H250902   5.410   2.949   8.526 -0.8863  2.9090  2.2535
 8903TIP3   OH250903   1.253   4.350   9.262 -0.0464  0.0240  0.3213
 8903TIP3    H150904   1.230   4.398   9.342  0.1604  0.3464  0.1905
 8903TIP3    H250905   1.233   4.259   9.282  0.2895  0.0633  0.8467
 8904TIP3   OH250906   6.187   3.715   7.049 -0.0371 -0.1899 -0.1141
 8904TIP3    H150907   6.132   3.644   7.015 -1.3430  0.1773  1.1451
 8904TIP3    H250908   6.195   3.776   6.975 -0.3169 -0.8284 -0.6832
 8905TIP3   OH250909   6.439   4.032   8.162 -0.2422 -0.0439  0.6867
 8905TIP3    H150910   6.384   3.985   8.224  0.3678  0.3567  1.5531
 8905TIP3    H250911   6.483   4.099   8.215 -2.0128  2.3947 -0.6665
 8906TIP3   OH250912   5.860   0.334   8.129 -0.1308 -0.4444 -0.2544
 8906TIP3    H150913   5.833   0.386   8.053  1.3601  0.8855  0.0823
 8906TIP3    H250914   5.859   0.395   8.202  1.2962 -0.9622  0.2266
 8907TIP3   OH250915   6.911   4.855   8.030 -0.7508  0.2144 -0.0561
 8907TIP3    H150916   6.906   4.908   7.951 -1.5248 -1.4093 -1.1521
 8907TIP3    H250917   6.902   4.764   7.999  0.8527 -0.6137  1.6938
 8908TIP3   OH250918   5.765   0.719   1.643  0.0263 -0.1664 -0.1608
 8908TIP3    H150919   5.769   0.694   1.735 -0.2309  0.6559  0.0902
 8908TIP3    H250920   5.680   0.763   1.635  1.2056  2.3342 -0.0881
 8909TIP3   OH250921   5.771   5.253   7.132  1.0636 -0.5803 -0.3977
 8909TIP3    H150922   5.696   5.271   7.076  1.4925  1.1935 -0.4412
 8909TIP3    H250923   5.822   5.188   7.084  0.1944 -0.8884 -0.9230
 8910TIP3   OH250924   2.065   2.282   8.378  0.4298 -0.0016  0.5313
 8910TIP3    H150925   2.138   2.255   8.434  0.9190  2.7027  1.3357
 8910TIP3    H250926   1.995   2.305   8.439  1.0389  3.2056  0.2043
 8911TIP3   OH250927   7.209   2.472   9.792  0.0253  0.8289 -0.2224
 8911TIP3    H150928   7.282   2.459   9.730  1.5148  1.4192  1.3408
 8911TIP3    H250929   7.141   2.513   9.739 -0.0440 -1.6011 -2.2474
 8912TIP3   OH250930   5.746   2.875   8.274 -0.1650 -0.7174  0.5160
 8912TIP3    H150931   5.735   2.918   8.190  1.3107 -1.0300  0.1240
 8912TIP3    H250932   5.673   2.814   8.281 -1.3219  0.6052  0.3118
 8913TIP3   OH250933   1.440   5.020   0.911  0.4450 -0.6358  0.0825
 8913TIP3    H150934   1.408   4.972   0.835 -0.5762  0.4977 -0.2357
 8913TIP3    H250935   1.407   5.109   0.899  1.4030 -0.1007  1.1752
 8914TIP3   OH250936   3.068   4.974   0.218 -0.5635 -0.1411 -0.0421
 8914TIP3    H150937   3.042   5.051   0.168 -0.7467 -1.1964 -1.6375
 8914TIP3    H250938   2.986   4.927   0.235 -0.6024  0.5287  1.9087
 8915TIP3   OH250939   0.819   7.574   9.567 -0.5903  0.3060  0.2185
 8915TIP3    H150940   0.738   7.562   9.616 -0.3413  1.2594  0.8995
 8915TIP3    H250941   0.793   7.626   9.491 -0.9619 -1.1021 -0.6460
 8916TIP3   OH250942   2.389   0.390   9.019 -0.7493 -0.5177  0.0159
 8916TIP3    H150943   2.325   0.366   9.086 -1.8991  1.2766 -0.3548
 8916TIP3    H250944   2.473   0.360   9.054 -1.6397 -1.9436  1.0315
 8917TIP3   OH250945   5.095   2.715   9.749  0.3969 -0.2860  0.5749
 8917TIP3    H150946   5.022   2.658   9.727 -0.4705  0.6641  0.9267
 8917TIP3    H250947   5.136   2.734   9.664 -0.5223  0.1758  0.2205
 8918TIP3   OH250948   5.935   0.867   1.434 -0.3833  0.2686 -0.1948
 8918TIP3    H150949   6.012   0.825   1.396  1.2151  1.8483  1.1525
 8918TIP3    H250950   5.896   0.799   1.490 -0.6117 -0.8658 -1.6845
 8919TIP3   OH250951   5.064   6.117   9.148 -0.8713  0.1705  0.4391
 8919TIP3    H150952   4.999   6.058   9.109 -1.1880  0.0930  1.0691
 8919TIP3    H250953   5.025   6.144   9.231  0.2314 -0.5019  1.2147
 8920TIP3   OH250954   5.206   6.437   9.890  0.4256  0.0136 -0.2921
 8920TIP3    H150955   5.271   6.370   9.908  0.1190 -0.1862  0.0782
 8920TIP3    H250956   5.257   6.513   9.862  0.9386  0.3391  1.4075
 8921TIP3   OH250957   2.303   2.729   6.678 -0.2802 -0.6519  0.0164
 8921TIP3    H150958   2.276   2.710   6.588  2.8004 -0.3272 -1.0811
 8921TIP3    H250959   2.337   2.646   6.711  1.1529 -0.1672 -0.1581
 8922TIP3   OH250960   0.887   1.166   7.197 -0.1344 -0.0711 -0.6174
 8922TIP3    H150961   0.959   1.140   7.140  0.0808  0.9954 -0.8647
 8922TIP3    H250962   0.860   1.251   7.163 -0.5032  0.2361  0.4113
 8923TIP3   OH250963   3.404   0.968   9.076 -0.2042 -0.1555  0.2203
 8923TIP3    H150964   3.345   1.042   9.088  0.3360  0.3663 -0.2600
 8923TIP3    H250965   3.387   0.937   8.987  0.7384  0.4560 -0.1857
 8924TIP3   OH250966   2.743   1.592   7.150  0.8700 -0.1526  0.1423
 8924TIP3    H150967   2.716   1.538   7.075 -2.3673  0.2241  0.9300
 8924TIP3    H250968   2.808   1.652   7.113 -0.1867 -0.3699 -2.2442
 8925TIP3   OH250969   1.860   7.393   0.235  0.5460  0.0705  0.1059
 8925TIP3    H150970   1.831   7.402   0.144  1.1933  1.3956 -0.0025
 8925TIP3    H250971   1.783   7.362   0.282 -0.0259  0.1316 -0.7628
 8926TIP3   OH250972   0.091   0.783   0.773 -0.8208 -0.3583  0.0648
 8926TIP3    H150973   0.129   0.846   0.834  0.1775 -1.1146  0.2638
 8926TIP3    H250974   0.010   0.754   0.816  0.9342 -2.5589  2.2336
 8927TIP3   OH250975   5.632   2.236   1.132 -0.1238  0.0416 -0.4188
 8927TIP3    H150976   5.576   2.196   1.199  1.4342 -1.7069 -0.0904
 8927TIP3    H250977   5.679   2.306   1.179  1.1473 -1.3356  0.4563
 8928TIP3   OH250978   1.019   5.658   3.138  0.3457 -0.5783 -0.2795
 8928TIP3    H150979   1.016   5.615   3.223 -1.9160  1.0770  0.5808
 8928TIP3    H250980   1.040   5.588   3.076  2.3865 -1.7697  1.5928
 8929TIP3   OH250981   3.917   3.467   8.131  0.5591  0.0045 -0.1266
 8929TIP3    H150982   3.830   3.508   8.139  0.8233  0.4729  0.3965
 8929TIP3    H250983   3.920   3.404   8.203  0.1052 -1.0602 -1.0017
 8930TIP3   OH250984   6.561   7.262   7.760 -0.1439 -0.2148  0.9249
 8930TIP3    H150985   6.649   7.299   7.746 -0.5788  0.0360 -1.5689
 8930TIP3    H250986   6.518   7.325   7.818  0.3392  1.3216 -0.3097
 8931TIP3   OH250987   5.230   3.410   9.795 -0.1573  0.6338 -0.0285
 8931TIP3    H150988   5.146   3.428   9.754 -1.3330 -0.6702  1.6374
 8931TIP3    H250989   5.216   3.328   9.842  1.8379  0.7565  0.8780
 8932TIP3   OH250990   7.113   7.021   8.638 -0.1534  0.1760  0.3246
 8932TIP3    H150991   7.111   6.935   8.679  0.3510 -0.9619 -1.8812
 8932TIP3    H250992   7.163   7.008   8.557 -0.6610  2.3819 -0.4168
 8933TIP3   OH250993   2.419   2.118   0.236  0.8223  0.4100 -0.0651
 8933TIP3    H150994   2.406   2.187   0.301  1.2692 -1.1760  1.7934
 8933TIP3    H250995   2.361   2.047   0.263  1.7188 -0.6561 -0.8164
 8934TIP3   OH250996   3.300   4.517   7.183 -0.1653 -0.3334  0.1807
 8934TIP3    H150997   3.231   4.451   7.194 -0.1687 -0.1857  1.2066
 8934TIP3    H250998   3.321   4.543   7.273 -0.2790  1.1880 -0.2228
 8935TIP3   OH250999   0.653   3.252   1.721 -0.2335 -0.6485  0.3147
 8935TIP3    H151000   0.568   3.256   1.764 -0.2750 -1.9829  0.3892
 8935TIP3    H251001   0.639   3.295   1.636 -1.2946 -1.8634 -0.1559
 8936TIP3   OH251002   5.494   5.498   8.766  0.0141 -0.3602  0.0144
 8936TIP3    H151003   5.469   5.420   8.717  0.1444  0.2482 -1.0700
 8936TIP3    H251004   5.425   5.561   8.747  0.4326  0.1150  0.0473
 8937TIP3   OH251005   1.619   0.294   0.813 -0.0778  0.3035  0.1375
 8937TIP3    H151006   1.660   0.378   0.792 -1.5003  0.6471 -1.4375
 8937TIP3    H251007   1.641   0.237   0.739  0.4591 -0.5949  0.9595
 8938TIP3   OH251008   4.058   0.051   9.519  0.2070 -0.6777 -0.1484
 8938TIP3    H151009   3.981   0.083   9.566  1.1002 -0.7173  1.4173
 8938TIP3    H251010   4.085   0.125   9.464  0.0315 -0.0525  0.5816
 8939TIP3   OH251011   7.418   5.719   8.778  0.4699  0.2760 -0.6237
 8939TIP3    H151012   7.365   5.692   8.853  2.2484 -2.5946 -0.2427
 8939TIP3    H251013   7.452   5.805   8.803  0.3991 -0.2545  1.5392
 8940TIP3   OH251014   3.015   5.412   0.411 -0.4537 -0.8025 -0.7354
 8940TIP3    H151015   3.076   5.468   0.365 -1.4657  1.1976  0.2362
 8940TIP3    H251016   3.069   5.363   0.473  0.1205  1.6298  0.7901
 8941TIP3   OH251017   5.442   2.675   1.562 -0.4540  0.8406 -0.0161
 8941TIP3    H151018   5.403   2.641   1.481  2.7230 -1.9809 -0.6055
 8941TIP3    H251019   5.494   2.751   1.533  1.9142 -1.0508 -1.1219
 8942TIP3   OH251020   7.102   2.511   7.718 -0.2815  0.1592  0.2348
 8942TIP3    H151021   7.139   2.518   7.806 -1.6274 -2.0025  1.0497
 8942TIP3    H251022   7.176   2.527   7.660  1.3199 -1.1734  1.7840
 8943TIP3   OH251023   5.743   5.979   7.799 -0.4418  0.5319  0.0679
 8943TIP3    H151024   5.734   6.056   7.855 -0.9106  0.1634  0.5060
 8943TIP3    H251025   5.836   5.961   7.798 -0.4277  0.5415  0.7351
 8944TIP3   OH251026   2.450   1.260   0.150  0.5966  0.0236  0.0284
 8944TIP3    H151027   2.468   1.298   0.064  2.5949 -0.0597  0.3446
 8944TIP3    H251028   2.516   1.190   0.159 -0.8670 -1.3119  0.8194
 8945TIP3   OH251029   2.026   0.998   0.298  0.4943 -0.2317  0.2274
 8945TIP3    H151030   2.037   1.088   0.268 -2.3780  0.0605 -0.1711
 8945TIP3    H251031   2.090   0.948   0.247  0.0372  1.1364 -1.7994
 8946TIP3   OH251032   4.787   6.077   8.367 -0.4983  0.1115  0.4968
 8946TIP3    H151033   4.782   5.997   8.315 -1.2435  0.0495  0.6619
 8946TIP3    H251034   4.699   6.089   8.401 -0.7896  1.8088 -0.7376
 8947TIP3   OH251035   1.131   4.608   1.674  0.1122 -0.2178 -0.0122
 8947TIP3    H151036   1.055   4.581   1.622  0.2492  0.1646 -0.4133
 8947TIP3    H251037   1.172   4.526   1.700 -0.6881 -0.4426  0.5812
 8948TIP3   OH251038   1.271   7.187   0.120  0.6767 -0.0355 -0.2885
 8948TIP3    H151039   1.360   7.209   0.092  0.6866  2.0007  1.1374
 8948TIP3    H251040   1.256   7.243   0.196 -0.6744 -2.5961  1.4826
 8949TIP3   OH251041   2.167   0.707   7.929 -0.3571  0.3418 -0.1415
 8949TIP3    H151042   2.192   0.765   7.857 -0.2030 -0.2094 -0.5442
 8949TIP3    H251043   2.073   0.721   7.940 -0.2080  1.1431  0.2088
 8950TIP3   OH251044   6.128   4.249   0.940 -0.4085 -0.1281 -0.2679
 8950TIP3    H151045   6.084   4.169   0.968 -0.7723  0.6154  1.4134
 8950TIP3    H251046   6.204   4.257   0.997  0.0929  0.3194 -0.9642
 8951TIP3   OH251047   6.672   2.816   2.027  0.2166  0.1336  0.1809
 8951TIP3    H151048   6.591   2.768   2.045 -0.5328  1.5960  0.8711
 8951TIP3    H251049   6.645   2.890   1.973  1.6362 -1.2024 -2.5967
 8952TIP3   OH251050   6.576   5.802   1.208  0.0306  0.2328  0.2669
 8952TIP3    H151051   6.599   5.837   1.295 -0.3396 -0.6705  0.7375
 8952TIP3    H251052   6.657   5.807   1.158  0.4614 -0.0195  0.9305
 8953TIP3   OH251053   1.770   2.058   7.273 -0.4814  0.9737 -0.0258
 8953TIP3    H151054   1.804   1.993   7.212 -1.1267 -0.0022  0.6178
 8953TIP3    H251055   1.748   2.133   7.218  0.4987  0.7446 -0.7530
 8954TIP3   OH251056   5.152   0.471   7.312  0.4167  0.2261 -0.3077
 8954TIP3    H151057   5.221   0.450   7.250 -0.0535 -2.1874 -0.1112
 8954TIP3    H251058   5.145   0.394   7.368 -1.5600  0.9111  0.5027
 8955TIP3   OH251059   1.607   7.168   9.382  0.5844  0.2318 -0.0927
 8955TIP3    H151060   1.547   7.119   9.326 -0.1944 -1.0214  1.7249
 8955TIP3    H251061   1.625   7.248   9.334 -0.7272 -0.3962 -1.7221
 8956TIP3   OH251062   5.245   7.651   2.375 -0.0099 -0.0865  0.1852
 8956TIP3    H151063   5.241   7.746   2.381 -0.2046 -0.1715  2.2937
 8956TIP3    H251064   5.329   7.629   2.417 -0.0135 -0.8512 -0.1993
 8957TIP3   OH251065   0.627   6.482   2.092 -0.6302  0.1001 -0.2994
 8957TIP3    H151066   0.534   6.485   2.068 -0.6676  1.1715 -0.0727
 8957TIP3    H251067   0.673   6.489   2.008 -0.7684  1.4286 -0.2928
 8958TIP3   OH251068   5.478   1.120   0.666 -0.2862  0.8155 -0.7410
 8958TIP3    H151069   5.496   1.029   0.644  0.4594  1.0716 -1.2315
 8958TIP3    H251070   5.389   1.135   0.634 -1.1438 -0.2457  0.9895
 8959TIP3   OH251071   0.283   5.222   1.050 -0.4090 -0.1223 -0.1871
 8959TIP3    H151072   0.356   5.167   1.021  1.1340  2.7381 -2.1341
 8959TIP3    H251073   0.245   5.256   0.969 -1.7332  1.1546  0.9072
 8960TIP3   OH251074   2.481   3.391   9.644  0.3491 -0.4047 -0.4631
 8960TIP3    H151075   2.534   3.313   9.627  0.7531 -0.2969  0.2269
 8960TIP3    H251076   2.395   3.370   9.609  0.9428 -0.4449 -1.9338
 8961TIP3   OH251077   2.378   6.773   2.495  0.5559 -0.1390  0.1208
 8961TIP3    H151078   2.292   6.795   2.460  0.7371 -0.0401 -0.2623
 8961TIP3    H251079   2.379   6.815   2.582  0.8224  1.2414 -0.5135
 8962TIP3   OH251080   0.292   2.763   0.184 -0.1716 -0.4381 -0.2857
 8962TIP3    H151081   0.265   2.799   0.269  0.6393  1.2334 -0.7003
 8962TIP3    H251082   0.235   2.806   0.121 -0.2151 -1.0541 -0.6652
 8963TIP3   OH251083   0.602   3.207   2.706  0.5850 -0.6516 -0.7017
 8963TIP3    H151084   0.618   3.214   2.800  3.1443 -0.0942 -1.0939
 8963TIP3    H251085   0.685   3.233   2.666 -0.5601 -0.4862 -3.1405
 8964TIP3   OH251086   1.702   6.592   1.736 -0.3775  0.1429 -0.4765
 8964TIP3    H151087   1.663   6.511   1.770  2.7676 -1.0384  0.6927
 8964TIP3    H251088   1.715   6.574   1.642 -1.0487 -0.0986 -0.5317
 8965TIP3   OH251089   4.254   0.827   1.093 -0.4449  0.0489 -0.2571
 8965TIP3    H151090   4.274   0.867   1.178 -1.3379  0.3057 -0.1532
 8965TIP3    H251091   4.258   0.733   1.109 -0.3444  0.0964  0.0056
 8966TIP3   OH251092   7.465   1.478   8.970 -0.1101  0.2640  0.3413
 8966TIP3    H151093   7.452   1.404   8.910 -0.0484  0.5871 -0.0720
 8966TIP3    H251094   7.414   1.455   9.048  1.0457 -0.8743  0.7977
 8967TIP3   OH251095   3.923   1.418   9.865  0.7187 -0.6912 -0.1076
 8967TIP3    H151096   3.874   1.374   9.796  1.2518 -0.9207 -0.3437
 8967TIP3    H251097   4.011   1.427   9.830  1.0055 -0.8454  0.5584
 8968TIP3   OH251098   3.204   5.501   0.214  0.4056 -0.0264  0.5001
 8968TIP3    H151099   3.277   5.495   0.153  1.6412  1.8277  1.7054
 8968TIP3    H251100   3.197   5.594   0.233 -2.5360 -0.0869  0.1770
 8969TIP3   OH251101   0.010   6.672   7.491 -0.1075  0.2201 -0.0914
 8969TIP3    H151102   0.070   6.598   7.481  1.8042  1.8865 -1.8582
 8969TIP3    H251103  -0.010   6.675   7.584  0.8051 -1.7111  0.2147
 8970TIP3   OH251104   1.534   1.472   9.841  0.4887  0.3166  0.4201
 8970TIP3    H151105   1.483   1.534   9.894 -0.2304  0.8430 -0.8319
 8970TIP3    H251106   1.521   1.388   9.883  0.6640  0.8486  1.5847
 8971TIP3   OH251107   3.879   1.940   1.764 -0.2767 -0.3356  0.2105
 8971TIP3    H151108   3.920   1.880   1.702 -0.6782 -0.5691  0.1668
 8971TIP3    H251109   3.836   1.883   1.828  0.4488 -0.1031  0.9218
 8972TIP3   OH251110   6.312   6.979  10.020  0.0737 -0.3359 -0.6713
 8972TIP3    H151111   6.401   6.947  10.035  0.1261  0.2327  0.2921
 8972TIP3    H251112   6.324   7.061   9.973  0.0640 -0.1656 -0.3758
 8973TIP3   OH251113   5.843   1.024   8.306  0.6161  0.1322  0.1832
 8973TIP3    H151114   5.814   1.096   8.249 -1.8928 -0.6779  0.3053
 8973TIP3    H251115   5.823   1.054   8.394 -0.8548 -0.8299  0.2057
 8974TIP3   OH251116   7.014   0.918   2.549  0.4117  0.5555 -0.2235
 8974TIP3    H151117   6.927   0.925   2.588 -1.3999 -0.3249 -3.7211
 8974TIP3    H251118   7.030   1.004   2.509  0.3967  0.2180 -0.9725
 8975TIP3   OH251119   0.330   3.491   8.100 -0.1610 -0.1506  0.6062
 8975TIP3    H151120   0.405   3.468   8.155  2.5216 -0.0616 -2.6899
 8975TIP3    H251121   0.345   3.582   8.075 -1.8038  0.1114  0.4480
 8976TIP3   OH251122   2.365   7.466   9.066  0.0016 -0.2579  0.0515
 8976TIP3    H151123   2.378   7.430   8.979  2.0300  0.8383 -0.1510
 8976TIP3    H251124   2.305   7.539   9.053  0.5828  0.1264 -0.4954
 8977TIP3   OH251125   5.421   3.684   9.164 -0.6440 -0.8196 -0.3016
 8977TIP3    H151126   5.367   3.635   9.102 -1.0884  0.7042 -1.1722
 8977TIP3    H251127   5.481   3.734   9.109  1.1205 -1.8322  0.6280
 8978TIP3   OH251128   6.028   7.502   1.587 -0.2573 -0.5533 -0.7006
 8978TIP3    H151129   5.950   7.516   1.640 -0.0270  0.6683 -0.6513
 8978TIP3    H251130   6.011   7.550   1.506  0.9732  0.9682 -0.1387
 8979TIP3   OH251131   7.422   6.555   7.498 -0.3419  0.0084 -0.3359
 8979TIP3    H151132   7.395   6.510   7.417 -3.1345  1.2445 -0.2266
 8979TIP3    H251133   7.481   6.624   7.468 -1.5856  0.6455 -1.4151
 8980TIP3   OH251134   3.113   7.422   9.296 -0.2665 -0.4031 -0.5397
 8980TIP3    H151135   3.159   7.344   9.327 -0.8318 -1.2460 -1.7363
 8980TIP3    H251136   3.176   7.466   9.238 -0.1983 -0.3513 -0.4268
 8981TIP3   OH251137   2.977   2.193   8.516 -0.2141 -0.0570  0.2117
 8981TIP3    H151138   2.959   2.199   8.610 -1.4964 -0.5677  0.0226
 8981TIP3    H251139   3.072   2.187   8.510 -0.0850  0.3716  1.4505
 8982TIP3   OH251140   1.323   7.160   2.410  0.3504  0.0228 -0.2951
 8982TIP3    H151141   1.408   7.199   2.387  0.1064  0.6225 -0.1824
 8982TIP3    H251142   1.258   7.222   2.377 -0.0654 -0.7001 -0.8711
 8983TIP3   OH251143   0.617   0.326   6.951 -0.0236 -0.1737 -0.4262
 8983TIP3    H151144   0.659   0.242   6.934 -0.1243 -0.3300  0.0828
 8983TIP3    H251145   0.554   0.307   7.020 -0.0805  0.3111 -0.3458
 8984TIP3   OH251146   5.508   1.698   9.084  0.0415 -0.8990  0.0911
 8984TIP3    H151147   5.426   1.649   9.089 -0.2692 -0.3593  0.3542
 8984TIP3    H251148   5.486   1.776   9.032  0.2751 -0.5455  0.5116
 8985TIP3   OH251149   5.715   0.228   1.466 -0.6957  0.2428  0.1025
 8985TIP3    H151150   5.650   0.251   1.401 -0.6919  1.5274  0.5089
 8985TIP3    H251151   5.764   0.309   1.481 -0.2510 -0.1919  1.1874
 8986TIP3   OH251152   2.760   6.518   1.458 -0.2749  0.0879 -0.5727
 8986TIP3    H151153   2.810   6.437   1.466 -1.1152 -0.4334 -0.4015
 8986TIP3    H251154   2.741   6.544   1.549 -2.1046 -0.8961 -0.6166
 8987TIP3   OH251155   2.264   5.543   0.908 -0.2519 -0.4913 -0.0425
 8987TIP3    H151156   2.278   5.584   0.993  0.8204 -2.3863  0.7682
 8987TIP3    H251157   2.231   5.613   0.852 -0.3633  0.9568  1.7518
 8988TIP3   OH251158   7.527   3.884   1.915  0.1217  0.2357 -0.2855
 8988TIP3    H151159   7.588   3.954   1.894 -1.5618  1.3921 -1.6834
 8988TIP3    H251160   7.440   3.926   1.909 -0.8992 -1.7661 -0.2759
 8989TIP3   OH251161   5.002   0.775   9.223  0.5496  0.0268  0.1072
 8989TIP3    H151162   4.958   0.703   9.179 -0.2330  0.7882 -0.3956
 8989TIP3    H251163   5.062   0.733   9.285  0.2840 -1.0410 -0.3457
 8990TIP3   OH251164   1.630   1.176   1.991  0.0355  0.5754 -0.1476
 8990TIP3    H151165   1.568   1.176   2.064  0.7523 -2.3325  0.6001
 8990TIP3    H251166   1.709   1.217   2.026 -0.0806  0.4669  0.2436
 8991TIP3   OH251167   4.591   2.644   7.074  0.1775 -0.5504 -0.0062
 8991TIP3    H151168   4.639   2.717   7.115  2.0536 -1.5953 -0.2227
 8991TIP3    H251169   4.644   2.620   6.998 -1.2374 -1.1485 -0.8359
 8992TIP3   OH251170   6.787   0.268   8.859  0.6891  0.2097  0.7211
 8992TIP3    H151171   6.850   0.260   8.787 -1.0090 -1.8008 -0.6938
 8992TIP3    H251172   6.782   0.362   8.875  3.1384  0.5233  0.1203
 8993TIP3   OH251173   3.525   0.806   1.542  0.0566  0.0144 -0.3340
 8993TIP3    H151174   3.439   0.847   1.552  0.7923  1.5654 -0.0433
 8993TIP3    H251175   3.537   0.799   1.447 -0.1480  0.3174 -0.3831
 8994TIP3   OH251176   2.686   0.732   0.362  0.1988 -0.4585 -0.2192
 8994TIP3    H151177   2.649   0.755   0.277  0.8663  0.4375 -0.2745
 8994TIP3    H251178   2.692   0.636   0.360 -0.3356 -0.4911 -0.9412
 8995TIP3   OH251179   0.779   6.729   1.940  0.0935 -0.1876  0.0574
 8995TIP3    H151180   0.758   6.689   1.855 -2.6898 -1.2041  1.1166
 8995TIP3    H251181   0.843   6.669   1.979 -0.6988 -1.2444 -0.2113
 8996TIP3   OH251182   1.807   5.495   2.220  0.1900  0.6604  0.3218
 8996TIP3    H151183   1.777   5.501   2.310  0.5804  0.1060  0.4929
 8996TIP3    H251184   1.729   5.472   2.170  0.0895  0.3763  0.6051
 8997TIP3   OH251185   3.666   0.481   6.673  0.5256 -0.6035  0.0229
 8997TIP3    H151186   3.743   0.524   6.708 -1.1897  1.6565  1.2741
 8997TIP3    H251187   3.610   0.466   6.750 -1.5712  0.6844 -1.1438
 8998TIP3   OH251188   1.768   5.173   6.825  0.0212 -0.0113 -0.0005
 8998TIP3    H151189   1.715   5.098   6.853  0.4017 -0.1300  0.4102
 8998TIP3    H251190   1.759   5.236   6.896 -0.9350  0.6661 -0.6981
 8999TIP3   OH251191   0.412   3.203   1.446 -0.1277  0.1573 -0.4131
 8999TIP3    H151192   0.340   3.249   1.403 -0.4361  0.5305  0.4882
 8999TIP3    H251193   0.489   3.257   1.429  0.0466 -0.4659 -1.7528
 9000TIP3   OH251194   1.324   0.956   1.968  0.3952 -0.5067 -0.1178
 9000TIP3    H151195   1.387   0.912   1.911  0.5868 -0.5915  0.1527
 9000TIP3    H251196   1.242   0.907   1.955 -0.1656  0.8333 -1.9749
 9001TIP3   OH251197   1.208   7.449   8.968 -0.0216  1.0462 -0.3148
 9001TIP3    H151198   1.114   7.464   8.981 -0.2075 -0.8543  1.0353
 9001TIP3    H251199   1.225   7.367   9.014  2.4440  1.6645 -0.0008
 9002TIP3   OH251200   2.123   7.172   9.597  0.0090 -0.0910 -0.1283
 9002TIP3    H151201   2.068   7.221   9.536  0.2867 -1.3729 -1.4674
 9002TIP3    H251202   2.158   7.238   9.657 -2.2557  0.8692  0.2270
 9003TIP3   OH251203   6.618   2.713   1.150 -0.9259  0.6877 -0.4142
 9003TIP3    H151204   6.710   2.705   1.125 -1.1580  0.0047 -1.1059
 9003TIP3    H251205   6.610   2.656   1.227 -1.0089 -0.1654 -1.0398
 9004TIP3   OH251206   4.722   3.082   8.395 -0.1893 -0.0255  0.2274
 9004TIP3    H151207   4.749   3.019   8.462  0.9050 -1.3773 -1.4207
 9004TIP3    H251208   4.783   3.068   8.323 -2.8356 -0.4245 -2.1060
 9005TIP3   OH251209   0.912   6.591   3.124 -0.5523 -0.1536  0.1985
 9005TIP3    H151210   0.918   6.542   3.206  0.4286  0.9217  0.7958
 9005TIP3    H251211   0.842   6.547   3.075 -0.6464 -1.2738  1.2827
 9006TIP3   OH251212   5.361   0.947   3.024 -0.0382  0.1117  0.0236
 9006TIP3    H151213   5.278   0.965   3.068  0.8642  1.3193  1.2997
 9006TIP3    H251214   5.359   0.852   3.010 -1.4792  0.0625  0.3236
 9007TIP3   OH251215   6.831   7.598   9.258 -0.1955  0.4243 -0.1597
 9007TIP3    H151216   6.925   7.618   9.253 -0.2817  0.7160 -0.6597
 9007TIP3    H251217   6.797   7.620   9.172 -0.9819  1.7110  0.4460
 9008TIP3   OH251218   1.778   4.241   1.296 -0.4012 -0.4621 -0.3991
 9008TIP3    H151219   1.739   4.163   1.335 -0.8854 -0.2464 -0.4450
 9008TIP3    H251220   1.793   4.218   1.205  1.7009 -1.3284  0.1289
 9009TIP3   OH251221   3.020   2.887   0.303 -0.6046 -0.7355 -0.3303
 9009TIP3    H151222   3.106   2.858   0.333 -0.9113 -2.6177 -1.1243
 9009TIP3    H251223   3.030   2.902   0.209 -0.9610 -0.2227 -0.2901
 9010TIP3   OH251224   6.565   5.764   9.529  0.0001  0.0907 -0.1986
 9010TIP3    H151225   6.494   5.827   9.544 -0.4196  0.0391 -1.8501
 9010TIP3    H251226   6.521   5.679   9.522  0.1927  0.0884 -1.4584
 9011TIP3   OH251227   0.220   0.684   8.916  0.3033  0.3034  1.1598
 9011TIP3    H151228   0.163   0.757   8.939 -1.7592 -1.1192  0.7835
 9011TIP3    H251229   0.184   0.649   8.835  2.6833  0.2963 -0.0002
 9012TIP3   OH251230   0.559   3.552   8.578  0.4143  0.0770  0.3043
 9012TIP3    H151231   0.645   3.570   8.614  0.3898 -0.5946  0.7168
 9012TIP3    H251232   0.576   3.508   8.495  0.4647  0.4913  0.0908
 9013TIP3   OH251233   7.056   6.657   1.033  0.2157  0.5252  0.2231
 9013TIP3    H151234   7.100   6.741   1.045 -1.4874  1.4051  0.5995
 9013TIP3    H251235   6.964   6.680   1.018 -0.1273 -1.2309 -0.6184
 9014TIP3   OH251236   7.213   5.841   7.967  0.4248 -0.4616 -0.2548
 9014TIP3    H151237   7.130   5.865   8.010  0.2719 -0.7678 -0.3756
 9014TIP3    H251238   7.268   5.809   8.039 -0.1461 -1.8278 -0.3909
 9015TIP3   OH251239   0.511   6.527   8.839 -0.2071 -0.0737 -0.1010
 9015TIP3    H151240   0.574   6.551   8.906 -0.3666  2.4581 -0.7679
 9015TIP3    H251241   0.426   6.546   8.878 -0.2834  1.8857 -1.1197
 9016TIP3   OH251242   4.564   1.030   9.746 -0.3196  0.1670 -0.1391
 9016TIP3    H151243   4.521   1.113   9.767 -1.3912 -0.2992 -0.4711
 9016TIP3    H251244   4.602   1.044   9.659 -3.3132 -0.7101 -1.7150
 9017TIP3   OH251245   6.894   6.962   1.669 -0.2331 -0.6101 -0.0434
 9017TIP3    H151246   6.880   6.869   1.683 -0.9492 -0.3024  1.5269
 9017TIP3    H251247   6.855   7.004   1.746  4.4014  0.6973  1.9449
 9018TIP3   OH251248   3.635   0.041   9.102 -0.2961 -0.3306 -0.0735
 9018TIP3    H151249   3.702   0.109   9.106  0.3982 -0.9618 -0.6385
 9018TIP3    H251250   3.557   0.082   9.138  0.3189  0.5119  0.3400
 9019TIP3   OH251251   0.862   2.391   1.199 -0.3265  0.0757 -0.0426
 9019TIP3    H151252   0.865   2.366   1.291  1.5065 -0.3256 -0.1690
 9019TIP3    H251253   0.917   2.326   1.155 -2.4113 -0.6904 -1.6964
 9020TIP3   OH251254   3.017   5.859   8.477 -0.1567 -0.1814  0.0970
 9020TIP3    H151255   3.054   5.777   8.443  0.0220 -0.3426  0.6812
 9020TIP3    H251256   3.007   5.914   8.399  0.6951 -0.3728 -0.1589
 9021TIP3   OH251257   4.815   0.450   1.291  0.0672 -0.0646  0.0633
 9021TIP3    H151258   4.824   0.355   1.282 -1.2588 -0.1227 -1.0200
 9021TIP3    H251259   4.866   0.471   1.369  0.7153 -1.6067  0.1060
 9022TIP3   OH251260   2.310   0.092   1.433  0.2468  0.2201  0.0553
 9022TIP3    H151261   2.295  -0.003   1.433  0.6050  0.1564 -0.4569
 9022TIP3    H251262   2.307   0.116   1.340 -1.4642  0.9855  0.2658
 9023TIP3   OH251263   7.113   1.924   0.171 -0.7108 -0.1026 -0.0198
 9023TIP3    H151264   7.090   1.845   0.220  0.8874 -0.0735  0.8338
 9023TIP3    H251265   7.204   1.912   0.147  0.0040  2.0194  1.2885
 9024TIP3   OH251266   0.544   6.222   1.848  0.2989 -0.2977 -0.4052
 9024TIP3    H151267   0.482   6.191   1.783  0.4336 -0.2143 -0.5730
 9024TIP3    H251268   0.504   6.300   1.885  0.4269 -0.0887 -0.7049
 9025TIP3   OH251269   4.158   0.556   7.755 -0.2891 -0.1027 -0.5851
 9025TIP3    H151270   4.078   0.524   7.713 -0.6579 -0.0811  0.0822
 9025TIP3    H251271   4.222   0.486   7.742  0.2097  0.7010 -2.8668
 9026TIP3   OH251272   3.760   3.413   9.723 -0.6778  0.1165  0.1166
 9026TIP3    H151273   3.701   3.459   9.783  0.8247  0.5243  1.3209
 9026TIP3    H251274   3.807   3.351   9.778  0.6034  0.3742 -0.6424
 9027TIP3   OH251275   1.473   5.993   9.965 -0.8554 -0.4364 -0.0534
 9027TIP3    H151276   1.568   5.990   9.961 -0.9230 -1.5764 -1.3125
 9027TIP3    H251277   1.454   6.071  10.018  0.7465  1.1636 -1.6762
 9028TIP3   OH251278   2.954   4.109   1.315  0.2357  0.2931 -0.0795
 9028TIP3    H151279   2.956   4.204   1.315 -1.7650  0.3852  1.2778
 9028TIP3    H251280   2.978   4.085   1.405  1.7055 -0.5698 -0.6553
 9029TIP3   OH251281   4.892   6.196   7.925  0.0490  0.0298 -0.0860
 9029TIP3    H151282   4.809   6.169   7.885 -1.5391  1.5899  1.8650
 9029TIP3    H251283   4.866   6.229   8.012  2.7782  0.3193  0.7087
 9030TIP3   OH251284   1.490   1.535   0.918 -0.4758  0.5029  0.0414
 9030TIP3    H151285   1.416   1.593   0.931  1.3091  2.4367  2.6599
 9030TIP3    H251286   1.542   1.577   0.850 -0.1148  1.0069  0.6192
 9031TIP3   OH251287   3.832   2.068   8.330 -0.2834 -0.1291  0.5981
 9031TIP3    H151288   3.811   1.975   8.324 -0.3143 -0.1322  0.7679
 9031TIP3    H251289   3.786   2.107   8.255 -0.3148 -0.2416  0.5582
 9032TIP3   OH251290   6.873   3.645   0.288  0.2639 -0.3824  0.3811
 9032TIP3    H151291   6.794   3.593   0.279 -1.8485  2.6311  0.1786
 9032TIP3    H251292   6.893   3.643   0.381 -0.8772 -0.0926  0.6481
 9033TIP3   OH251293   0.888   4.622   8.766 -0.2521 -0.3524  0.0113
 9033TIP3    H151294   0.924   4.669   8.691 -0.6199 -0.2391 -0.0939
 9033TIP3    H251295   0.832   4.555   8.728 -1.4104  0.4741  0.1947
 9034TIP3   OH251296   7.052   0.585   8.845  0.1086 -0.9176  0.0104
 9034TIP3    H151297   7.063   0.495   8.814 -1.9273 -0.6322 -1.7511
 9034TIP3    H251298   6.958   0.593   8.863 -0.4229  1.6895 -2.9821
 9035TIP3   OH251299   5.577   5.179   7.786 -0.2561 -0.5495  0.3533
 9035TIP3    H151300   5.659   5.131   7.775 -0.3644 -0.4935 -0.9585
 9035TIP3    H251301   5.559   5.215   7.699 -2.0207 -1.1382  0.4333
 9036TIP3   OH251302   2.051   6.554   0.286 -0.1806 -0.3022 -0.3223
 9036TIP3    H151303   2.052   6.519   0.375 -0.7275  0.0639 -0.1644
 9036TIP3    H251304   2.110   6.629   0.289  1.5160 -1.5663 -0.8279
 9037TIP3   OH251305   3.386   7.595   3.028 -0.4940  0.4144  0.5845
 9037TIP3    H151306   3.294   7.589   3.054 -1.0749 -0.0962 -1.4041
 9037TIP3    H251307   3.383   7.629   2.939  1.0930 -1.9352 -0.4579
 9038TIP3   OH251308   3.420   2.977   2.335  0.4667 -0.1718 -0.5116
 9038TIP3    H151309   3.388   2.968   2.245  0.0326 -1.1437 -0.2779
 9038TIP3    H251310   3.341   2.990   2.388  0.8494  2.3863 -0.4562
 9039TIP3   OH251311   4.362   1.966   2.003  0.3260  0.3571  0.6287
 9039TIP3    H151312   4.354   1.881   2.046  2.5681 -0.0131  0.4351
 9039TIP3    H251313   4.320   1.954   1.918 -1.4238  0.1850  1.4745
 9040TIP3   OH251314   5.603   2.064   7.610 -0.1496 -0.3277 -0.1485
 9040TIP3    H151315   5.508   2.066   7.620 -0.0006  1.1105  1.5206
 9040TIP3    H251316   5.623   1.973   7.588 -1.8847 -0.6667 -0.5072
 9041TIP3   OH251317   1.926   4.387   0.703  0.0930 -0.5255 -0.0187
 9041TIP3    H151318   1.976   4.334   0.641 -1.3581  0.3719 -2.0466
 9041TIP3    H251319   1.988   4.407   0.773  1.4395 -2.6081 -0.5192
 9042TIP3   OH251320   3.588   3.345   9.208 -0.3900  0.2529 -0.0136
 9042TIP3    H151321   3.530   3.420   9.192  1.0444  1.2162 -0.9492
 9042TIP3    H251322   3.600   3.344   9.303 -0.8293  0.8946  0.0590
 9043TIP3   OH251323   7.137   4.741   8.870 -0.1739  0.3130  0.0988
 9043TIP3    H151324   7.149   4.830   8.905  0.5373 -0.2857  1.4283
 9043TIP3    H251325   7.184   4.742   8.787  1.0967  0.7607  0.7965
 9044TIP3   OH251326   1.173   5.762   8.608  0.2681 -0.2239  0.0757
 9044TIP3    H151327   1.252   5.811   8.584 -0.5335  1.9147  1.4412
 9044TIP3    H251328   1.166   5.772   8.703 -1.8919  0.0892 -0.0485
 9045TIP3   OH251329   2.251   2.979   8.785 -0.4854 -0.8120  0.2295
 9045TIP3    H151330   2.311   3.041   8.743 -0.4398 -0.7164  0.4359
 9045TIP3    H251331   2.281   2.893   8.756 -0.3005 -0.7599  0.2670
 9046TIP3   OH251332   4.316   2.622   0.105 -0.2139  0.5486 -0.0543
 9046TIP3    H151333   4.334   2.669   0.023 -1.3094 -0.0990 -0.6863
 9046TIP3    H251334   4.343   2.532   0.088 -1.9895  0.0291 -0.3097
 9047TIP3   OH251335   2.649   0.774   0.872  0.4430  0.2879 -0.5005
 9047TIP3    H151336   2.643   0.831   0.796  2.1420  1.6571  0.3163
 9047TIP3    H251337   2.743   0.766   0.889  0.1221 -0.2267  1.2565
 9048TIP3   OH251338   2.031   7.634   8.309 -0.1444  0.2258  0.4017
 9048TIP3    H151339   2.037   7.599   8.398  0.0663 -1.2893 -0.1758
 9048TIP3    H251340   2.055   7.726   8.318 -2.2397  0.6900  2.2368
 9049TIP3   OH251341   6.094   7.499   8.681 -0.2550  0.1524  0.0076
 9049TIP3    H151342   6.019   7.558   8.692 -1.1360 -0.8728 -0.3602
 9049TIP3    H251343   6.055   7.413   8.668  0.8629  0.0168 -3.3271
 9050TIP3   OH251344   2.280   6.481   8.758  0.2273  0.2499  0.0301
 9050TIP3    H151345   2.241   6.432   8.686  0.3308 -0.0783  0.1988
 9050TIP3    H251346   2.219   6.553   8.774  0.6308  0.8580 -0.9816
 9051TIP3   OH251347   4.002   3.528   9.647 -0.0306  0.1239  0.6306
 9051TIP3    H151348   3.918   3.492   9.673  0.6285 -0.2008  2.4438
 9051TIP3    H251349   4.044   3.554   9.729  1.3347  0.9504 -0.2870
 9052TIP3   OH251350   2.714   4.814   9.983 -0.3897  0.2664 -0.6723
 9052TIP3    H151351   2.698   4.720   9.991 -2.2667  0.6326  0.4040
 9052TIP3    H251352   2.635   4.849   9.942 -0.8758  1.6778  1.2992
 9053TIP3   OH251353   0.870   6.694   1.598 -0.6921  0.0575  0.4647
 9053TIP3    H151354   0.868   6.772   1.543 -2.5810  0.6590  1.3185
 9053TIP3    H251355   0.865   6.621   1.536  1.8851  0.5220 -0.3972
 9054TIP3   OH251356   6.418   4.696   9.313 -0.2130 -0.5058  0.0043
 9054TIP3    H151357   6.483   4.762   9.292  0.5711 -1.8845 -2.1609
 9054TIP3    H251358   6.335   4.734   9.283 -0.1973  0.4768  1.0907
 9055TIP3   OH251359   3.125   1.306   0.751 -0.3125 -0.3031  0.1621
 9055TIP3    H151360   3.062   1.239   0.723  1.5297 -2.6787  1.2776
 9055TIP3    H251361   3.103   1.323   0.842  1.1091 -1.9183  0.8902
 9056TIP3   OH251362   4.592   0.788   9.483  0.4410 -0.0789  0.3550
 9056TIP3    H151363   4.676   0.824   9.511  0.2034  0.0664  0.8942
 9056TIP3    H251364   4.610   0.751   9.397  0.4476  2.2812 -0.7352
 9057TIP3   OH251365   1.854   1.492   8.294 -0.0604 -0.2087  0.2600
 9057TIP3    H151366   1.913   1.507   8.220 -0.1712 -0.6913  0.0681
 9057TIP3    H251367   1.846   1.397   8.299 -1.7295 -0.1387 -0.4380
 9058TIP3   OH251368   0.451   4.315   2.416 -0.1449 -0.2282 -0.0072
 9058TIP3    H151369   0.517   4.273   2.361  0.3035  0.1725  0.2169
 9058TIP3    H251370   0.434   4.399   2.373  0.6701  0.3647  0.7840
 9059TIP3   OH251371   7.095   4.477   1.913  0.4634  0.3788  0.1475
 9059TIP3    H151372   7.122   4.568   1.905 -0.1599  0.4777 -1.1184
 9059TIP3    H251373   7.012   4.472   1.864  1.2931 -1.1982 -1.2071
 9060TIP3   OH251374   1.938   2.941   0.018 -0.1166 -0.0438 -0.1216
 9060TIP3    H151375   1.889   2.860   0.002 -1.2725  0.5682  0.2095
 9060TIP3    H251376   1.958   2.975  -0.069  0.2516 -0.6046 -0.2610
 9061TIP3   OH251377   6.242   0.411   1.157  0.4879  0.2316  0.5322
 9061TIP3    H151378   6.158   0.408   1.202  0.6453 -0.8988  0.8015
 9061TIP3    H251379   6.282   0.325   1.176  0.8097 -0.0540 -1.2802
 9062TIP3   OH251380   7.304   4.571   9.805  0.0724  0.2000 -0.4228
 9062TIP3    H151381   7.391   4.559   9.767 -0.6044 -3.4135 -1.2483
 9062TIP3    H251382   7.252   4.607   9.734 -0.0065 -1.7209 -1.4109
 9063TIP3   OH251383   5.283   2.328   2.300  0.4941  0.1617  0.7684
 9063TIP3    H151384   5.202   2.344   2.251  0.6997  0.5872  0.5685
 9063TIP3    H251385   5.254   2.305   2.388  0.1611  0.4959  0.7460
 9064TIP3   OH251386   4.176   6.432   8.746  0.4479 -0.4752  0.0967
 9064TIP3    H151387   4.157   6.471   8.831  0.6901 -1.3848  0.5846
 9064TIP3    H251388   4.257   6.382   8.760  2.2674  1.8059 -1.4438
 9065TIP3   OH251389   6.000   6.889   8.012  0.2364  0.0548  0.2771
 9065TIP3    H151390   5.967   6.862   8.097 -1.2288  2.3026  0.5106
 9065TIP3    H251391   5.951   6.836   7.949 -0.3529  0.0023  0.7724
 9066TIP3   OH251392   1.444   5.551   1.890  0.0243  0.1849 -0.5016
 9066TIP3    H151393   1.470   5.630   1.937 -1.9348  1.7483 -1.8324
 9066TIP3    H251394   1.353   5.568   1.864 -0.5506 -2.6438 -0.6421
 9067TIP3   OH251395   0.039   0.852   9.101 -0.1692 -0.3971  0.5644
 9067TIP3    H151396  -0.023   0.783   9.123 -0.3097 -0.0866  1.1417
 9067TIP3    H251397  -0.012   0.932   9.101 -0.2605 -0.4001 -1.2361
 9068TIP3   OH251398   3.898   0.984   1.068 -0.3819  0.0388  0.3892
 9068TIP3    H151399   3.858   1.009   1.152  0.5107  2.4308  0.1793
 9068TIP3    H251400   3.826   0.946   1.018 -0.9159 -1.6006  2.2375
 9069TIP3   OH251401   3.234   6.785  -0.007 -0.2461  0.2664 -0.4148
 9069TIP3    H151402   3.255   6.733  -0.084  0.0035  0.1506 -0.2694
 9069TIP3    H251403   3.224   6.722   0.064 -1.3649  0.2935 -0.5307
 9070TIP3   OH251404   2.278   6.887   2.021  0.3187  0.1608  0.2684
 9070TIP3    H151405   2.228   6.820   1.974  0.9837  0.6774 -1.2543
 9070TIP3    H251406   2.232   6.897   2.105 -0.9825 -0.7377 -0.2963
 9071TIP3   OH251407   5.033   1.793   1.723 -0.2823  0.1946  0.5028
 9071TIP3    H151408   5.068   1.882   1.714 -2.1754  0.7874 -2.4517
 9071TIP3    H251409   4.996   1.773   1.637 -1.0873 -2.9952  1.4436
 9072TIP3   OH251410   3.511   1.955   1.839  0.2543 -0.1742  0.1192
 9072TIP3    H151411   3.452   2.020   1.800 -0.4859 -0.2731  1.0347
 9072TIP3    H251412   3.566   2.005   1.899  1.2761 -0.0480 -0.8891
 9073TIP3   OH251413   2.752   4.552   0.049 -0.5058  0.2384  0.0401
 9073TIP3    H151414   2.812   4.573   0.120 -0.7927  2.5367 -0.3194
 9073TIP3    H251415   2.800   4.491  -0.006 -0.5705 -2.3316  2.5545
 9074TIP3   OH251416   0.674   6.932   8.937 -0.0954 -0.5705 -0.6209
 9074TIP3    H151417   0.740   6.970   8.995 -0.1908 -1.6743  0.2497
 9074TIP3    H251418   0.597   6.989   8.948 -0.3841 -1.2130  1.0019
 9075TIP3   OH251419   6.010   7.665   2.100 -0.3767  0.3381 -0.3741
 9075TIP3    H151420   6.037   7.756   2.085  0.1151  0.3113  0.3200
 9075TIP3    H251421   6.069   7.633   2.168 -0.7381 -0.4161 -0.4022
 9076TIP3   OH251422   0.550   1.184   8.320 -0.0184  0.1071  0.0244
 9076TIP3    H151423   0.570   1.186   8.414 -2.4256  1.4939  0.5844
 9076TIP3    H251424   0.568   1.273   8.289 -2.2593  0.5798 -0.0658
 9077TIP3   OH251425   0.071   4.975   2.194 -0.0920  0.2288  0.0692
 9077TIP3    H151426   0.080   4.880   2.205  1.4038  0.0655 -1.9865
 9077TIP3    H251427   0.132   5.013   2.257  1.1109 -0.2797 -0.7657
 9078TIP3   OH251428   3.332   0.981   1.452  0.5933  0.1450 -0.0631
 9078TIP3    H151429   3.348   0.955   1.362 -0.8438  0.9261 -0.5723
 9078TIP3    H251430   3.338   1.076   1.452 -2.8779  0.5083 -0.1776
 9079TIP3   OH251431   2.007   0.167   7.618 -0.2606  0.4789 -0.4868
 9079TIP3    H151432   1.938   0.168   7.684  1.0222  0.5942  0.8908
 9079TIP3    H251433   2.008   0.076   7.587 -0.9616  0.4531 -0.4588
 9080TIP3   OH251434   1.888   7.164   0.645  0.6837  0.1237  0.4226
 9080TIP3    H151435   1.851   7.238   0.597 -0.7611 -0.3367  0.7903
 9080TIP3    H251436   1.916   7.201   0.729 -0.9510  0.0999  1.0088
 9081TIP3   OH251437   6.868   7.437   7.084 -0.0470 -0.1261 -0.1931
 9081TIP3    H151438   6.867   7.354   7.132 -2.4129 -0.5054 -0.7583
 9081TIP3    H251439   6.835   7.415   6.997  0.7239  1.1630 -0.8401
 9082TIP3   OH251440   3.104   7.238   2.209 -0.2043  0.5139 -0.2232
 9082TIP3    H151441   3.147   7.153   2.203 -1.3137 -0.3004  2.2030
 9082TIP3    H251442   3.176   7.301   2.210  0.9350 -0.7041  2.1812
 9083TIP3   OH251443   7.046   4.713   0.511 -0.0437  0.0892  0.3465
 9083TIP3    H151444   7.132   4.686   0.480  0.4970  1.1716  0.8540
 9083TIP3    H251445   7.061   4.795   0.557 -1.4422  0.6324 -0.0985
 9084TIP3   OH251446   5.030   7.330   1.938 -0.4538  0.2584 -0.2287
 9084TIP3    H151447   5.030   7.306   2.030 -1.5943 -0.4909 -0.4022
 9084TIP3    H251448   5.122   7.342   1.916 -0.2394  2.0115  1.3847
 9085TIP3   OH251449   4.558   7.588   2.576 -0.0545 -0.4783  0.4909
 9085TIP3    H151450   4.574   7.556   2.664 -1.7180 -1.1416  0.5765
 9085TIP3    H251451   4.573   7.683   2.582  1.3944 -0.7215  1.0807
 9086TIP3   OH251452   0.080   2.974   1.915  0.3663  0.6157  0.2379
 9086TIP3    H151453   0.063   2.893   1.866  1.0005  1.3687 -1.2831
 9086TIP3    H251454   0.115   2.944   1.999  0.0843 -0.7075 -0.0961
 9087TIP3   OH251455   7.521   6.589   0.890  0.5258 -0.3200 -0.2757
 9087TIP3    H151456   7.573   6.534   0.949  0.3201 -0.5570 -0.3140
 9087TIP3    H251457   7.583   6.656   0.859  1.1493 -1.3523 -1.3325
 9088TIP3   OH251458   0.549   2.067   2.189 -0.0956  0.1002 -0.1096
 9088TIP3    H151459   0.488   2.033   2.254 -1.5591 -1.1166 -1.9883
 9088TIP3    H251460   0.499   2.134   2.142  1.2267  1.5955  0.5578
 9089TIP3   OH251461   4.553   2.053   8.368 -0.0352  0.0784  0.0976
 9089TIP3    H151462   4.642   2.065   8.399  0.1042 -0.4594 -0.1041
 9089TIP3    H251463   4.509   2.004   8.438  0.1315 -0.6483 -0.3026
 9090TIP3   OH251464   0.723   3.964   0.407 -0.2764  0.5638  0.0865
 9090TIP3    H151465   0.702   3.870   0.409  1.6375  0.0784  2.2818
 9090TIP3    H251466   0.777   3.974   0.329 -1.1599  0.0304 -0.6168
 9091TIP3   OH251467   0.932   3.592   9.966  0.4951  0.0772 -0.4997
 9091TIP3    H151468   1.018   3.568  10.000 -0.5523 -5.5849 -0.7768
 9091TIP3    H251469   0.871   3.569  10.036 -0.9490  0.8725 -1.4554
 9092TIP3   OH251470   7.575   7.584   1.326 -0.2685 -0.3180 -0.2043
 9092TIP3    H151471   7.519   7.536   1.264 -0.5184  0.8923 -0.9612
 9092TIP3    H251472   7.521   7.594   1.404 -2.6982  3.8302 -2.0394
 9093TIP3   OH251473   3.066   7.046   7.164 -0.0360 -0.0597  0.2884
 9093TIP3    H151474   3.057   6.978   7.097  0.0400 -0.1089  0.3281
 9093TIP3    H251475   3.128   7.010   7.226  0.4768  0.3014 -0.0088
 9094TIP3   OH251476   6.094   0.482   0.857  0.6926  0.6538 -0.4332
 9094TIP3    H151477   6.139   0.549   0.908  0.0224  0.9024 -0.1693
 9094TIP3    H251478   6.121   0.499   0.767  0.7116  1.1336 -0.3406
 9095TIP3   OH251479   7.329   2.128   2.349  0.4819 -0.0805 -0.6132
 9095TIP3    H151480   7.255   2.110   2.292  0.5236 -1.3863 -0.2802
 9095TIP3    H251481   7.330   2.224   2.359 -1.0311 -0.0379 -0.7603
 9096TIP3   OH251482   2.322   5.709   6.421  0.0022  0.7582 -0.1465
 9096TIP3    H151483   2.307   5.797   6.385 -1.9703  0.7187  0.4547
 9096TIP3    H251484   2.410   5.713   6.459  0.1534  2.3013 -0.5846
 9097TIP3   OH251485   0.659   1.399   7.363  0.2392  0.2347 -0.0457
 9097TIP3    H151486   0.688   1.323   7.415 -1.4525  0.1085  0.7686
 9097TIP3    H251487   0.703   1.389   7.279  0.5985 -1.2673  0.2971
 9098TIP3   OH251488   2.723   2.575   2.216  0.2387 -0.4276 -0.4227
 9098TIP3    H151489   2.775   2.500   2.186  0.0398 -1.8843  2.4614
 9098TIP3    H251490   2.788   2.638   2.248  0.3536 -0.8625  0.2290
 9099TIP3   OH251491   5.709   6.708   1.162 -1.2266 -0.0836  0.4390
 9099TIP3    H151492   5.658   6.781   1.127  0.6468  1.8266  1.5175
 9099TIP3    H251493   5.775   6.690   1.095  0.3325  1.4407  1.4739
 9100TIP3   OH251494   4.176   6.230   0.612 -0.1476  0.3608  0.8059
 9100TIP3    H151495   4.154   6.321   0.633 -0.9893  0.1542  0.8504
 9100TIP3    H251496   4.091   6.187   0.599  0.2701 -0.1434 -0.4003
 9101TIP3   OH251497   2.425   3.958   8.475 -0.2014  0.0467 -0.5321
 9101TIP3    H151498   2.474   4.021   8.527 -0.5888  0.7722 -1.0368
 9101TIP3    H251499   2.375   4.011   8.413 -0.9486 -0.7240 -0.6078
 9102TIP3   OH251500   3.626   7.449   0.817  0.3576 -0.2388  0.1635
 9102TIP3    H151501   3.642   7.495   0.899 -1.2723 -0.0021  0.3626
 9102TIP3    H251502   3.646   7.514   0.749  0.9076 -0.1825  0.3718
 9103TIP3   OH251503   1.157   2.724   7.349  0.0737 -0.0961  0.5701
 9103TIP3    H151504   1.194   2.655   7.293  0.6565  2.2261 -2.1623
 9103TIP3    H251505   1.065   2.700   7.358  0.4272 -1.6730  0.4483
 9104TIP3   OH251506   7.098   5.801   9.665  0.2454  0.6901 -0.0616
 9104TIP3    H151507   7.020   5.846   9.632 -2.1306 -3.1188 -0.2914
 9104TIP3    H251508   7.120   5.738   9.596  0.6281 -1.4205  1.8631
 9105TIP3   OH251509   1.490   0.309   7.581 -0.3656 -0.1025 -0.1224
 9105TIP3    H151510   1.427   0.338   7.645 -0.0378 -0.6489  0.4613
 9105TIP3    H251511   1.532   0.389   7.549 -0.4979  0.1650  0.3783
 9106TIP3   OH251512   1.523   3.451   2.090 -0.1992  0.2401  0.1894
 9106TIP3    H151513   1.484   3.383   2.145 -2.4229  0.2123 -1.3069
 9106TIP3    H251514   1.594   3.487   2.144 -2.5558  0.5983  3.3643
 9107TIP3   OH251515   7.212   5.233   0.355  0.3378 -0.4399 -0.1007
 9107TIP3    H151516   7.274   5.254   0.286  1.0038  0.4620  0.7349
 9107TIP3    H251517   7.253   5.161   0.403  0.9522  0.4063  0.6817
 9108TIP3   OH251518   3.688   3.622   8.286 -0.0531 -0.1714 -0.1235
 9108TIP3    H151519   3.664   3.553   8.225  0.4971 -0.9417  0.5234
 9108TIP3    H251520   3.722   3.693   8.231 -0.7593 -0.3446 -0.7939
 9109TIP3   OH251521   3.751   4.863   9.838  0.0343  0.1982 -0.5970
 9109TIP3    H151522   3.796   4.783   9.809  1.2931  0.2839  0.9628
 9109TIP3    H251523   3.670   4.865   9.787  0.8908 -1.0159 -2.0976
 9110TIP3   OH251524   0.912   5.701   9.334  0.3073 -0.0956  0.1744
 9110TIP3    H151525   0.952   5.709   9.247  0.1966  0.4759  0.1734
 9110TIP3    H251526   0.818   5.704   9.318  0.2360  2.7119  0.5019
 9111TIP3   OH251527   1.919   1.243   8.839 -0.3033 -0.5086  0.5852
 9111TIP3    H151528   1.880   1.246   8.927 -1.9991 -0.2242 -0.1411
 9111TIP3    H251529   1.860   1.296   8.785  2.2529  1.7910 -0.1759
 9112TIP3   OH251530   4.841   7.679   9.879 -0.2531 -0.0835  0.4661
 9112TIP3    H151531   4.849   7.651   9.788  0.9994 -0.9217  0.8050
 9112TIP3    H251532   4.801   7.766   9.874  0.3650  0.1501 -0.9206
 9113TIP3   OH251533   5.727   7.455   0.794  0.1465  0.3130 -0.3318
 9113TIP3    H151534   5.731   7.545   0.825  0.5616  0.7529 -1.6238
 9113TIP3    H251535   5.638   7.426   0.815 -1.2083  2.1690 -2.9569
 9114TIP3   OH251536   5.727   5.780   8.003  0.2806  0.2507 -0.4307
 9114TIP3    H151537   5.633   5.796   8.012  0.5888  1.4136  1.1114
 9114TIP3    H251538   5.758   5.850   7.946  0.4923  1.0881  0.6639
 9115TIP3   OH251539   4.954   5.710   9.601 -0.0559 -0.6970  0.7833
 9115TIP3    H151540   5.041   5.680   9.574 -0.2196 -0.7412  0.2997
 9115TIP3    H251541   4.893   5.651   9.557 -0.3914  0.5140 -0.4788
 9116TIP3   OH251542   3.157   2.300   8.205  0.2238 -0.2773  0.3062
 9116TIP3    H151543   3.226   2.239   8.178 -0.0113 -0.6648  0.5746
 9116TIP3    H251544   3.170   2.312   8.299  1.5086  1.6609 -0.0639
 9117TIP3   OH251545   5.056   4.909   8.472 -0.0010 -0.5517 -0.2007
 9117TIP3    H151546   5.099   4.989   8.502  1.3661 -0.0342 -3.1164
 9117TIP3    H251547   5.122   4.841   8.486 -0.2270 -0.7172  0.0558
 9118TIP3   OH251548   0.561   0.097   7.884 -0.0374 -0.1367 -0.6812
 9118TIP3    H151549   0.630   0.156   7.913  1.1479 -0.9527 -1.7816
 9118TIP3    H251550   0.504   0.151   7.830 -0.6332  0.6829  0.7059
 9119TIP3   OH251551   7.160   5.462   7.440 -0.3525 -0.1689 -0.0470
 9119TIP3    H151552   7.073   5.449   7.402 -0.9816 -0.2518  1.3536
 9119TIP3    H251553   7.143   5.504   7.524  0.8112 -1.7667  1.0473
 9120TIP3   OH251554   7.417   4.023   1.265 -0.1322  0.2976 -0.3120
 9120TIP3    H151555   7.338   4.030   1.212 -2.5275 -0.4331  2.8534
 9120TIP3    H251556   7.402   4.082   1.340  2.3299  0.1292  0.4210
 9121TIP3   OH251557   1.383   7.626   7.658  0.0589  0.2337 -0.4131
 9121TIP3    H151558   1.370   7.692   7.590  0.2213 -0.0865 -0.7602
 9121TIP3    H251559   1.401   7.545   7.610 -2.4493 -0.6034 -0.0898
 9122TIP3   OH251560   4.583   1.598   9.478  0.2746  0.6289  0.3334
 9122TIP3    H151561   4.598   1.598   9.572  1.0753 -0.1645  0.2170
 9122TIP3    H251562   4.639   1.668   9.444  1.0284  0.0165  0.3006
 9123TIP3   OH251563   4.256   6.627   9.750  0.2914  0.7493  0.4712
 9123TIP3    H151564   4.309   6.706   9.753  1.0475  0.2508  0.3086
 9123TIP3    H251565   4.305   6.562   9.800  0.2522  0.0402 -0.3805
 9124TIP3   OH251566   6.982   7.223   9.272 -0.3622 -0.2121  0.5034
 9124TIP3    H151567   6.981   7.236   9.177  0.9639  1.7957  0.7199
 9124TIP3    H251568   6.897   7.183   9.291 -0.4801 -1.0823 -1.5520
 9125TIP3   OH251569   5.882   7.261   8.283  0.3201  0.3155 -0.7609
 9125TIP3    H151570   5.920   7.274   8.369  1.5993 -1.3256 -1.0307
 9125TIP3    H251571   5.792   7.293   8.291  1.3117  3.1342  0.2405
 9126TIP3   OH251572   0.229   6.156   9.793 -0.5882  0.7576  0.1664
 9126TIP3    H151573   0.155   6.213   9.812 -1.0955  1.0156 -2.2959
 9126TIP3    H251574   0.201   6.104   9.718  1.8268  1.1010 -1.0618
 9127TIP3   OH251575   2.400   1.531   6.625 -0.1894 -0.8272  0.0575
 9127TIP3    H151576   2.423   1.453   6.675 -1.2982 -2.2549 -1.5253
 9127TIP3    H251577   2.342   1.581   6.683 -0.3839 -1.7588  0.6811
 9128TIP3   OH251578   2.891   6.815   0.505 -0.1253  0.4249  0.5764
 9128TIP3    H151579   2.877   6.790   0.414  2.0117 -3.0775  1.0331
 9128TIP3    H251580   2.806   6.801   0.547 -0.5418 -0.1904 -0.4476
 9129TIP3   OH251581   4.171   6.960   8.592 -0.2641 -0.0021  0.0339
 9129TIP3    H151582   4.234   6.917   8.535 -0.0616  0.6547 -0.2504
 9129TIP3    H251583   4.131   6.889   8.642 -0.4866 -0.5891 -0.9589
 9130TIP3   OH251584   0.170   3.790   0.130 -0.3227  0.1888 -0.0007
 9130TIP3    H151585   0.193   3.743   0.210 -0.2001 -0.2876 -0.3100
 9130TIP3    H251586   0.131   3.723   0.074  1.1980  0.1183 -1.0243
 9131TIP3   OH251587   2.894   2.881   1.875 -0.1477 -0.2370 -0.7762
 9131TIP3    H151588   2.808   2.842   1.892 -0.4045  0.0557 -1.3753
 9131TIP3    H251589   2.879   2.975   1.883  0.9339 -0.2375  2.8676
 9132TIP3   OH251590   5.360   1.715   7.633 -0.3198  0.5807  0.3943
 9132TIP3    H151591   5.271   1.693   7.603 -0.3895  0.9299  0.3460
 9132TIP3    H251592   5.354   1.715   7.728 -0.3365  0.4587  0.3935
 9133TIP3   OH251593   7.279   5.420   1.544  0.0513  0.3755 -0.2926
 9133TIP3    H151594   7.210   5.486   1.541 -2.4962 -2.1240 -1.6673
 9133TIP3    H251595   7.334   5.440   1.467  0.3187  1.7984  0.2405
 9134TIP3   OH251596   3.698   0.760   9.531  0.1182  0.6526 -0.5736
 9134TIP3    H151597   3.779   0.739   9.578  0.2214  0.2120 -0.9389
 9134TIP3    H251598   3.628   0.738   9.592  0.1774 -1.7221 -1.2617
 9135TIP3   OH251599   6.682   1.989   9.857 -0.1391  0.4883  0.2275
 9135TIP3    H151600   6.604   1.984   9.802  0.5401 -0.5783 -0.6742
 9135TIP3    H251601   6.746   2.036   9.804  0.3565 -0.1062  0.2854
 9136TIP3   OH251602   1.126   4.086   9.847  0.0732  0.5101 -0.0644
 9136TIP3    H151603   1.181   4.114   9.773 -0.5302  0.9550 -0.3521
 9136TIP3    H251604   1.071   4.017   9.810  2.0621 -1.6726  0.8191
 9137TIP3   OH251605   1.901   0.603   8.577  0.1953  0.0360  0.2979
 9137TIP3    H151606   1.958   0.559   8.514 -2.0183 -0.1092 -1.7587
 9137TIP3    H251607   1.872   0.682   8.532  0.2883  1.1353  2.0688
 9138TIP3   OH251608   1.262   7.514   7.930 -0.4544 -0.1809 -0.2497
 9138TIP3    H151609   1.325   7.559   7.873  0.7675 -2.3619 -0.7312
 9138TIP3    H251610   1.308   7.504   8.013 -0.2996 -1.3856 -0.4600
 9139TIP3   OH251611   1.922   2.105   7.657  0.2577  0.4704  0.4748
 9139TIP3    H151612   1.922   2.015   7.689  0.9523  0.3801  0.2426
 9139TIP3    H251613   1.862   2.152   7.715  2.4052  0.6001  2.7515
 9140TIP3   OH251614   7.470   0.927   8.288  0.3754  0.2945  0.6340
 9140TIP3    H151615   7.481   0.835   8.313  0.1973 -0.0094 -0.3858
 9140TIP3    H251616   7.382   0.949   8.318  0.3376  0.0700  0.6963
 9141TIP3   OH251617   2.496   2.743   6.981 -0.2852  0.3808  0.6318
 9141TIP3    H151618   2.469   2.775   7.067  0.2309  0.7938  0.6496
 9141TIP3    H251619   2.586   2.713   6.994 -0.5851 -0.5904  0.4887
 9142TIP3   OH251620   6.198   1.467   1.928  0.1501  0.2961 -0.4168
 9142TIP3    H151621   6.210   1.422   2.011  2.4720 -1.1298 -1.4175
 9142TIP3    H251622   6.219   1.401   1.862  2.0138  2.3211 -2.0055
 9143TIP3   OH251623   0.547   2.505   0.180  0.2117  0.3606  0.1233
 9143TIP3    H151624   0.538   2.586   0.230  0.0544  2.1145 -2.5300
 9143TIP3    H251625   0.641   2.496   0.165  0.1822  0.3617 -0.0647
 9144TIP3   OH251626   2.963  -0.023   2.359  0.4058  0.5184 -0.1509
 9144TIP3    H151627   2.959   0.060   2.312 -0.9777  0.3255 -0.4307
 9144TIP3    H251628   3.030  -0.011   2.425  0.0603  1.9359 -0.0374
 9145TIP3   OH251629   6.768   3.622   2.038 -1.0261  0.3610 -0.6606
 9145TIP3    H151630   6.802   3.546   2.084  0.1586  1.0581 -0.3174
 9145TIP3    H251631   6.730   3.677   2.107 -1.7947  0.1419 -0.8944
 9146TIP3   OH251632   7.479   3.210   0.600 -0.0142 -0.0197 -0.8266
 9146TIP3    H151633   7.416   3.245   0.662 -1.1395 -2.2704 -0.6015
 9146TIP3    H251634   7.564   3.234   0.636 -0.6673 -0.2230  0.9535
 9147TIP3   OH251635   1.509   0.855   1.771  0.0385  0.4370 -0.0744
 9147TIP3    H151636   1.511   0.949   1.753 -0.0873  0.2656 -1.0676
 9147TIP3    H251637   1.591   0.822   1.735  0.5837  0.3064  1.2262
 9148TIP3   OH251638   5.909   2.935   2.524 -0.3112 -0.0803  0.2340
 9148TIP3    H151639   5.942   2.848   2.546 -0.2271 -0.2998 -0.7247
 9148TIP3    H251640   5.849   2.956   2.596  0.5060 -0.4427  1.0524
 9149TIP3   OH251641   5.950   3.320   8.234  0.1895 -0.4656  0.6257
 9149TIP3    H151642   5.887   3.308   8.305  0.1363  0.4144  0.7417
 9149TIP3    H251643   5.931   3.250   8.172 -2.0963  0.8127 -0.2037
 9150TIP3   OH251644   3.344   0.510   9.442 -0.6730 -0.1678 -0.0103
 9150TIP3    H151645   3.432   0.493   9.476 -0.7874 -0.2457  0.2480
 9150TIP3    H251646   3.352   0.496   9.347 -0.0485  1.2811 -0.1900
 9151TIP3   OH251647   0.617   1.095   6.412  0.3533  0.1902  0.8103
 9151TIP3    H151648   0.684   1.034   6.381  1.3141  1.8715 -0.6412
 9151TIP3    H251649   0.538   1.042   6.420  0.8255 -1.0333 -1.6168
 9152TIP3   OH251650   6.208   7.519   0.845  0.0876 -0.0349  0.0479
 9152TIP3    H151651   6.188   7.609   0.822  0.1872 -0.2286 -0.8339
 9152TIP3    H251652   6.127   7.471   0.829  0.7124 -0.5253 -1.9182
 9153TIP3   OH251653   6.400   0.528   2.021 -0.1122  0.0906 -0.3462
 9153TIP3    H151654   6.329   0.577   1.980  0.5351  1.4791  0.1291
 9153TIP3    H251655   6.439   0.589   2.084  2.1877 -0.2212 -1.3438
 9154TIP3   OH251656   3.118   1.884   8.631  0.2294  0.2903  0.2175
 9154TIP3    H151657   3.155   1.822   8.568 -1.0046  1.1729 -1.4507
 9154TIP3    H251658   3.171   1.963   8.622  0.5776  0.1571  0.9428
 9155TIP3   OH251659   2.165   2.519   1.083 -0.6430 -0.5535 -0.0212
 9155TIP3    H151660   2.159   2.432   1.123 -0.0440 -0.4442  0.3101
 9155TIP3    H251661   2.095   2.570   1.124 -0.7737 -0.7748  0.0333
 9156TIP3   OH251662   0.367   7.461   1.884  0.2681 -0.1248 -0.0916
 9156TIP3    H151663   0.283   7.463   1.839  0.2360  2.8948 -0.1151
 9156TIP3    H251664   0.431   7.451   1.814  0.0698  1.5509 -0.5528
 9157TIP3   OH251665   5.745   1.675   0.459  0.4715 -0.4748 -0.2088
 9157TIP3    H151666   5.651   1.692   0.471  0.8610  1.0585  1.0869
 9157TIP3    H251667   5.783   1.762   0.445  1.7630 -1.0256 -0.2237
 9158TIP3   OH251668   6.929   7.275   1.646 -0.0378 -0.0034  0.2917
 9158TIP3    H151669   6.874   7.228   1.584 -0.7949 -1.3269  1.8974
 9158TIP3    H251670   6.901   7.366   1.639 -1.4146 -0.4288  0.0232
 9159TIP3   OH251671   3.744   1.341   8.145  0.0710 -0.4724 -0.2660
 9159TIP3    H151672   3.706   1.343   8.233 -1.6413 -1.7580 -0.9209
 9159TIP3    H251673   3.821   1.284   8.154  1.0846  0.9948  0.7768
 9160TIP3   OH251674   6.145   1.156   8.367  0.5114  0.0783  0.1598
 9160TIP3    H151675   6.162   1.201   8.284 -0.7733 -0.0000 -0.1700
 9160TIP3    H251676   6.198   1.077   8.363 -1.7357 -1.4799 -1.9695
 9161TIP3   OH251677   5.339   6.666   9.400 -0.2332 -0.0214 -0.2308
 9161TIP3    H151678   5.283   6.622   9.336 -0.0388 -0.4373 -0.1181
 9161TIP3    H251679   5.291   6.746   9.422  0.3316  0.8238 -1.9153
 9162TIP3   OH251680   2.580   2.414   1.868  0.1457  0.2090  0.1390
 9162TIP3    H151681   2.563   2.336   1.921  1.3882 -1.0216 -1.1964
 9162TIP3    H251682   2.609   2.380   1.784  0.0808  2.1285 -0.7069
 9163TIP3   OH251683   6.921   4.680   1.149 -0.6817 -0.2357 -0.0602
 9163TIP3    H151684   6.991   4.617   1.132 -1.0897 -0.4068 -1.2655
 9163TIP3    H251685   6.897   4.712   1.062  0.2360  2.4160  0.5871
 9164TIP3   OH251686   0.709   2.418   0.819  0.5472 -0.0710 -0.1077
 9164TIP3    H151687   0.670   2.485   0.874  1.2285  0.7442 -0.6026
 9164TIP3    H251688   0.703   2.337   0.871 -0.5461  0.3062  0.3635
 9165TIP3   OH251689   3.424   0.285   8.750  0.0993 -0.6646 -0.0662
 9165TIP3    H151690   3.450   0.293   8.658  0.4935 -2.8950 -0.2227
 9165TIP3    H251691   3.434   0.191   8.769 -0.8773 -0.4066  1.9889
 9166TIP3   OH251692   6.807   5.998   6.916 -0.4049 -0.0957 -0.0671
 9166TIP3    H151693   6.727   5.964   6.957 -1.1493  1.6937  0.0399
 9166TIP3    H251694   6.815   6.087   6.949  2.9352 -0.9025  1.7418
 9167TIP3   OH251695   0.539   4.703   9.338  0.2669  0.0580 -0.2759
 9167TIP3    H151696   0.558   4.778   9.281  1.2534  0.3969  0.4636
 9167TIP3    H251697   0.554   4.627   9.282  1.3104  0.3857 -0.4741
 9168TIP3   OH251698   5.831   7.362   2.440  0.0001 -0.1494  0.6379
 9168TIP3    H151699   5.768   7.355   2.368 -1.5374  0.7162  1.8199
 9168TIP3    H251700   5.886   7.437   2.417 -2.0356  1.6931  1.4105
 9169TIP3   OH251701   6.938   2.099   0.274 -0.0616  0.0105 -0.1788
 9169TIP3    H151702   7.007   2.032   0.271 -1.1914 -1.1478 -1.4267
 9169TIP3    H251703   6.888   2.086   0.194 -1.7307  0.8556  0.6717
 9170TIP3   OH251704   2.068   0.791   9.025  0.9229  0.0862 -0.3340
 9170TIP3    H151705   2.098   0.767   8.937  1.3057 -1.4586  0.1974
 9170TIP3    H251706   1.984   0.747   9.035  0.6796  0.5960 -0.0588
 9171TIP3   OH251707   3.124   5.967   9.860  0.2046 -0.4173 -0.1222
 9171TIP3    H151708   3.184   6.033   9.824 -0.7731  0.6744  0.1602
 9171TIP3    H251709   3.158   5.950   9.948  1.2120 -1.2831 -0.6641
 9172TIP3   OH251710   6.641   7.053   8.413  0.2583 -0.4812  0.1901
 9172TIP3    H151711   6.693   7.114   8.360  0.2836  0.9893  1.8157
 9172TIP3    H251712   6.671   7.067   8.502 -1.8936 -0.6239  1.0032
 9173TIP3   OH251713   0.265   1.589   2.876 -0.3510  0.1500 -0.2140
 9173TIP3    H151714   0.356   1.570   2.897 -0.9482 -0.5824  1.9781
 9173TIP3    H251715   0.248   1.541   2.795  0.6785 -1.2888  0.4007
 9174TIP3   OH251716   0.580   6.245   7.608  0.5662  0.3358 -0.2963
 9174TIP3    H151717   0.501   6.245   7.554  1.8662  0.6657 -2.3108
 9174TIP3    H251718   0.610   6.336   7.606 -0.3117  0.7719  2.5828
 9175TIP3   OH251719   4.785   2.062   0.904  0.5479 -0.0103 -0.1693
 9175TIP3    H151720   4.704   2.016   0.879 -0.3663  1.4885 -0.0972
 9175TIP3    H251721   4.813   2.017   0.984 -1.1899  0.4915  0.7899
 9176TIP3   OH251722   3.719   1.790   7.078  0.2228  0.3047  0.6811
 9176TIP3    H151723   3.768   1.872   7.087 -0.2092  0.8615 -1.5342
 9176TIP3    H251724   3.782   1.729   7.038 -0.0191  0.1227  0.5767
 9177TIP3   OH251725   5.070   0.685   0.506  0.8254 -0.3859 -0.1149
 9177TIP3    H151726   5.001   0.626   0.475 -0.7959  0.1094  2.2644
 9177TIP3    H251727   5.151   0.635   0.497 -0.4528 -2.8783  1.4940
 9178TIP3   OH251728   0.605   5.223   1.192 -0.1419  0.7184  0.0569
 9178TIP3    H151729   0.689   5.177   1.200  0.4382  1.9320  1.4143
 9178TIP3    H251730   0.578   5.207   1.101  1.7142  0.5335 -0.5183
 9179TIP3   OH251731   1.503   2.752   1.241  0.1193  0.0975  0.2247
 9179TIP3    H151732   1.439   2.691   1.277  0.1270  0.0991  0.2408
 9179TIP3    H251733   1.532   2.712   1.159  0.7689 -0.3379  0.6608
 9180TIP3   OH251734   5.994   3.536   8.064  0.4375  0.2534  0.2727
 9180TIP3    H151735   5.935   3.470   8.103  0.7052 -0.9669 -1.2827
 9180TIP3    H251736   6.082   3.507   8.089  0.6328 -0.7469 -1.4747
 9181TIP3   OH251737   5.696   7.637   2.406  0.2949 -0.0293 -0.0632
 9181TIP3    H151738   5.785   7.610   2.428  0.4170  0.0444 -0.4484
 9181TIP3    H251739   5.708   7.701   2.335  0.0078  0.9516  0.7532
 9182TIP3   OH251740   6.029   7.111   9.784  0.4411  0.1517  0.7191
 9182TIP3    H151741   5.951   7.059   9.804 -0.5033  1.1649 -0.2107
 9182TIP3    H251742   6.072   7.063   9.713 -0.9661  1.1029 -0.8311
 9183TIP3   OH251743   2.570   0.884   6.833 -0.1824  0.2497  0.0098
 9183TIP3    H151744   2.517   0.910   6.757  1.1723 -1.4205 -1.5985
 9183TIP3    H251745   2.518   0.815   6.876  0.6611 -1.5545 -1.6984
 9184TIP3   OH251746   6.916   2.952   1.709 -0.0739  0.0628  0.1178
 9184TIP3    H151747   6.880   3.031   1.748  0.1293 -0.1116  0.6781
 9184TIP3    H251748   7.006   2.975   1.685 -0.4110  0.3697 -0.8793
 9185TIP3   OH251749   7.093   7.044   2.945 -0.2504  0.0581 -0.0735
 9185TIP3    H151750   7.171   7.019   2.994 -1.0841 -0.3105  1.0978
 9185TIP3    H251751   7.022   7.041   3.008 -1.2833  0.1038 -1.1856
 9186TIP3   OH251752   5.388   7.357   9.164 -0.1820 -0.4426 -0.4518
 9186TIP3    H151753   5.413   7.289   9.227 -0.2760 -1.3931 -1.4141
 9186TIP3    H251754   5.466   7.372   9.112 -0.5123 -0.6936 -1.0267
 9187TIP3   OH251755   2.539   6.138   9.224 -0.5922  0.0904 -0.1220
 9187TIP3    H151756   2.546   6.192   9.145 -2.5390  0.9052  0.1935
 9187TIP3    H251757   2.550   6.048   9.193  2.2842  0.5428 -0.7363
 9188TIP3   OH251758   6.138   0.706   8.867 -0.5962  0.2091 -0.2602
 9188TIP3    H151759   6.087   0.667   8.796 -0.1310  0.7194 -0.8922
 9188TIP3    H251760   6.224   0.663   8.862 -1.3113 -1.6518  1.6629
 9189TIP3   OH251761   7.455   1.905   1.479  0.2164  0.3123  0.1889
 9189TIP3    H151762   7.421   1.973   1.420  1.4779  1.3733  0.6440
 9189TIP3    H251763   7.544   1.890   1.449  1.6978  2.4613  3.0539
 9190TIP3   OH251764   0.946   1.172   1.078  0.4721  0.1613  0.1304
 9190TIP3    H151765   1.018   1.190   1.018 -0.3012  2.3184 -0.2560
 9190TIP3    H251766   0.867   1.193   1.027 -0.4243 -1.5036  0.7537
 9191TIP3   OH251767   2.691   1.261   1.680  0.1256  0.6060  0.0741
 9191TIP3    H151768   2.676   1.180   1.631  0.2297  0.5291  0.1665
 9191TIP3    H251769   2.604   1.295   1.698  0.0662  0.2442  0.4760
 9192TIP3   OH251770   6.927   1.183   2.493  0.5033 -0.1718 -0.5932
 9192TIP3    H151771   6.995   1.186   2.425  1.4172  0.7677  0.3380
 9192TIP3    H251772   6.847   1.163   2.445  1.4079 -1.2540 -1.7322
 9193TIP3   OH251773   1.252   2.941   2.608  0.6378 -0.2251  0.0092
 9193TIP3    H151774   1.300   3.015   2.572  1.0198 -0.9143 -0.9465
 9193TIP3    H251775   1.160   2.963   2.595  0.7660 -0.4276 -1.3606
 9194TIP3   OH251776   6.245   6.200   9.195 -0.4067 -0.6275  0.3259
 9194TIP3    H151777   6.164   6.151   9.185 -0.6933 -0.8540  3.1367
 9194TIP3    H251778   6.233   6.251   9.275  1.2599  1.3220 -0.5790
 9195TIP3   OH251779   0.011   0.038   2.114  0.4094  0.1136  0.3003
 9195TIP3    H151780   0.022   0.073   2.202 -1.2166  1.7496 -0.1023
 9195TIP3    H251781  -0.077   0.001   2.114 -0.7551  2.6474 -1.3878
 9196TIP3   OH251782   2.832   1.710   8.881  0.1822 -0.1208  0.3042
 9196TIP3    H151783   2.804   1.723   8.791  2.3149  0.2601 -0.3541
 9196TIP3    H251784   2.881   1.789   8.903  1.3560 -1.0216  1.0887
 9197TIP3   OH251785   5.743   5.824   8.618  0.1128 -0.0526 -0.2290
 9197TIP3    H151786   5.750   5.793   8.527 -1.5554  0.3651 -0.5307
 9197TIP3    H251787   5.794   5.760   8.668  3.2707  1.0971 -1.6757
 9198TIP3   OH251788   7.222   4.836   7.791 -0.2109 -0.6243  0.5415
 9198TIP3    H151789   7.280   4.800   7.724 -0.5395 -2.0047  0.9599
 9198TIP3    H251790   7.232   4.777   7.865  0.2176  0.9335  1.7650
 9199TIP3   OH251791   4.810   6.256   9.617  0.1963 -0.3287 -0.2845
 9199TIP3    H151792   4.882   6.246   9.680  1.1508 -0.0792 -1.2940
 9199TIP3    H251793   4.806   6.350   9.601  0.2975 -0.4310 -0.9502
 9200TIP3   OH251794   7.468   4.209   8.382  0.1306 -0.3598 -0.3448
 9200TIP3    H151795   7.514   4.267   8.443  0.4212 -1.0107  0.0613
 9200TIP3    H251796   7.441   4.266   8.310  1.0692  0.1390 -0.3109
 9201TIP3   OH251797   1.734   2.981   2.456 -0.5113  0.1555 -0.3309
 9201TIP3    H151798   1.779   2.934   2.526 -0.5655  0.2167 -0.2556
 9201TIP3    H251799   1.804   3.019   2.403 -0.4156 -0.9864 -1.0717
 9202TIP3   OH251800   6.613   5.167   1.423  0.7023  0.1543 -0.0183
 9202TIP3    H151801   6.594   5.214   1.342 -0.4571 -0.2316  0.0100
 9202TIP3    H251802   6.626   5.076   1.396 -2.8550 -0.6310  0.4932
 9203TIP3   OH251803   0.640   0.384   7.451  0.7696 -0.0316  0.2924
 9203TIP3    H151804   0.630   0.374   7.356  0.0697  0.0729  0.3468
 9203TIP3    H251805   0.651   0.479   7.464  1.5373 -0.1088  0.2669
 9204TIP3   OH251806   7.016   6.803   9.031 -0.2119 -0.5729  0.4139
 9204TIP3    H151807   6.964   6.808   9.111 -1.1976 -1.4952 -0.1430
 9204TIP3    H251808   7.067   6.722   9.041  0.7196  0.0268  0.6989
 9205TIP3   OH251809   4.308   1.243   9.674  0.1187  0.1661  0.0686
 9205TIP3    H151810   4.230   1.298   9.682  0.4812  0.5822  0.8055
 9205TIP3    H251811   4.278   1.155   9.698 -0.0419  0.3936  0.7217
 9206TIP3   OH251812   4.862   2.747   0.849  0.1783 -0.0308  0.1072
 9206TIP3    H151813   4.865   2.683   0.778  3.0388 -0.5671  0.5811
 9206TIP3    H251814   4.945   2.795   0.841 -0.3314  1.2410  1.8891
 9207TIP3   OH251815   6.175   5.754   9.519  0.4482 -0.0921  0.4445
 9207TIP3    H151816   6.239   5.824   9.532 -0.9847  1.3350  0.0249
 9207TIP3    H251817   6.168   5.712   9.605 -0.6582  2.0357  1.4711
 9208TIP3   OH251818   7.197   4.773   0.776  0.7018  0.1249 -0.0967
 9208TIP3    H151819   7.116   4.797   0.821  1.3059  0.3305  0.9245
 9208TIP3    H251820   7.235   4.704   0.831  1.1675 -0.0434 -0.6217
 9209TIP3   OH251821   4.926   6.514   9.628  0.3700 -0.2639 -0.4596
 9209TIP3    H151822   4.971   6.597   9.614 -1.0200  0.4284 -1.1045
 9209TIP3    H251823   4.932   6.499   9.722  2.8242 -0.7802 -0.6306
 9210TIP3   OH251824   2.872   7.152   7.563  0.0712  0.9193  0.1197
 9210TIP3    H151825   2.837   7.131   7.477 -0.0104 -0.8995  0.5563
 9210TIP3    H251826   2.801   7.131   7.624  0.9973 -0.3954  0.8092
 9211TIP3   OH251827   5.191   3.840   9.953  0.7983 -0.2106  0.6316
 9211TIP3    H151828   5.255   3.782   9.911 -0.3443 -0.0625 -1.4625
 9211TIP3    H251829   5.110   3.789   9.953 -0.3310  1.3946 -1.5974
 9212TIP3   OH251830   5.367   5.121   8.954 -0.5402  0.1767 -0.2465
 9212TIP3    H151831   5.455   5.119   8.916 -0.4441  1.0592 -0.0697
 9212TIP3    H251832   5.374   5.177   9.031 -1.2535  0.2497 -0.2233
 9213TIP3   OH251833   6.513   6.997   8.956 -0.4668 -0.2476  0.4713
 9213TIP3    H151834   6.454   6.976   9.028 -2.9573 -0.3089 -1.4756
 9213TIP3    H251835   6.477   7.076   8.917 -0.0274 -0.9691 -1.5259
 9214TIP3   OH251836   0.166   2.781   7.180 -0.3339  0.4008 -0.1601
 9214TIP3    H151837   0.212   2.830   7.248 -1.1090 -0.9695  1.4184
 9214TIP3    H251838   0.226   2.781   7.105  1.1364  0.7962  0.9818
 9215TIP3   OH251839   7.083   1.331   0.705 -0.3980  0.1717 -0.3389
 9215TIP3    H151840   7.177   1.316   0.701 -0.3158  0.6994 -0.5315
 9215TIP3    H251841   7.048   1.253   0.747  0.3718  0.9310  1.8633
 9216TIP3   OH251842   4.196   7.068   3.321 -0.2278  0.2531  0.5151
 9216TIP3    H151843   4.218   7.135   3.386 -0.1666 -0.3683  1.1403
 9216TIP3    H251844   4.206   7.113   3.237 -2.1143  1.6259  0.9470
 9217TIP3   OH251845   2.886   1.811   7.890  0.0981  0.0603 -0.6849
 9217TIP3    H151846   2.974   1.774   7.886 -0.2190 -0.6907 -0.8840
 9217TIP3    H251847   2.832   1.741   7.926 -0.0382  1.2517  1.5595
 9218TIP3   OH251848   7.092   5.132   7.344 -0.4621  0.2139 -0.0008
 9218TIP3    H151849   7.026   5.200   7.332 -0.3567  0.3982  0.4591
 9218TIP3    H251850   7.160   5.153   7.281 -1.1989 -0.4288 -1.0421
 9219TIP3   OH251851   0.285   2.675   0.913  0.0390  0.4606  0.1174
 9219TIP3    H151852   0.310   2.583   0.908  0.2813  0.6010 -2.0734
 9219TIP3    H251853   0.332   2.709   0.989 -0.0052 -1.1890  0.9216
 9220TIP3   OH251854   6.498   3.671   0.717  0.1173  0.0546  0.4601
 9220TIP3    H151855   6.450   3.754   0.727  0.9143  0.4124  1.5291
 9220TIP3    H251856   6.590   3.697   0.713  0.6026 -0.8753  3.3186
 9221TIP3   OH251857   2.502   4.578   8.955 -0.0325 -0.0427 -0.4364
 9221TIP3    H151858   2.480   4.598   9.046  0.3743  0.3486 -0.4180
 9221TIP3    H251859   2.429   4.613   8.904  0.2283  0.6623 -0.3337
 9222TIP3   OH251860   6.724   2.450   0.138 -0.2204 -0.1281  0.0627
 9222TIP3    H151861   6.690   2.451   0.227 -0.2286 -2.9723  0.1957
 9222TIP3    H251862   6.816   2.423   0.148 -0.3334 -0.8880 -0.7723
 9223TIP3   OH251863   2.851   6.451   0.547  0.1697 -0.2652  0.1167
 9223TIP3    H151864   2.906   6.489   0.478 -0.3478 -1.6981 -1.1409
 9223TIP3    H251865   2.912   6.399   0.599 -0.0966 -3.3162 -2.3302
 9224TIP3   OH251866   2.966   4.123   7.848  0.2332 -0.1169  0.1325
 9224TIP3    H151867   2.965   4.113   7.753  0.7108  1.7269 -0.0986
 9224TIP3    H251868   2.903   4.058   7.879  1.8911 -2.5337 -1.2111
 9225TIP3   OH251869   3.337   1.516   8.337  0.6907  0.2345  0.2456
 9225TIP3    H151870   3.394   1.574   8.286 -0.8816  1.2281 -0.4448
 9225TIP3    H251871   3.329   1.437   8.284  1.4209  0.0747  0.3618
 9226TIP3   OH251872   6.112   4.309   7.403  0.5275  0.2292 -0.3907
 9226TIP3    H151873   6.042   4.322   7.467  0.5053 -0.2560 -0.3136
 9226TIP3    H251874   6.168   4.242   7.442  0.2346 -0.4486 -1.1061
 9227TIP3   OH251875   7.054   2.145   7.807 -0.0073  0.1048 -0.2420
 9227TIP3    H151876   7.118   2.087   7.848  0.1672  0.0892 -0.5329
 9227TIP3    H251877   7.093   2.233   7.815  0.0042  0.1078 -0.3284
 9228TIP3   OH251878   5.079   6.336   7.708 -0.1124 -0.1673  0.3487
 9228TIP3    H151879   5.034   6.324   7.792 -1.1832 -0.3065 -0.2212
 9228TIP3    H251880   5.014   6.309   7.643  0.3578  0.8466 -0.5727
 9229TIP3   OH251881   4.556   6.845   6.613  0.1489 -0.2044  0.1501
 9229TIP3    H151882   4.504   6.921   6.640  0.1088 -0.0629 -0.3175
 9229TIP3    H251883   4.559   6.851   6.518 -1.1818 -1.6655 -0.0230
 9230TIP3   OH251884   2.805   6.276   1.113  0.4989 -0.0363  0.4597
 9230TIP3    H151885   2.795   6.355   1.061  1.4221 -1.3396 -1.8457
 9230TIP3    H251886   2.889   6.285   1.157  0.7434  0.1366 -0.0449
 9231TIP3   OH251887   5.697   5.139   8.440  0.0219  0.4375 -0.2637
 9231TIP3    H151888   5.756   5.134   8.365 -0.3320  0.6901 -0.5589
 9231TIP3    H251889   5.675   5.231   8.448  0.8466  0.5711  0.7698
 9232TIP3   OH251890   7.509   6.625   1.951  0.2335  0.0790  0.4105
 9232TIP3    H151891   7.569   6.619   2.025 -1.9823 -1.5956  2.2100
 9232TIP3    H251892   7.467   6.711   1.961  1.5184  0.8157 -0.2661
 9233TIP3   OH251893   0.178   5.095   7.409 -0.1003  0.1302 -0.6104
 9233TIP3    H151894   0.270   5.096   7.382 -0.1860 -1.2487 -1.0476
 9233TIP3    H251895   0.139   5.171   7.365  0.1684 -1.0320 -3.0330
 9234TIP3   OH251896   3.840   0.255   2.363  0.4278  0.3088  0.5751
 9234TIP3    H151897   3.770   0.196   2.390  0.7229 -0.7756 -0.8823
 9234TIP3    H251898   3.864   0.302   2.443 -0.6556 -0.6643  1.5123
 9235TIP3   OH251899   5.590   6.007   0.385  0.6696  0.2810  0.4388
 9235TIP3    H151900   5.624   6.093   0.360 -0.8406  0.9646  0.6188
 9235TIP3    H251901   5.598   5.954   0.305  1.8079  0.4934  0.3896
 9236TIP3   OH251902   2.018   5.912   9.664 -0.4994  0.5781 -0.2957
 9236TIP3    H151903   1.994   5.987   9.720 -0.0213  1.7918 -1.6567
 9236TIP3    H251904   1.957   5.917   9.590  0.7038  0.7268 -1.3004
 9237TIP3   OH251905   0.821   2.635   9.134  0.1186  0.2799  0.2609
 9237TIP3    H151906   0.841   2.546   9.107 -1.0576 -0.3966  1.4570
 9237TIP3    H251907   0.725   2.638   9.137  0.1538  1.3669  0.9484
 9238TIP3   OH251908   1.941   7.498   3.167 -0.0377 -0.0810  0.2855
 9238TIP3    H151909   1.846   7.485   3.167 -0.0792  0.0694  1.6449
 9238TIP3    H251910   1.975   7.428   3.222  0.8123 -1.0212 -1.3670
 9239TIP3   OH251911   0.716   2.379   8.953 -0.1463 -0.8905  0.0280
 9239TIP3    H151912   0.668   2.382   8.870  0.1318  2.3371 -0.1336
 9239TIP3    H251913   0.654   2.339   9.015 -1.9746  0.4876 -0.8304
 9240TIP3   OH251914   5.693   6.818   8.355  0.3162 -0.2068 -0.5738
 9240TIP3    H151915   5.624   6.826   8.421  1.6631  0.2033  0.8406
 9240TIP3    H251916   5.702   6.723   8.341  0.5715 -0.3578  0.4878
 9241TIP3   OH251917   7.044   1.696   0.328 -0.2009 -0.7783  0.0042
 9241TIP3    H151918   7.070   1.687   0.420  1.7072 -1.1757 -0.5362
 9241TIP3    H251919   7.065   1.611   0.289 -1.3912 -0.7578 -0.7396
 9242TIP3   OH251920   1.834   4.119   7.951 -0.0384 -0.2629  0.3291
 9242TIP3    H151921   1.924   4.127   7.922 -1.2418 -0.6541 -4.3248
 9242TIP3    H251922   1.820   4.025   7.964  0.1744 -0.1960  1.1213
 9243TIP3   OH251923   5.702   1.693   1.982  0.2676  0.2802 -0.1353
 9243TIP3    H151924   5.656   1.663   1.903 -1.0793  2.2679 -0.1750
 9243TIP3    H251925   5.704   1.788   1.973  2.4271  0.4010  1.0058
 9244TIP3   OH251926   6.871   1.302   7.044 -0.2884  0.1747 -0.4133
 9244TIP3    H151927   6.869   1.280   7.137 -0.6144  0.1442 -0.4236
 9244TIP3    H251928   6.884   1.218   6.999 -2.1683 -0.1293 -0.4828
 9245TIP3   OH251929   3.396   4.641   0.850 -0.0465 -0.1330  0.2456
 9245TIP3    H151930   3.408   4.590   0.770 -2.4229  0.2327 -0.4311
 9245TIP3    H251931   3.397   4.576   0.921  0.1796 -0.7055 -0.2761
 9246TIP3   OH251932   3.679   1.613   2.097 -0.0597 -0.2376  0.8596
 9246TIP3    H151933   3.685   1.702   2.064  0.7153 -0.4527  0.3888
 9246TIP3    H251934   3.675   1.622   2.193 -0.7510  0.3257  0.7772
 9247TIP3   OH251935   4.475   0.653   8.210  0.1702 -0.0499 -0.3815
 9247TIP3    H151936   4.453   0.589   8.278 -1.9424 -0.1647 -1.0992
 9247TIP3    H251937   4.434   0.619   8.131  0.6369  1.2363 -1.2042
 9248TIP3   OH251938   3.188   6.559   1.627 -0.0822 -0.7033 -0.1081
 9248TIP3    H151939   3.265   6.562   1.683 -0.3233  0.9519  0.1829
 9248TIP3    H251940   3.165   6.466   1.622  0.5158 -0.9883  1.7523
 9249TIP3   OH251941   3.600   4.344   8.594 -0.0177  0.3074  0.3932
 9249TIP3    H151942   3.626   4.340   8.686 -1.7896 -1.3379  0.8868
 9249TIP3    H251943   3.594   4.252   8.567  0.1841  0.7653 -1.2924
 9250TIP3   OH251944   2.894   2.494   2.633 -0.1295 -0.2297  0.1008
 9250TIP3    H151945   2.980   2.477   2.595  0.2663  0.5276  0.6339
 9250TIP3    H251946   2.887   2.430   2.704  1.0320  1.2339  1.6062
 9251TIP3   OH251947   4.589   0.188   9.372  0.4731  0.8245  0.2894
 9251TIP3    H151948   4.551   0.102   9.387  1.1766  0.2952 -0.8286
 9251TIP3    H251949   4.521   0.237   9.325  0.5801  0.4113 -0.3018
 9252TIP3   OH251950   2.291   3.038   0.796  0.0187 -0.0290 -0.3127
 9252TIP3    H151951   2.249   3.003   0.717 -3.1784 -0.7828  1.5324
 9252TIP3    H251952   2.222   3.087   0.841  2.2145  1.9309  1.1704
 9253TIP3   OH251953   0.984   6.483   1.059  0.9252  0.0436 -0.6848
 9253TIP3    H151954   0.931   6.418   1.013 -2.2724  1.7285  0.2894
 9253TIP3    H251955   1.044   6.517   0.993 -1.5259  0.3538 -2.9001
 9254TIP3   OH251956   5.371   6.251   8.163  0.1167 -0.2179 -0.3799
 9254TIP3    H151957   5.402   6.337   8.136  0.1175 -0.1929 -0.2998
 9254TIP3    H251958   5.401   6.192   8.094  3.1759 -0.7260  1.2063
 9255TIP3   OH251959   4.316   0.656   9.097  0.3392 -0.5285 -0.0011
 9255TIP3    H151960   4.351   0.607   9.023  0.9829 -0.2860  0.1352
 9255TIP3    H251961   4.228   0.682   9.070  0.3760 -0.8866 -0.4717
 9256TIP3   OH251962   1.251   6.757   9.525  0.1929  0.6755 -0.0291
 9256TIP3    H151963   1.230   6.767   9.433 -2.9141  1.5923  0.6874
 9256TIP3    H251964   1.170   6.778   9.571  1.0108 -1.7744  2.8445
 9257TIP3   OH251965   0.255   1.076   2.499  0.7710 -0.2768  0.1990
 9257TIP3    H151966   0.259   1.101   2.407  0.1126 -1.7789 -0.2726
 9257TIP3    H251967   0.168   1.103   2.528  1.1408  0.5994  0.5218
 9258TIP3   OH251968   6.253   2.376   8.086 -0.1869 -0.0803  0.0722
 9258TIP3    H151969   6.279   2.442   8.022 -1.5249  0.7768  0.3796
 9258TIP3    H251970   6.335   2.332   8.110  0.6490  1.1133 -0.5203
 9259TIP3   OH251971   4.320   3.454   8.635  0.4189 -0.5725  0.1067
 9259TIP3    H151972   4.322   3.393   8.709  1.2347 -2.0850 -1.1015
 9259TIP3    H251973   4.229   3.482   8.629 -0.1292 -2.1950  0.3160
 9260TIP3   OH251974   2.619   6.325   2.679  0.3406  0.0159  0.2358
 9260TIP3    H151975   2.657   6.406   2.715  1.6537 -0.1853 -0.6204
 9260TIP3    H251976   2.634   6.333   2.585  0.0706 -1.0252  0.1036
 9261TIP3   OH251977   1.777   2.046   9.945 -0.3702  0.2431  0.1712
 9261TIP3    H151978   1.814   2.131   9.923 -0.5024  0.6230  1.3335
 9261TIP3    H251979   1.685   2.053   9.920  0.0809 -0.3624 -1.8081
 9262TIP3   OH251980   2.644   1.228   0.541  0.2135 -0.3117  0.4962
 9262TIP3    H151981   2.636   1.319   0.510  0.8433 -0.5324 -0.3376
 9262TIP3    H251982   2.554   1.194   0.538  0.2685 -0.3833 -1.3136
 9263TIP3   OH251983   6.984   6.132   3.032  0.0729  0.3215 -0.2890
 9263TIP3    H151984   6.932   6.133   3.113  0.4295  1.2375 -0.0581
 9263TIP3    H251985   6.954   6.053   2.986  0.4220 -0.6669  1.0915
 9264TIP3   OH251986   3.322   5.199   9.216  0.4480  0.0713 -0.2330
 9264TIP3    H151987   3.239   5.197   9.168  0.8229 -0.4656 -0.8759
 9264TIP3    H251988   3.315   5.129   9.280  1.2198 -1.3956 -1.7013
 9265TIP3   OH251989   3.504   4.225   9.388 -0.2161  0.2517 -0.6843
 9265TIP3    H151990   3.475   4.256   9.474 -1.6855  0.8189 -1.3561
 9265TIP3    H251991   3.425   4.224   9.335  0.5884 -0.5401 -1.9142
 9266TIP3   OH251992   3.773   1.886   0.426  0.4743  0.0575 -0.1115
 9266TIP3    H151993   3.709   1.882   0.356 -1.4816 -3.2331  1.6485
 9266TIP3    H251994   3.836   1.817   0.406  0.6221 -0.0584  0.7174
 9267TIP3   OH251995   5.128   7.576   1.382 -0.4932  0.0797 -0.4832
 9267TIP3    H151996   5.100   7.660   1.419  0.3518  1.0672 -1.9900
 9267TIP3    H251997   5.157   7.597   1.293  2.7313 -1.2258  0.1106
 9268TIP3   OH251998   4.864   0.823   9.448  0.5732 -0.6261  0.0562
 9268TIP3    H151999   4.913   0.753   9.491  0.0941 -1.7576 -1.1484
 9268TIP3    H252000   4.877   0.807   9.354 -0.6094  0.1242 -0.2618
 9269TIP3   OH252001   0.202   4.783   1.973  0.3861 -0.4188 -0.0317
 9269TIP3    H152002   0.121   4.826   2.002  0.8776 -0.5796  1.6380
 9269TIP3    H252003   0.258   4.855   1.943  0.0974 -0.1880 -0.0179
 9270TIP3   OH252004   5.828   0.585   1.915 -0.2082  0.2276 -0.4702
 9270TIP3    H152005   5.789   0.556   1.998  1.5243  0.1866  0.3683
 9270TIP3    H252006   5.919   0.556   1.920  0.0020  0.4916 -2.2758
 9271TIP3   OH252007   2.732   3.721   1.149  0.4737  0.4836 -0.2422
 9271TIP3    H152008   2.771   3.704   1.063 -1.1251 -0.1814 -0.8771
 9271TIP3    H252009   2.760   3.646   1.202 -0.4196 -0.3173 -0.8731
 9272TIP3   OH252010   4.893   0.524   0.402  0.0754 -0.2031  0.1472
 9272TIP3    H152011   4.799   0.541   0.410  0.0459  0.7720 -1.6364
 9272TIP3    H252012   4.900   0.429   0.395 -0.8688 -0.2348 -0.5670
 9273TIP3   OH252013   3.079   2.992   7.775 -0.6253  0.5707 -0.7925
 9273TIP3    H152014   3.131   3.007   7.853 -2.5111 -1.1717  0.9000
 9273TIP3    H252015   3.009   3.057   7.780  0.0737  1.4583 -1.8994
 9274TIP3   OH252016   1.390   1.708   8.202 -0.7666 -0.7815 -0.0030
 9274TIP3    H152017   1.482   1.736   8.198 -0.8022 -0.1880  1.9633
 9274TIP3    H252018   1.358   1.717   8.112  1.5274 -2.6582 -1.0961
 9275TIP3   OH252019   3.510   7.263   8.357  0.5596 -0.1591 -0.0941
 9275TIP3    H152020   3.575   7.193   8.354 -0.4596 -1.3117  1.8660
 9275TIP3    H252021   3.452   7.237   8.429 -1.3558  1.4165 -0.9827
 9276TIP3   OH252022   2.353   4.227   6.468  0.2442 -0.5679 -0.1965
 9276TIP3    H152023   2.346   4.315   6.503  0.0181 -0.6051 -0.1450
 9276TIP3    H252024   2.446   4.213   6.454  0.4679 -0.9550  1.4248
 9277TIP3   OH252025   2.019   3.427   9.279 -0.2897  0.1060 -0.0183
 9277TIP3    H152026   1.978   3.485   9.344 -0.7450 -0.3508  0.1089
 9277TIP3    H252027   1.951   3.363   9.258 -0.0055  0.0063 -0.6461
 9278TIP3   OH252028   2.125   0.743   0.702  0.3082  0.0598  0.2522
 9278TIP3    H152029   2.198   0.802   0.680  0.1680  1.1842  2.4978
 9278TIP3    H252030   2.049   0.782   0.658  0.5390  0.5658  0.2893
 9279TIP3   OH252031   1.080   2.699   1.996  0.5990  0.4443 -0.0092
 9279TIP3    H152032   1.132   2.635   1.947  0.8649 -0.1390  1.0100
 9279TIP3    H252033   1.102   2.783   1.955  0.5349 -0.0528 -1.1162
 9280TIP3   OH252034   5.320   0.176   8.265 -0.0022  0.9026 -0.0715
 9280TIP3    H152035   5.340   0.228   8.343 -0.5784  1.8589 -0.5416
 9280TIP3    H252036   5.386   0.203   8.201  0.5522  0.0249  0.1097
 9281TIP3   OH252037   0.419   4.646   1.819 -0.2301 -0.6059 -0.0717
 9281TIP3    H152038   0.351   4.646   1.886 -1.2355 -3.3679 -0.9623
 9281TIP3    H252039   0.499   4.623   1.866 -0.4149  0.0248  0.5657
 9282TIP3   OH252040   0.061   2.862   1.307  0.4311 -0.0339  0.0880
 9282TIP3    H152041   0.103   2.869   1.221  1.1235 -1.4239  0.2819
 9282TIP3    H252042   0.011   2.780   1.302  1.0074 -0.4718  1.2202
 9283TIP3   OH252043   0.483   5.422   7.982 -0.2023  0.0869 -0.1920
 9283TIP3    H152044   0.516   5.357   7.920  0.8381 -0.4433  0.8625
 9283TIP3    H252045   0.421   5.375   8.037  1.4788 -0.3997  1.3751
 9284TIP3   OH252046   2.757   0.729   7.927  0.5736 -0.0019 -0.1660
 9284TIP3    H152047   2.844   0.706   7.960  0.6431  0.7420  0.1968
 9284TIP3    H252048   2.770   0.814   7.885 -0.5016  1.5694  2.4133
 9285TIP3   OH252049   2.011   6.418   9.547  0.5014  0.3506  0.3907
 9285TIP3    H152050   1.918   6.400   9.560  0.4605 -0.4646 -0.8162
 9285TIP3    H252051   2.014   6.508   9.516 -0.1992 -0.4513 -2.2575
 9286TIP3   OH252052   5.291   4.663   9.707 -0.0762  0.3019 -0.1977
 9286TIP3    H152053   5.283   4.604   9.782 -0.3722 -2.5357 -2.2660
 9286TIP3    H252054   5.384   4.659   9.683 -0.3154 -0.4152 -1.0904
 9287TIP3   OH252055   0.013   6.453   8.367 -0.9008 -0.2313 -0.2688
 9287TIP3    H152056  -0.065   6.487   8.411 -0.8649 -1.3547  0.7241
 9287TIP3    H252057   0.070   6.528   8.356 -1.0102  0.1415  1.4337
 9288TIP3   OH252058   6.265   4.143   7.567 -0.0080 -0.1404  0.2278
 9288TIP3    H152059   6.299   4.215   7.619 -1.3118 -0.0056  0.9221
 9288TIP3    H252060   6.314   4.066   7.596  0.8686  0.3209  0.0029
 9289TIP3   OH252061   2.275   3.530   2.109 -0.0278 -0.0530 -0.6115
 9289TIP3    H152062   2.284   3.602   2.171 -2.4305  0.2812 -0.5630
 9289TIP3    H252063   2.288   3.571   2.023 -2.5186  0.7990 -0.6744
 9290TIP3   OH252064   5.515   1.408   8.692 -0.0830 -0.4767  0.3316
 9290TIP3    H152065   5.437   1.375   8.647  0.3910 -0.2662 -0.6681
 9290TIP3    H252066   5.508   1.503   8.687  0.0773 -0.4539  0.5311
 9291TIP3   OH252067   1.180   3.525   7.020  0.2557  0.0032 -0.2591
 9291TIP3    H152068   1.109   3.507   6.958 -0.0812  0.2919  0.0413
 9291TIP3    H252069   1.199   3.441   7.061  0.0849 -0.0709 -0.3353
 9292TIP3   OH252070   0.674   3.001   8.445 -0.1215  0.4229  0.0296
 9292TIP3    H152071   0.728   3.080   8.435 -0.4983  0.7152  0.2896
 9292TIP3    H252072   0.736   2.933   8.473  0.3888  0.3653 -1.1838
 9293TIP3   OH252073   0.846   2.722   0.739  0.5060  0.5134 -0.5358
 9293TIP3    H152074   0.857   2.677   0.655 -0.5198  0.2802 -0.5616
 9293TIP3    H252075   0.876   2.659   0.805 -0.9342 -0.2555 -0.5689
 9294TIP3   OH252076   0.038   4.310   9.874 -0.9034  0.0041  0.4460
 9294TIP3    H152077   0.129   4.281   9.866 -0.1675  2.3160 -0.6882
 9294TIP3    H252078  -0.002   4.249   9.936  0.8230 -2.3682 -0.6359
 9295TIP3   OH252079   0.890   5.887   1.642 -0.1939  0.0648  0.1658
 9295TIP3    H152080   0.982   5.898   1.666 -0.6645  0.0253  2.1362
 9295TIP3    H252081   0.843   5.950   1.696 -1.5118 -1.2937  0.6817
 9296TIP3   OH252082   2.426   3.391   0.052 -0.1107  0.3642 -1.0199
 9296TIP3    H152083   2.461   3.374   0.139  0.9735  1.1885 -1.2660
 9296TIP3    H252084   2.442   3.310   0.003  0.6780  0.4307 -0.8786
 9297TIP3   OH252085   5.164   0.242   0.283 -0.6242  0.6419 -0.4874
 9297TIP3    H152086   5.147   0.153   0.313  0.0435  1.1780  1.6955
 9297TIP3    H252087   5.152   0.238   0.189  0.4272 -2.0083 -0.6108
 9298TIP3   OH252088   2.032   7.117   7.592 -0.6346 -0.5539 -0.1960
 9298TIP3    H152089   2.009   7.025   7.579  1.0833 -1.0697  0.2048
 9298TIP3    H252090   2.021   7.132   7.686  1.1995 -0.9945  0.1163
 9299TIP3   OH252091   5.039   5.054   9.224  0.1257  0.4285  0.3762
 9299TIP3    H152092   4.990   4.978   9.192  0.5423  0.4551 -0.3434
 9299TIP3    H252093   5.131   5.028   9.218  0.2788  1.0346 -0.0177
 9300TIP3   OH252094   0.272   0.406   7.262  0.1421  0.3779 -0.5021
 9300TIP3    H152095   0.334   0.343   7.225  1.5836  1.7509 -0.5633
 9300TIP3    H252096   0.189   0.359   7.265  1.0441 -1.3569 -0.9678
 9301TIP3   OH252097   1.054   1.139   2.051 -0.3518  0.4062 -0.0325
 9301TIP3    H152098   1.089   1.056   2.019 -1.2516 -0.4792  1.1342
 9301TIP3    H252099   1.078   1.204   1.985  1.4596 -0.5499 -0.3589
 9302TIP3   OH252100   5.851   2.228   6.837  0.5196  0.3627  0.3153
 9302TIP3    H152101   5.788   2.222   6.766 -1.4591  2.5949  1.7430
 9302TIP3    H252102   5.927   2.179   6.806 -1.2394 -1.0105 -2.1872
 9303TIP3   OH252103   4.749   6.901   0.977 -0.3180 -0.0108  0.0435
 9303TIP3    H152104   4.701   6.890   0.895 -1.3063 -2.3340  0.8580
 9303TIP3    H252105   4.841   6.885   0.953 -0.3089  1.3428 -0.9477
 9304TIP3   OH252106   1.531   6.766   9.430 -0.3243 -1.3356 -0.3408
 9304TIP3    H152107   1.555   6.811   9.512 -1.8068 -2.8715  1.0020
 9304TIP3    H252108   1.437   6.748   9.439 -0.9630  0.0090 -3.1968
 9305TIP3   OH252109   4.495   0.305   1.395  0.2372 -0.3013  0.0833
 9305TIP3    H152110   4.563   0.367   1.420 -0.3069 -0.1088  1.1381
 9305TIP3    H252111   4.535   0.219   1.404  0.4749 -0.1700  0.2836
 9306TIP3   OH252112   3.152   2.177   3.024  0.2304  0.0683 -0.2113
 9306TIP3    H152113   3.098   2.100   3.044  0.2016  0.7477  2.7957
 9306TIP3    H252114   3.091   2.240   2.987 -1.0901  0.6242  2.6275
 9307TIP3   OH252115   3.269   7.646   1.854 -0.2891  0.1999  0.1889
 9307TIP3    H152116   3.209   7.715   1.880  0.9334  1.0553  0.8396
 9307TIP3    H252117   3.336   7.690   1.802  0.5910 -0.4457  0.7425
 9308TIP3   OH252118   1.875   5.217   0.860 -0.4081  0.1923 -0.1464
 9308TIP3    H152119   1.955   5.173   0.829 -0.6427  0.0509 -0.5618
 9308TIP3    H252120   1.875   5.301   0.814 -0.3073  0.3491  0.1382
 9309TIP3   OH252121   6.231   5.838   0.411 -0.4751  1.0872  0.3610
 9309TIP3    H152122   6.227   5.784   0.490  0.7475  1.5696  0.7780
 9309TIP3    H252123   6.299   5.903   0.430 -0.9524  1.9121 -0.6592
 9310TIP3   OH252124   7.354   1.375   1.850  0.1315  0.4405  0.0014
 9310TIP3    H152125   7.275   1.355   1.800 -0.1339  0.1447  0.5296
 9310TIP3    H252126   7.392   1.451   1.806  0.5968 -0.5660 -1.4328
 9311TIP3   OH252127   1.492   2.685   7.359 -0.1921  0.6074 -0.0196
 9311TIP3    H152128   1.451   2.622   7.300 -0.2906  0.1715  0.5095
 9311TIP3    H252129   1.449   2.670   7.443  0.7640  0.4298  0.4421
 9312TIP3   OH252130   6.767   4.065   8.768 -0.2305  0.0662  0.3319
 9312TIP3    H152131   6.736   4.140   8.717  1.5401  0.4948 -0.1708
 9312TIP3    H252132   6.843   4.033   8.721 -0.5730 -1.6863  0.8854
 9313TIP3   OH252133   1.612   6.778   3.647 -0.2078  0.4187 -0.3544
 9313TIP3    H152134   1.590   6.869   3.668  0.0504 -0.0187  2.1556
 9313TIP3    H252135   1.707   6.776   3.644 -0.2171  0.2564 -0.6684
 9314TIP3   OH252136   1.593   4.087   1.579 -0.0708 -0.6297 -0.0280
 9314TIP3    H152137   1.566   4.022   1.644 -1.2859  0.2460  0.3749
 9314TIP3    H252138   1.662   4.137   1.623 -1.1946  0.2456  0.7798
 9315TIP3   OH252139   4.647   4.034   8.149 -0.0842  0.5872 -0.0757
 9315TIP3    H152140   4.615   4.039   8.239  0.7482  0.2007  0.2578
 9315TIP3    H252141   4.571   4.008   8.098 -0.2160 -0.7068  0.7397
 9316TIP3   OH252142   1.990   1.629   9.865 -0.4372  0.2547  0.5650
 9316TIP3    H152143   1.981   1.557   9.804  1.1510  0.1889  0.3546
 9316TIP3    H252144   1.901   1.661   9.880 -0.9459 -0.4078 -0.9419
 9317TIP3   OH252145   7.297   3.161   9.971  0.2098 -0.4179 -0.2464
 9317TIP3    H152146   7.204   3.152   9.949  0.2483 -0.0687 -0.5804
 9317TIP3    H252147   7.301   3.237  10.028  0.6359  1.7018 -2.8566
 9318TIP3   OH252148   2.127   1.400   2.556 -0.4790 -0.1160 -0.0078
 9318TIP3    H152149   2.148   1.363   2.642 -0.8672  0.6344  0.4205
 9318TIP3    H252150   2.036   1.373   2.540 -0.2229 -0.7486 -0.4591
 9319TIP3   OH252151   7.255   0.102   9.453  0.0494 -0.0052  0.1397
 9319TIP3    H152152   7.281   0.010   9.455  2.0990  0.4801 -1.1510
 9319TIP3    H252153   7.222   0.119   9.541 -0.9692 -2.1047  0.2226
 9320TIP3   OH252154   2.371   5.581   2.650 -0.2256 -0.1810  0.4883
 9320TIP3    H152155   2.429   5.651   2.678 -2.0384  1.4916  0.2888
 9320TIP3    H252156   2.326   5.553   2.729 -0.4634 -0.1711  0.3599
 9321TIP3   OH252157   1.440   7.554   2.272 -0.7864  0.2470 -0.2125
 9321TIP3    H152158   1.429   7.571   2.178  0.5058 -0.2496 -0.4768
 9321TIP3    H252159   1.420   7.638   2.314 -2.5018  0.1766 -0.8194
 9322TIP3   OH252160   3.598   7.559   7.212  0.3260 -0.1139  0.3070
 9322TIP3    H152161   3.609   7.487   7.273  0.9837 -1.1936 -1.0515
 9322TIP3    H252162   3.595   7.518   7.126  0.0466  1.4223 -0.4542
 9323TIP3   OH252163   2.335   7.211   8.506 -0.3041  0.1672  0.5930
 9323TIP3    H152164   2.318   7.298   8.468 -1.4314 -0.3282 -0.1035
 9323TIP3    H252165   2.409   7.225   8.564 -0.1597  1.5070  0.1441
 9324TIP3   OH252166   4.262   2.686   9.678 -0.7751  0.1803  0.5075
 9324TIP3    H152167   4.353   2.659   9.687 -0.5818  0.5526 -0.2575
 9324TIP3    H252168   4.256   2.724   9.590 -1.2242  1.8062  1.1961
 9325TIP3   OH252169   2.559   5.876   9.122 -0.0339 -0.4784  0.6992
 9325TIP3    H152170   2.626   5.834   9.176  2.0327 -0.8763 -1.9156
 9325TIP3    H252171   2.506   5.803   9.090 -0.6281 -0.3510  1.3840
 9326TIP3   OH252172   2.256   3.310   0.462  0.1594  0.4427 -0.1237
 9326TIP3    H152173   2.237   3.382   0.522  1.6104 -0.6013  1.7103
 9326TIP3    H252174   2.350   3.294   0.472  0.5597  0.4945 -3.0678
 9327TIP3   OH252175   6.906   3.737   1.342  0.3633  0.7851  0.4458
 9327TIP3    H152176   6.993   3.748   1.382  0.4638  1.5060  0.0499
 9327TIP3    H252177   6.918   3.666   1.279  0.9237  1.5316 -0.3026
 9328TIP3   OH252178   0.251   2.561   1.446  0.2273 -0.6088  0.2463
 9328TIP3    H152179   0.265   2.468   1.467  1.9206 -0.0928  1.6360
 9328TIP3    H252180   0.210   2.597   1.525 -0.7415 -0.2102 -0.4158
 9329TIP3   OH252181   0.600   0.760   9.424 -0.0882  0.4311 -0.1127
 9329TIP3    H152182   0.663   0.789   9.490  1.1952 -0.9544 -0.6616
 9329TIP3    H252183   0.538   0.833   9.416  1.0822  1.5936  0.9076
 9330TIP3   OH252184   1.228   5.752   9.492  0.6454 -0.0229 -0.1899
 9330TIP3    H152185   1.167   5.678   9.493 -0.3204  0.7435  1.1542
 9330TIP3    H252186   1.310   5.716   9.526  0.0391 -0.3977  0.9344
 9331TIP3   OH252187   5.335   7.201   1.283 -0.5016  0.4259 -0.1640
 9331TIP3    H152188   5.414   7.161   1.320 -0.7582  0.1512  0.0925
 9331TIP3    H252189   5.263   7.146   1.315 -0.8453  1.0203  0.0987
 9332TIP3   OH252190   1.526   2.083   8.761  0.1296  0.0282 -0.1766
 9332TIP3    H152191   1.545   2.125   8.677 -0.4168 -2.2334 -1.5094
 9332TIP3    H252192   1.598   2.110   8.818  0.5460  1.5720 -1.3545
 9333TIP3   OH252193   4.015   4.278   8.113  0.2279  0.1142 -0.3821
 9333TIP3    H152194   3.925   4.261   8.140  0.3972  1.2924  1.0156
 9333TIP3    H252195   4.061   4.196   8.127  0.1318  0.4541  2.2845
 9334TIP3   OH252196   0.592   6.983   1.610  0.8781 -0.3831  0.0361
 9334TIP3    H152197   0.554   6.988   1.522 -1.2672  0.9261  0.9456
 9334TIP3    H252198   0.542   6.914   1.653  0.0666  0.7518  0.9888
 9335TIP3   OH252199   5.242   2.826   1.035  0.2178  0.2598  0.2557
 9335TIP3    H152200   5.170   2.888   1.045 -1.3474 -0.9960 -2.3530
 9335TIP3    H252201   5.209   2.744   1.072  0.7355 -0.0738 -0.0047
 9336TIP3   OH252202   6.730   4.464   0.845  0.2107  0.0761  0.3382
 9336TIP3    H152203   6.727   4.411   0.765  1.8937 -0.3040  0.4892
 9336TIP3    H252204   6.824   4.470   0.866 -0.0998  1.4374  1.4472
 9337TIP3   OH252205   2.801   4.507   7.201  0.2174 -0.2751  0.0511
 9337TIP3    H152206   2.787   4.585   7.254 -0.1154  0.3303 -0.8923
 9337TIP3    H252207   2.845   4.540   7.122 -0.4630 -0.9453 -0.6248
 9338TIP3   OH252208   5.536   4.581   9.949 -0.4019  1.2237  0.1231
 9338TIP3    H152209   5.590   4.502   9.953 -1.5689  0.3928  0.1976
 9338TIP3    H252210   5.527   4.600   9.856  1.2703  2.2966  0.1397
 9339TIP3   OH252211   5.909   6.288   7.662  0.1687  0.6317  0.3820
 9339TIP3    H152212   5.948   6.217   7.713  0.0318  0.1342 -0.1903
 9339TIP3    H252213   5.983   6.327   7.615  0.1464  0.4293  0.1778
 9340TIP3   OH252214   2.114   2.667   8.967 -0.0512 -0.5953 -0.2458
 9340TIP3    H152215   2.176   2.739   8.970 -0.1813 -0.5187  1.6834
 9340TIP3    H252216   2.042   2.699   8.914 -0.0912  0.6914  0.5627
 9341TIP3   OH252217   3.698   1.504   7.653  0.3314 -0.1979  0.1519
 9341TIP3    H152218   3.698   1.459   7.737 -1.2133 -0.3285  0.1087
 9341TIP3    H252219   3.612   1.485   7.615  1.2650 -0.8024 -1.8108
 9342TIP3   OH252220   1.442   1.354   9.054  0.1938  0.2551  0.1296
 9342TIP3    H152221   1.494   1.377   9.130 -1.0129  2.7588  0.2950
 9342TIP3    H252222   1.475   1.410   8.984 -1.8450  1.5483  0.1165
 9343TIP3   OH252223   4.645   2.944   9.047 -0.1751 -0.2770  0.2733
 9343TIP3    H152224   4.729   2.951   9.002 -0.7065  1.7657 -0.4853
 9343TIP3    H252225   4.602   2.869   9.006 -0.3819  1.1292 -2.2632
 9344TIP3   OH252226   4.125   0.983   7.287 -0.0393  0.1459 -0.1835
 9344TIP3    H152227   4.155   1.049   7.349 -0.8193 -1.2358  1.7831
 9344TIP3    H252228   4.094   0.911   7.342 -0.9556 -1.0971 -2.1978
 9345TIP3   OH252229   3.759   3.678   9.164 -0.0170 -0.1733 -0.0375
 9345TIP3    H152230   3.676   3.648   9.201 -0.6236  2.1803  0.7304
 9345TIP3    H252231   3.825   3.647   9.226 -0.4030 -1.2086 -0.1196
 9346TIP3   OH252232   7.432   7.377   0.570  0.0575  0.2401 -0.2984
 9346TIP3    H152233   7.360   7.342   0.518  1.1898  1.0778 -2.5581
 9346TIP3    H252234   7.399   7.376   0.660 -1.9340 -1.4235 -0.9618
 9347TIP3   OH252235   0.595   1.439   9.787  0.4870  0.5587 -0.0687
 9347TIP3    H152236   0.540   1.383   9.733  0.9907 -1.9986  1.8822
 9347TIP3    H252237   0.545   1.450   9.869  1.7718  0.2932  0.7806
 9348TIP3   OH252238   4.554   4.987   9.735  0.2189  0.2826  0.0929
 9348TIP3    H152239   4.564   4.939   9.818  1.4651  0.3512  0.0028
 9348TIP3    H252240   4.643   5.013   9.712 -0.3066  1.7314 -0.4093
 9349TIP3   OH252241   3.843   4.675   9.662  0.1307  0.2269 -0.2313
 9349TIP3    H152242   3.812   4.726   9.587 -1.6979 -1.2719 -0.5849
 9349TIP3    H252243   3.782   4.601   9.666  0.5271 -0.0240  2.4075
 9350TIP3   OH252244   2.353   0.364   0.095  0.4176 -0.1194 -0.1396
 9350TIP3    H152245   2.446   0.340   0.102  0.5568  0.9036  3.0232
 9350TIP3    H252246   2.320   0.311   0.023  3.4625 -0.4314 -1.4828
 9351TIP3   OH252247   1.475   2.981   1.563 -0.3887  0.1884  0.0675
 9351TIP3    H152248   1.467   2.982   1.467  0.1520 -0.4291  0.0052
 9351TIP3    H252249   1.406   3.039   1.593 -2.1894 -1.4843 -0.5841
 9352TIP3   OH252250   4.791   7.185   1.004 -0.3359  0.5914 -0.0424
 9352TIP3    H152251   4.712   7.131   1.000  0.0518  0.0757 -2.1506
 9352TIP3    H252252   4.783   7.245   0.931  1.8355 -0.4481 -1.2475
 9353TIP3   OH252253   2.962   6.148   0.158  0.1382  0.0720  0.5497
 9353TIP3    H152254   2.960   6.058   0.191  1.9788  0.1308  0.9065
 9353TIP3    H252255   3.048   6.181   0.183  0.0663  1.4515 -0.8745
 9354TIP3   OH252256   0.551   0.930   0.401  0.5268  0.3401 -0.0002
 9354TIP3    H152257   0.500   0.919   0.481  0.8316  1.3741  0.3440
 9354TIP3    H252258   0.608   1.005   0.418  0.8465  0.3564 -1.0564
 9355TIP3   OH252259   5.434   7.028   8.346  0.2900 -0.3369  0.0433
 9355TIP3    H152260   5.430   6.988   8.259 -1.3275  1.2099 -0.6675
 9355TIP3    H252261   5.448   6.955   8.406  1.3796 -1.4520 -1.4855
 9356TIP3   OH252262   3.087   1.397   7.914 -0.1131  0.4200 -0.2664
 9356TIP3    H152263   3.125   1.310   7.908 -1.5501 -0.2699  0.3163
 9356TIP3    H252264   3.132   1.447   7.845  0.5353 -0.8339 -0.7873
 9357TIP3   OH252265   1.646   1.650   8.190 -0.2148  0.3316 -0.2040
 9357TIP3    H152266   1.688   1.730   8.158  0.8914  0.1199  0.6817
 9357TIP3    H252267   1.715   1.603   8.237 -1.3858 -0.1265  1.1293
 9358TIP3   OH252268   1.089   5.372   0.034  0.0190  0.0450  0.6963
 9358TIP3    H152269   1.063   5.432   0.104  1.3968  0.5977  0.7578
 9358TIP3    H252270   1.078   5.424  -0.047 -0.4719 -0.2153  0.5906
 9359TIP3   OH252271   2.106   2.181   2.294 -0.3307  0.2745  0.4432
 9359TIP3    H152272   2.144   2.093   2.287  0.4656  0.5565  1.1615
 9359TIP3    H252273   2.059   2.193   2.211 -0.2997 -0.7591  0.2648
 9360TIP3   OH252274   0.080   1.852   0.625 -0.5757 -0.0433  0.0687
 9360TIP3    H152275  -0.016   1.858   0.622 -0.4745  1.7617 -2.3164
 9360TIP3    H252276   0.110   1.934   0.586  2.0230  0.1933  2.3012
 9361TIP3   OH252277   5.523   6.803   9.198 -0.0029  0.7830 -0.1191
 9361TIP3    H152278   5.567   6.723   9.223  0.4506  0.6895 -1.1461
 9361TIP3    H252279   5.433   6.776   9.177  0.4400  0.3133 -1.5525
 9362TIP3   OH252280   4.736   5.213   8.018  0.3924  0.0960 -0.0183
 9362TIP3    H152281   4.775   5.147   7.960  1.0869  0.3536  0.1568
 9362TIP3    H252282   4.662   5.248   7.967  0.7443  0.0290 -0.5862
 9363TIP3   OH252283   6.460   0.555   7.702 -0.2304 -0.2462 -0.0295
 9363TIP3    H152284   6.503   0.470   7.715 -1.5544 -0.8820  0.3514
 9363TIP3    H252285   6.452   0.563   7.607  0.8218 -0.0531 -0.1186
 9364TIP3   OH252286   6.403   7.081   1.241  0.1203 -0.1869  0.2594
 9364TIP3    H152287   6.348   7.086   1.163  0.7557 -0.6533 -0.2201
 9364TIP3    H252288   6.469   7.149   1.228 -0.4931  0.5771  0.9738
 9365TIP3   OH252289   5.729   3.336   9.414  0.0346 -0.1122  0.2104
 9365TIP3    H152290   5.675   3.365   9.486 -0.4367 -0.2965 -0.0631
 9365TIP3    H252291   5.770   3.255   9.445  0.6624  0.3610  0.6489
 9366TIP3   OH252292   0.632   3.932   8.013 -0.2247 -0.2818  0.2645
 9366TIP3    H152293   0.640   4.022   7.983 -1.5779 -0.5751 -1.1270
 9366TIP3    H252294   0.653   3.935   8.107  0.4193  1.3436  0.0854
 9367TIP3   OH252295   3.249   3.227   0.227 -0.2621 -0.0675 -0.3903
 9367TIP3    H152296   3.313   3.181   0.174 -1.8503  0.0794 -2.5551
 9367TIP3    H252297   3.236   3.311   0.183 -3.0299 -0.6925 -1.0009
 9368TIP3   OH252298   4.612   6.521   8.128 -0.5255  0.1802 -0.5934
 9368TIP3    H152299   4.533   6.487   8.171  0.4557 -1.2249  0.2030
 9368TIP3    H252300   4.683   6.503   8.190  0.9465 -1.8254 -2.6750
 9369TIP3   OH252301   6.249   1.248   3.341  0.2966 -0.0299  0.4576
 9369TIP3    H152302   6.281   1.186   3.406  1.0016 -1.8712 -1.5353
 9369TIP3    H252303   6.327   1.272   3.291 -0.5820 -0.5405 -1.2152
 9370TIP3   OH252304   1.319   0.804   1.430  0.2333 -0.1066  0.4854
 9370TIP3    H152305   1.378   0.875   1.454 -0.1263  1.0469 -1.8181
 9370TIP3    H252306   1.294   0.823   1.340 -1.0283 -2.3917  0.2935
 9371TIP3   OH252307   1.905   3.780   0.443  0.7517 -0.0574 -0.1975
 9371TIP3    H152308   1.989   3.749   0.476  1.0016  2.1620  1.5140
 9371TIP3    H252309   1.842   3.759   0.513  0.1753 -0.3406 -0.7922
 9372TIP3   OH252310   1.560   7.300   2.355  0.3168  0.1213 -0.1213
 9372TIP3    H152311   1.639   7.332   2.311  1.1478  0.6764  1.7116
 9372TIP3    H252312   1.500   7.374   2.353 -0.9547 -0.8038 -3.0649
 9373TIP3   OH252313   5.274   7.631   8.000  0.0410  0.3295  0.6471
 9373TIP3    H152314   5.336   7.626   7.926 -0.4813  0.6903  0.1818
 9373TIP3    H252315   5.199   7.677   7.965 -0.2206  0.4887  1.4143
 9374TIP3   OH252316   6.628   1.197   9.009  0.1995  0.3164 -0.7134
 9374TIP3    H152317   6.652   1.221   9.098  1.9392 -2.5664 -0.2677
 9374TIP3    H252318   6.545   1.151   9.017 -0.3446  1.2678 -0.8008
 9375TIP3   OH252319   4.239   3.968   9.662  0.0319 -0.1136 -0.2811
 9375TIP3    H152320   4.202   4.056   9.672  0.6840  0.1300 -0.0003
 9375TIP3    H252321   4.164   3.914   9.640 -0.5030  0.3717  0.3127
 9376TIP3   OH252322   0.358   1.358   1.403 -0.0821  0.2001 -0.9051
 9376TIP3    H152323   0.378   1.266   1.384 -0.3054  0.0705 -0.5164
 9376TIP3    H252324   0.372   1.366   1.497  3.6540  1.4657 -1.3846
 9377TIP3   OH252325   5.144   1.418   8.158  0.7075 -0.6177 -0.2445
 9377TIP3    H152326   5.079   1.472   8.114 -1.1659 -0.1469  2.8447
 9377TIP3    H252327   5.202   1.480   8.201  0.8240 -1.0539  0.2380
 9378TIP3   OH252328   7.173   4.891   8.092  0.1805 -0.1208 -0.4628
 9378TIP3    H152329   7.196   4.983   8.080 -1.5903  0.2790 -1.1626
 9378TIP3    H252330   7.090   4.881   8.044  0.5858 -2.1958 -0.8251
 9379TIP3   OH252331   5.461   3.026   0.979  0.1608 -0.1740  0.2714
 9379TIP3    H152332   5.456   3.097   0.915  0.5974 -0.8392 -0.5286
 9379TIP3    H252333   5.509   2.956   0.934  0.5632 -0.6329  1.3619
 9380TIP3   OH252334   5.728   5.212   9.423 -0.2524  0.0633 -0.5022
 9380TIP3    H152335   5.726   5.215   9.518 -0.9598 -0.5532 -0.4893
 9380TIP3    H252336   5.640   5.185   9.398 -0.0029 -0.0198 -1.3215
 9381TIP3   OH252337   0.892   2.247   0.635  0.3052  0.3372 -0.2452
 9381TIP3    H152338   0.828   2.178   0.616  1.0937  0.0097 -1.8672
 9381TIP3    H252339   0.862   2.284   0.718 -1.7928 -0.0105 -0.7735
 9382TIP3   OH252340   5.040   0.085   2.199  0.0849 -0.5714  0.4104
 9382TIP3    H152341   5.020   0.108   2.109  1.2125  1.1262  0.5471
 9382TIP3    H252342   5.122   0.037   2.194  1.5929  1.8167  0.6734
 9383TIP3   OH252343   0.110   3.102   7.708 -0.2407 -0.0217 -0.2336
 9383TIP3    H152344   0.138   3.087   7.798 -2.3090 -0.2705  0.4213
 9383TIP3    H252345   0.166   3.173   7.677  0.5339  0.0458  1.2305
 9384TIP3   OH252346   5.884   3.972  -0.056  0.2937 -0.0982 -0.7667
 9384TIP3    H152347   5.960   3.969  -0.114  0.1458  0.7073 -1.0089
 9384TIP3    H252348   5.825   4.036  -0.096 -0.3753 -0.4760 -0.4091
 9385TIP3   OH252349   0.196   6.962   9.522  0.5377  0.1189  0.2891
 9385TIP3    H152350   0.146   6.899   9.575  0.9550 -1.6481 -1.2891
 9385TIP3    H252351   0.287   6.935   9.534  0.5993 -0.8047 -1.8007
 9386TIP3   OH252352   3.173   5.622   8.385  0.3775 -0.2335  0.6769
 9386TIP3    H152353   3.130   5.589   8.306 -0.4184  2.2770 -0.0253
 9386TIP3    H252354   3.257   5.656   8.354  0.2100  0.4477  0.9529
 9387TIP3   OH252355   6.690   3.018   8.057 -0.4718 -0.0598  0.0274
 9387TIP3    H152356   6.733   2.938   8.088 -3.0835 -1.0989  1.3490
 9387TIP3    H252357   6.651   3.056   8.136  0.2468  2.2799 -0.6681
 9388TIP3   OH252358   5.743   4.766   0.144  0.0144 -0.0446  0.8919
 9388TIP3    H152359   5.648   4.766   0.155  0.0170 -0.9978  1.0059
 9388TIP3    H252360   5.771   4.680   0.175  0.7488 -0.3392 -0.4921
 9389TIP3   OH252361   6.529   0.779   8.564  0.0783  0.2167 -0.6490
 9389TIP3    H152362   6.613   0.733   8.569 -0.2498 -0.2731  1.1610
 9389TIP3    H252363   6.517   0.815   8.652 -1.4501  0.5769 -0.9816
 9390TIP3   OH252364   0.281   5.097   7.851 -0.4752  0.5507  0.0056
 9390TIP3    H152365   0.207   5.112   7.910  0.0751  0.1851  0.7924
 9390TIP3    H252366   0.349   5.060   7.906 -0.2991 -0.7824 -1.0534
 9391TIP3   OH252367   6.644   2.076   1.691  0.0420  0.7076  0.7957
 9391TIP3    H152368   6.554   2.097   1.717 -0.3765 -0.8213  0.6430
 9391TIP3    H252369   6.652   1.982   1.704  0.8651  0.4103 -1.4598
 9392TIP3   OH252370   7.128   0.075   0.592 -0.0669  0.2390  0.1090
 9392TIP3    H152371   7.209   0.025   0.585 -1.0802 -1.7216  1.3569
 9392TIP3    H252372   7.119   0.093   0.685 -1.8193 -1.0330  0.2528
 9393TIP3   OH252373   4.183   0.920   0.638 -0.4389  0.0132  0.4898
 9393TIP3    H152374   4.257   0.881   0.685  0.2537 -0.8206 -1.1986
 9393TIP3    H252375   4.184   1.012   0.664  0.9393 -0.0742  0.8223
 9394TIP3   OH252376   1.061   5.856   9.695  0.4959  0.0503 -0.0054
 9394TIP3    H152377   1.105   5.857   9.610  1.7624  1.1333  0.6215
 9394TIP3    H252378   1.132   5.867   9.759 -0.6046  1.3167  1.0727
 9395TIP3   OH252379   3.372   2.878   8.648  0.0395  0.6345 -0.3927
 9395TIP3    H152380   3.329   2.958   8.678 -0.7741  0.5934 -1.3845
 9395TIP3    H252381   3.316   2.808   8.681  0.7844  0.4515  0.5259
 9396TIP3   OH252382   3.723   5.928   9.089  0.3362 -0.0872 -0.1530
 9396TIP3    H152383   3.804   5.980   9.088 -0.2661  0.9054  0.3979
 9396TIP3    H252384   3.690   5.933   8.999  1.2553 -1.1241 -0.5658
 9397TIP3   OH252385   3.453   0.942   8.819 -0.9243 -0.3852 -0.0692
 9397TIP3    H152386   3.501   0.860   8.806 -1.5634 -1.1650  1.9972
 9397TIP3    H252387   3.520   1.010   8.820 -0.3593 -0.8650 -1.6147
 9398TIP3   OH252388   5.176   1.075   3.191 -0.2051  0.5434  0.5683
 9398TIP3    H152389   5.153   1.019   3.265  0.3898 -0.7222 -0.1554
 9398TIP3    H252390   5.100   1.133   3.180 -0.8455 -0.1149  1.3526
 9399TIP3   OH252391   2.342   6.969   1.659 -0.1661  0.1804 -0.2445
 9399TIP3    H152392   2.412   6.928   1.608 -1.1667 -1.5890 -0.2929
 9399TIP3    H252393   2.272   6.984   1.596 -0.2473  0.9268  0.0142
 9400TIP3   OH252394   6.619   5.618   8.601 -0.1558  0.2064  0.0662
 9400TIP3    H152395   6.597   5.533   8.641  3.7250 -1.3795 -0.6690
 9400TIP3    H252396   6.683   5.596   8.534  0.0305  3.6816 -1.0700
 9401TIP3   OH252397   2.601   7.608   9.938  0.1472  0.3456  0.3134
 9401TIP3    H152398   2.674   7.642   9.886  0.1407  1.0703  0.7664
 9401TIP3    H252399   2.616   7.514   9.941 -0.8607 -0.0261 -2.5812
 9402TIP3   OH252400   0.726   5.396   1.679  0.7439 -0.4316  0.1412
 9402TIP3    H152401   0.750   5.458   1.748 -2.0084  1.1310 -0.1736
 9402TIP3    H252402   0.727   5.448   1.599 -1.4993 -0.7289 -0.1457
 9403TIP3   OH252403   0.855   6.733   0.993 -0.1539 -0.3421  0.1944
 9403TIP3    H152404   0.886   6.809   1.042 -0.4566 -0.3014  0.3255
 9403TIP3    H252405   0.889   6.658   1.042 -0.6810 -0.3066  0.6243
 9404TIP3   OH252406   7.211   4.305   1.201 -0.4771 -0.4620  0.3250
 9404TIP3    H152407   7.300   4.304   1.236 -0.7028  0.7767  0.9836
 9404TIP3    H252408   7.199   4.218   1.163  1.1203 -0.5336 -0.0607
 9405TIP3   OH252409   2.713   6.635   2.059 -0.0659 -0.1529 -0.2617
 9405TIP3    H152410   2.625   6.668   2.079 -0.7351 -0.5515 -2.3077
 9405TIP3    H252411   2.723   6.649   1.965  1.4686 -1.4817 -0.3391
 9406TIP3   OH252412   6.451   6.902   1.942 -0.2590  0.1717  0.5458
 9406TIP3    H152413   6.413   6.900   1.854  1.3118 -0.8401 -0.1475
 9406TIP3    H252414   6.520   6.967   1.938 -1.1167  1.1859  1.4833
 9407TIP3   OH252415   3.275   3.756   8.030  0.8015  0.0615 -0.0876
 9407TIP3    H152416   3.305   3.833   7.981 -1.9086  0.3014 -1.5500
 9407TIP3    H252417   3.223   3.792   8.102  1.1620 -0.3931  0.4102
 9408TIP3   OH252418   6.627   7.466   8.481  0.3528  0.2367 -0.1028
 9408TIP3    H152419   6.623   7.447   8.387  1.6322 -1.8583  0.2018
 9408TIP3    H252420   6.560   7.409   8.520  0.8870 -0.0710  0.3871
 9409TIP3   OH252421   4.280   1.996   0.916  0.4166 -0.3185 -0.0453
 9409TIP3    H152422   4.253   2.086   0.934  0.0485 -0.4544  0.0943
 9409TIP3    H252423   4.208   1.960   0.864 -0.0810 -0.9456  1.0547
 9410TIP3   OH252424   7.292   0.290   9.958 -0.2405  0.8961  0.3588
 9410TIP3    H152425   7.359   0.346   9.996  0.9398 -0.7838  0.8938
 9410TIP3    H252426   7.223   0.285  10.025  0.6346  0.0296  1.2241
 9411TIP3   OH252427   0.828   0.280   1.789 -0.8070  0.0278  0.0107
 9411TIP3    H152428   0.877   0.298   1.870  0.9979 -0.3493 -0.9403
 9411TIP3    H252429   0.770   0.355   1.779  0.5985  1.2373  0.4666
 9412TIP3   OH252430   5.722   7.532   0.482  0.1931 -0.0009  0.1791
 9412TIP3    H152431   5.795   7.474   0.499  0.1420 -0.2329 -0.3943
 9412TIP3    H252432   5.645   7.475   0.479  0.3123 -0.0934 -1.7208
 9413TIP3   OH252433   7.618   5.000   8.287 -0.0083  0.4806  0.4358
 9413TIP3    H152434   7.528   5.030   8.297  0.6754  3.9132 -1.7681
 9413TIP3    H252435   7.662   5.029   8.367 -0.4596  0.7337  0.5979
 9414TIP3   OH252436   1.837   3.620   7.411 -0.4212 -0.1248 -0.7935
 9414TIP3    H152437   1.755   3.592   7.370  0.3703 -4.5844  0.0984
 9414TIP3    H252438   1.896   3.636   7.337 -0.6861 -2.2074 -1.5429
 9415TIP3   OH252439   0.843   1.715   2.265  0.0251  0.5445  0.6655
 9415TIP3    H152440   0.773   1.721   2.200 -1.6849 -0.6960  2.3022
 9415TIP3    H252441   0.903   1.649   2.229 -0.9426 -0.1961  0.3756
 9416TIP3   OH252442   5.087   4.275   7.074 -0.4393  0.5446  0.6021
 9416TIP3    H152443   5.154   4.255   7.139 -0.8277  1.6677  1.3867
 9416TIP3    H252444   5.106   4.216   7.001  0.7609  0.1200  1.2251
 9417TIP3   OH252445   4.740   1.677   0.117 -0.6201 -0.4641 -0.1859
 9417TIP3    H152446   4.683   1.674   0.193 -0.1715 -0.6530  0.1527
 9417TIP3    H252447   4.781   1.763   0.121 -0.9974 -0.2707 -0.5137
 9418TIP3   OH252448   5.282   1.148   7.375  0.0720 -0.1160 -0.0255
 9418TIP3    H152449   5.306   1.119   7.462  0.4318 -0.5636 -0.2729
 9418TIP3    H252450   5.331   1.230   7.362 -2.2244  1.6004  1.3306
 9419TIP3   OH252451   0.553   6.754   0.568  0.2310 -0.4329 -0.2314
 9419TIP3    H152452   0.583   6.757   0.659  0.3352  0.4090 -0.2819
 9419TIP3    H252453   0.580   6.839   0.532 -0.1995 -0.5861 -0.9227
 9420TIP3   OH252454   1.850   2.798   2.002 -0.4256 -0.2912  0.0913
 9420TIP3    H152455   1.906   2.774   1.928  0.7285  0.7266  0.5972
 9420TIP3    H252456   1.767   2.753   1.985  0.1903 -0.9865 -1.2265
 9421TIP3   OH252457   1.524   2.742   2.943 -0.2088 -0.3346  0.3252
 9421TIP3    H152458   1.539   2.809   3.010  0.9422 -1.3522  1.1234
 9421TIP3    H252459   1.552   2.660   2.984 -2.7091 -1.5264 -0.1970
 9422TIP3   OH252460   5.927   2.469   8.827  0.1578 -0.1165  0.3896
 9422TIP3    H152461   5.853   2.486   8.885 -0.1733  1.0442 -0.3210
 9422TIP3    H252462   5.892   2.412   8.759 -0.6625  1.8675 -0.9630
 9423TIP3   OH252463   1.906   2.779   8.145 -0.7042  0.3539  0.2086
 9423TIP3    H152464   1.942   2.858   8.185  0.2412  0.3834 -0.6708
 9423TIP3    H252465   1.812   2.796   8.138 -1.0367  0.1458  2.8732
 9424TIP3   OH252466   5.933   2.114   7.958 -0.0379 -0.3518  0.0095
 9424TIP3    H152467   5.950   2.049   8.027 -2.4132 -2.1277 -0.9450
 9424TIP3    H252468   5.938   2.063   7.876  0.7404  1.2832 -1.0094
 9425TIP3   OH252469   1.999   1.218   8.302  0.7188  0.2264 -0.0027
 9425TIP3    H152470   1.923   1.200   8.246  0.5240 -0.2047  0.3919
 9425TIP3    H252471   2.058   1.144   8.287 -0.9088 -1.9228  3.0565
 9426TIP3   OH252472   6.028   4.967   9.068 -0.2345  0.0478 -0.1576
 9426TIP3    H152473   5.974   5.035   9.028 -2.6990 -1.5827  0.1609
 9426TIP3    H252474   6.004   4.886   9.022  0.9940 -0.9802  0.8954
 9427TIP3   OH252475   1.009   0.747   0.691 -0.1446  0.4841  0.4295
 9427TIP3    H152476   0.992   0.717   0.780 -0.2837 -1.6051 -0.2457
 9427TIP3    H252477   1.103   0.733   0.678 -0.6896 -2.7876 -0.8851
 9428TIP3   OH252478   5.573   0.171   0.430  0.5802  0.4627 -0.5934
 9428TIP3    H152479   5.521   0.092   0.444  0.5770  0.6510  0.5696
 9428TIP3    H252480   5.577   0.180   0.335  1.5245 -1.5456 -0.7945
 9429TIP3   OH252481   6.108   3.373   0.126 -0.0128 -0.1385 -0.0340
 9429TIP3    H152482   6.090   3.462   0.158  2.7225  0.3323  0.4974
 9429TIP3    H252483   6.135   3.385   0.035  2.2894 -0.0967  0.6006
 9430TIP3   OH252484   0.595   7.391   7.554 -0.4774  0.4601  0.1482
 9430TIP3    H152485   0.668   7.329   7.542 -0.5156  0.7135 -1.8452
 9430TIP3    H252486   0.632   7.463   7.605  0.7712  0.6920 -1.0258
 9431TIP3   OH252487   7.370   6.480   9.225 -0.3407 -0.0355 -0.4333
 9431TIP3    H152488   7.385   6.573   9.206 -0.0519  0.1171  0.4906
 9431TIP3    H252489   7.373   6.475   9.320 -1.1900 -0.8652 -0.4445
 9432TIP3   OH252490   1.751   5.326   0.230  0.0111  0.1809 -0.0480
 9432TIP3    H152491   1.706   5.366   0.304 -2.2148 -1.1593 -0.5836
 9432TIP3    H252492   1.817   5.269   0.270  0.0601  0.8400  0.8264
 9433TIP3   OH252493   6.979   2.169   8.568  0.2496  0.0415  0.6883
 9433TIP3    H152494   7.050   2.218   8.610  0.6542  1.4252 -1.4817
 9433TIP3    H252495   6.899   2.208   8.605  0.5937  1.5198 -0.0300
 9434TIP3   OH252496   0.204   2.556   7.616  0.7397  0.2074 -0.1125
 9434TIP3    H152497   0.128   2.503   7.591 -0.5462  1.7724  0.3394
 9434TIP3    H252498   0.265   2.548   7.542  0.0152 -0.8273 -0.6169
 9435TIP3   OH252499   4.385   2.200   9.845  0.1023  0.1838  0.2083
 9435TIP3    H152500   4.400   2.262   9.916  0.9254  0.4534 -0.1839
 9435TIP3    H252501   4.291   2.184   9.845  0.2662 -1.2417  2.5429
 9436TIP3   OH252502   0.156   3.150   7.176  0.0409 -0.0070 -0.0401
 9436TIP3    H152503   0.243   3.110   7.182  0.0791  0.0934  0.0904
 9436TIP3    H252504   0.171   3.231   7.127  0.0566  0.1106  0.1570
 9437TIP3   OH252505   7.091   2.662   6.635  0.1751 -0.4559 -0.1274
 9437TIP3    H152506   7.053   2.738   6.592  0.5585  1.0629  2.0155
 9437TIP3    H252507   7.181   2.659   6.604  1.3454  2.3896  2.4868
 9438TIP3   OH252508   5.634   0.155   0.986  0.4136 -0.2161 -0.5600
 9438TIP3    H152509   5.692   0.088   1.022  1.1450  0.7679  0.1319
 9438TIP3    H252510   5.595   0.197   1.062 -0.2700 -0.0469 -0.9967
 9439TIP3   OH252511   1.105   2.066   0.651 -0.5712  0.5462 -0.0313
 9439TIP3    H152512   1.024   2.104   0.618  0.1556  2.5846  0.3816
 9439TIP3    H252513   1.174   2.122   0.614  0.6597 -1.0402 -0.2542
 9440TIP3   OH252514   5.593   0.334   8.251  0.6222  0.2789 -0.1396
 9440TIP3    H152515   5.655   0.262   8.259 -0.3781 -0.6031 -0.0811
 9440TIP3    H252516   5.596   0.358   8.158  0.0166 -0.7365 -0.4421
 9441TIP3   OH252517   5.398   0.392   1.670  0.3563  0.0826  0.0531
 9441TIP3    H152518   5.424   0.465   1.614 -0.2934  0.5155  0.3016
 9441TIP3    H252519   5.467   0.387   1.736 -1.0143  2.4229  1.8259
 9442TIP3   OH252520   7.279   3.121   8.725  0.0531 -0.1228 -0.2999
 9442TIP3    H152521   7.321   3.041   8.756  0.4931  0.4642  0.6569
 9442TIP3    H252522   7.347   3.188   8.730 -0.5380  0.4921 -0.3164
 9443TIP3   OH252523   5.001   0.303   7.575 -0.0771 -0.1127 -0.2922
 9443TIP3    H152524   4.952   0.366   7.522 -1.0755  1.6447  2.4622
 9443TIP3    H252525   4.937   0.237   7.600  0.3397 -0.8250 -1.0713
 9444TIP3   OH252526   5.024   0.841   0.072  0.1492 -0.2812 -0.4073
 9444TIP3    H152527   4.953   0.900   0.097  1.6404  0.9177  1.3100
 9444TIP3    H252528   5.065   0.884  -0.003  1.4685  1.1969  1.0706
 9445TIP3   OH252529   4.574   1.989   0.125 -0.7776  0.6683  0.3268
 9445TIP3    H152530   4.588   1.958   0.036  1.8458 -0.2519  0.9592
 9445TIP3    H252531   4.566   1.909   0.177 -1.7425  1.1847  0.9916
 9446TIP3   OH252532   6.362   2.691   1.498 -0.0393 -0.0142 -0.5066
 9446TIP3    H152533   6.298   2.625   1.526  1.3487 -1.0979  0.2051
 9446TIP3    H252534   6.439   2.641   1.474  1.1914  1.3570  0.4200
 9447TIP3   OH252535   6.441   6.983   2.793 -0.0712  0.5445  0.0106
 9447TIP3    H152536   6.380   6.952   2.725 -0.2664  0.1860  0.3439
 9447TIP3    H252537   6.448   6.909   2.854  0.8115  0.5354 -0.0969
 9448TIP3   OH252538   0.338   3.230   7.964  0.1126 -0.1451  0.6305
 9448TIP3    H152539   0.309   3.221   8.055  1.8100 -0.5084  1.1728
 9448TIP3    H252540   0.419   3.281   7.970 -1.6372  3.2226 -1.0567
 9449TIP3   OH252541   2.107   3.023   8.402  0.2113 -0.1234 -0.6899
 9449TIP3    H152542   2.089   3.116   8.410 -0.1747 -0.0757 -1.9635
 9449TIP3    H252543   2.193   3.019   8.359  0.2123 -0.3568 -0.6677
 9450TIP3   OH252544   7.684   5.575   9.552  0.0944 -0.7906  0.1067
 9450TIP3    H152545   7.776   5.599   9.561  0.0814 -0.6675 -0.0685
 9450TIP3    H252546   7.681   5.483   9.576 -0.1532 -0.2121  2.5944
 9451TIP3   OH252547   3.265   3.851   9.867 -0.8400  0.4847 -0.3387
 9451TIP3    H152548   3.288   3.782   9.929 -0.4062 -0.2687 -1.3099
 9451TIP3    H252549   3.173   3.869   9.885 -0.4067  1.1989  1.3690
 9452TIP3   OH252550   3.878   2.601   0.276  0.2223 -0.0564 -0.4442
 9452TIP3    H152551   3.909   2.512   0.259 -2.8824 -1.6148  1.2745
 9452TIP3    H252552   3.908   2.620   0.365 -2.6037 -1.1908  0.8494
 9453TIP3   OH252553   5.284   0.878   8.581 -0.6551 -0.0649 -0.0929
 9453TIP3    H152554   5.313   0.790   8.557 -0.5715  0.2773 -1.3059
 9453TIP3    H252555   5.189   0.871   8.592 -0.6597 -0.2934 -0.2821
 9454TIP3   OH252556   3.509   1.963   9.317 -0.6252 -0.1019  0.0407
 9454TIP3    H152557   3.592   1.939   9.358 -1.2937  0.1073  1.5821
 9454TIP3    H252558   3.465   1.880   9.301 -1.0976 -0.1235  1.3794
 9455TIP3   OH252559   1.614   4.386   0.435 -0.3819  0.1422  0.4247
 9455TIP3    H152560   1.623   4.294   0.410  1.0087  0.0938  1.0251
 9455TIP3    H252561   1.691   4.429   0.397  0.1382  0.6399  1.9864
 9456TIP3   OH252562   4.262   5.810   0.150 -0.4736 -0.3597  0.0931
 9456TIP3    H152563   4.318   5.739   0.182  0.0345  0.1567  0.3492
 9456TIP3    H252564   4.184   5.806   0.205 -0.0047 -0.0744  0.7793
 9457TIP3   OH252565   3.516   6.743   0.236  0.2238 -0.4383  0.0199
 9457TIP3    H152566   3.591   6.769   0.291 -0.3921 -1.5401  1.4341
 9457TIP3    H252567   3.529   6.792   0.155  2.9436 -1.2341 -0.1299
 9458TIP3   OH252568   0.849   1.125   8.167 -0.5095  0.4400  0.1500
 9458TIP3    H152569   0.824   1.039   8.203  0.1565  0.9237  1.8668
 9458TIP3    H252570   0.779   1.146   8.105 -1.4195 -0.7104  0.7453
 9459TIP3   OH252571   1.515   0.672   2.110 -0.6458 -0.0236 -0.5840
 9459TIP3    H152572   1.424   0.687   2.085 -0.8339 -1.6022 -0.9297
 9459TIP3    H252573   1.512   0.597   2.170  0.2456  1.0735  0.9110
 9460TIP3   OH252574   7.524   3.774   9.862 -0.7708  0.0366  0.2640
 9460TIP3    H152575   7.476   3.714   9.805 -0.9493 -0.4466  0.9175
 9460TIP3    H252576   7.500   3.861   9.829 -0.3499 -0.2365 -0.8149
 9461TIP3   OH252577   6.079   3.410   9.293 -0.0000 -0.0031  0.1054
 9461TIP3    H152578   5.999   3.461   9.282  0.6965  0.8228 -1.4432
 9461TIP3    H252579   6.144   3.455   9.238  0.8244 -2.1725 -0.8101
 9462TIP3   OH252580   0.011   1.540   8.728  0.3039 -0.1080  0.4206
 9462TIP3    H152581  -0.032   1.474   8.675 -0.9571  0.7220  0.3854
 9462TIP3    H252582   0.073   1.582   8.668 -0.7029  0.4434 -0.2422
 9463TIP3   OH252583   4.797   2.497   1.170  0.1821 -0.0665  0.3008
 9463TIP3    H152584   4.762   2.515   1.257  0.3305 -0.5558  0.4675
 9463TIP3    H252585   4.764   2.568   1.115  0.6937  0.6545  0.9095
 9464TIP3   OH252586   6.972   2.837   8.838 -0.0934 -0.3802  0.7126
 9464TIP3    H152587   6.951   2.878   8.922  1.8755  0.5936  0.7956
 9464TIP3    H252588   6.917   2.883   8.775  1.0093  1.4719  1.0144
 9465TIP3   OH252589   6.598   5.540   9.265 -0.3108 -0.3056 -0.1608
 9465TIP3    H152590   6.547   5.505   9.338 -0.8675  0.8357  0.0222
 9465TIP3    H252591   6.536   5.595   9.217  0.1417 -0.7668 -1.3070
 9466TIP3   OH252592   5.124   2.634   1.580  0.1807  0.0666 -0.2219
 9466TIP3    H152593   5.147   2.708   1.636  2.3252  0.2370 -1.2515
 9466TIP3    H252594   5.207   2.606   1.541 -0.8787 -1.6051 -1.4139
 9467TIP3   OH252595   0.352   7.326   7.805  0.2392  0.5952 -0.2505
 9467TIP3    H152596   0.413   7.361   7.870  0.0640  0.2081  0.1272
 9467TIP3    H252597   0.365   7.380   7.728  0.8405  0.7116 -0.0681
 9468TIP3   OH252598   0.658   6.970   1.876 -0.2206  0.6513  0.2848
 9468TIP3    H152599   0.666   6.973   1.780 -2.8415 -0.6993 -0.0839
 9468TIP3    H252600   0.709   6.893   1.902 -1.4682 -0.4373 -0.3746
 9469TIP3   OH252601   4.089   7.310   7.871  0.6323 -0.1407  0.3047
 9469TIP3    H152602   4.011   7.295   7.818  0.1428  1.3536  0.5661
 9469TIP3    H252603   4.137   7.227   7.866 -0.3430 -0.6725 -0.8808
 9470TIP3   OH252604   4.438   2.991   0.561  0.1199 -0.4365 -0.0544
 9470TIP3    H152605   4.460   2.898   0.553 -1.5373 -0.9040  0.4633
 9470TIP3    H252606   4.440   3.009   0.655 -0.4437 -0.1877 -0.0830
 9471TIP3   OH252607   3.721   3.662   7.942 -0.7125 -0.2709 -0.0417
 9471TIP3    H152608   3.791   3.728   7.940 -0.7646 -0.2402 -1.5943
 9471TIP3    H252609   3.643   3.711   7.966 -0.6099  0.1015 -0.4588
 9472TIP3   OH252610   6.772   6.909   8.919  0.3532  0.1636  0.5625
 9472TIP3    H152611   6.694   6.949   8.959  0.5242  2.4961 -1.2755
 9472TIP3    H252612   6.836   6.908   8.990  0.0790  2.5286  0.9355
 9473TIP3   OH252613   1.543   3.904   0.249 -0.0946 -0.1614 -0.0574
 9473TIP3    H152614   1.602   3.831   0.229  0.3561  0.0147  0.5835
 9473TIP3    H252615   1.492   3.874   0.324 -1.1775 -0.4956 -0.9057
 9474TIP3   OH252616   6.012   3.607   8.842  0.1165  0.4567 -0.0079
 9474TIP3    H152617   6.014   3.542   8.772  0.3503  1.2217 -0.7200
 9474TIP3    H252618   6.016   3.554   8.923 -2.5767 -0.5762 -0.4426
 9475TIP3   OH252619   4.764   0.054   3.031  0.0704  0.2662  0.0167
 9475TIP3    H152620   4.723  -0.011   3.087  1.1502  0.1276  0.6777
 9475TIP3    H252621   4.702   0.127   3.030 -1.2872 -0.8457 -0.9721
 9476TIP3   OH252622   5.970   5.394   9.835  0.3982  0.1721  0.3737
 9476TIP3    H152623   6.015   5.451   9.897  0.2151 -1.1377  1.7742
 9476TIP3    H252624   6.020   5.313   9.836 -1.3312 -0.9473  1.1858
 9477TIP3   OH252625   5.729   2.826   2.148  0.1758 -0.3406  0.0312
 9477TIP3    H152626   5.787   2.770   2.200  0.8207 -0.8187 -1.1756
 9477TIP3    H252627   5.641   2.803   2.178  0.0689 -4.5586 -2.6242
 9478TIP3   OH252628   7.105   0.549   7.676 -0.4854  0.2514  0.0221
 9478TIP3    H152629   7.109   0.644   7.668  2.6086  0.3101  0.9456
 9478TIP3    H252630   7.196   0.520   7.663 -1.5116 -2.7223 -1.4633
 9479TIP3   OH252631   5.868   6.607   0.937 -0.2651  0.0324 -0.1999
 9479TIP3    H152632   5.883   6.531   0.993 -0.3778 -1.1418 -1.7078
 9479TIP3    H252633   5.895   6.578   0.850 -1.2947  1.3782 -0.9994
 9480TIP3   OH252634   4.210   3.718   8.797 -0.2686  0.1000 -0.1875
 9480TIP3    H152635   4.202   3.778   8.723 -0.8290  0.7921  0.4205
 9480TIP3    H252636   4.121   3.686   8.812  0.1755 -1.6552 -1.1182
 9481TIP3   OH252637   0.343   0.778   0.653  0.4761  0.0222 -0.6260
 9481TIP3    H152638   0.256   0.743   0.672  0.5237 -0.1732 -0.7642
 9481TIP3    H252639   0.394   0.702   0.626  0.8633  0.0365  0.0597
 9482TIP3   OH252640   1.547   0.880   8.435 -0.8428 -0.2666  0.4594
 9482TIP3    H152641   1.463   0.834   8.429 -0.7708 -0.2681 -0.6373
 9482TIP3    H252642   1.587   0.869   8.349  0.9221 -1.4590  1.3587
 9483TIP3   OH252643   3.596   7.388   7.002 -0.7830  0.6022  0.8857
 9483TIP3    H152644   3.551   7.304   7.000 -0.8197  0.6309  0.5351
 9483TIP3    H252645   3.689   7.366   7.008 -0.6175  0.4961 -1.4622
 9484TIP3   OH252646   6.945   6.110   1.682 -0.3064 -0.1662 -0.1442
 9484TIP3    H152647   7.003   6.146   1.615  1.2804 -1.4874  0.4615
 9484TIP3    H252648   6.927   6.184   1.740  1.7149  0.0424  0.2766
 9485TIP3   OH252649   2.030   2.541   8.708  0.2573 -0.3592 -0.0074
 9485TIP3    H152650   2.022   2.454   8.670  1.4223  0.1184 -1.4563
 9485TIP3    H252651   2.117   2.571   8.681  0.0795  1.0648  0.8835
 9486TIP3   OH252652   4.476   1.043   9.399  0.1851 -0.0468  0.2569
 9486TIP3    H152653   4.460   0.952   9.422 -0.8213  0.0312 -0.0847
 9486TIP3    H252654   4.555   1.067   9.448  0.6425 -1.1858  0.0998
 9487TIP3   OH252655   1.667   7.552   2.562  0.3861  0.1641  0.1830
 9487TIP3    H152656   1.577   7.524   2.578 -0.2269  2.7566  2.0386
 9487TIP3    H252657   1.684   7.527   2.471 -2.4984  0.2943 -0.5023
 9488TIP3   OH252658   4.040   4.426   7.671  0.0502  0.6205  0.0855
 9488TIP3    H152659   4.065   4.445   7.761 -1.7056  0.6509  0.6090
 9488TIP3    H252660   4.016   4.333   7.671  0.9793  0.3673 -0.5922
 9489TIP3   OH252661   2.907   2.610   0.981 -0.3195 -0.2870  0.2127
 9489TIP3    H152662   2.894   2.541   1.046  0.1645 -0.0657  0.5491
 9489TIP3    H252663   2.974   2.666   1.019  0.5248 -0.5741 -0.8080
 9490TIP3   OH252664   6.673   6.106   2.893 -0.6868  0.4519 -0.6157
 9490TIP3    H152665   6.648   6.132   2.981 -0.7259  2.4807 -1.1766
 9490TIP3    H252666   6.700   6.014   2.901  1.0759  1.0885  1.8611
 9491TIP3   OH252667   1.657   3.743   7.148 -0.3265 -0.1946  0.0149
 9491TIP3    H152668   1.630   3.722   7.058  0.7729 -2.0914  0.0534
 9491TIP3    H252669   1.737   3.795   7.137 -0.1838 -0.4384 -0.1242
 9492TIP3   OH252670   6.156   3.379   8.402 -0.4664 -0.0589 -0.3965
 9492TIP3    H152671   6.195   3.292   8.413 -3.3278 -1.2573  1.5584
 9492TIP3    H252672   6.087   3.366   8.337 -0.8650  0.7826 -0.1501
 9493TIP3   OH252673   4.324   7.747   1.694 -0.5290  0.4047 -0.4740
 9493TIP3    H152674   4.233   7.716   1.697 -1.6862  3.5226  1.2185
 9493TIP3    H252675   4.356   7.719   1.608 -1.9138 -3.6286  0.1162
 9494TIP3   OH252676   5.382   2.151   9.498  0.2620 -0.0807  0.4167
 9494TIP3    H152677   5.473   2.177   9.485  0.2584  0.3717  1.2085
 9494TIP3    H252678   5.375   2.066   9.457  1.1066 -0.2177  0.5359
 9495TIP3   OH252679   2.897   3.494   0.522  0.0181 -0.0668 -0.4749
 9495TIP3    H152680   2.976   3.535   0.486 -1.9973  2.3947 -2.4537
 9495TIP3    H252681   2.884   3.416   0.469 -1.0344  1.7165 -3.0308
 9496TIP3   OH252682   3.600   5.895   9.977  0.3881 -0.2175 -0.1154
 9496TIP3    H152683   3.693   5.870   9.977  0.5965  0.4846  1.0019
 9496TIP3    H252684   3.591   5.954  10.052 -0.8981 -0.0097 -0.4087
 9497TIP3   OH252685   3.815   0.388   9.355 -1.1541 -0.1943  0.2496
 9497TIP3    H152686   3.770   0.469   9.332 -1.0856 -0.1821  0.1552
 9497TIP3    H252687   3.906   0.415   9.372 -1.0595 -0.2957 -0.0856
 9498TIP3   OH252688   2.001   3.854   2.867 -0.2801 -0.6679  0.7459
 9498TIP3    H152689   2.062   3.820   2.932  1.4218  2.7054  1.1032
 9498TIP3    H252690   1.943   3.912   2.916 -2.2008 -1.8180 -0.0404
 9499TIP3   OH252691   1.291   1.819   6.807  0.1972 -0.4317 -0.5417
 9499TIP3    H152692   1.332   1.854   6.727 -0.7178  0.6544 -0.5510
 9499TIP3    H252693   1.204   1.790   6.779 -1.0930  2.1838  0.4812
 9500TIP3   OH252694   3.531   1.932   2.243 -0.1132 -0.3740 -0.2515
 9500TIP3    H152695   3.588   1.940   2.320 -0.4292 -1.5476  0.1290
 9500TIP3    H252696   3.591   1.935   2.168  0.1395  1.3861 -0.0013
 9501TIP3   OH252697   0.999   3.841   8.389 -0.0096 -0.5318  0.2720
 9501TIP3    H152698   0.942   3.883   8.453  0.9565 -1.5147  1.8517
 9501TIP3    H252699   1.087   3.855   8.423  0.7612  0.8923 -2.0735
 9502TIP3   OH252700   6.684   2.425   1.652  0.3895  0.0395  0.5473
 9502TIP3    H152701   6.673   2.520   1.655 -1.3583 -0.0755 -0.8081
 9502TIP3    H252702   6.679   2.403   1.559  1.8717 -1.2827  0.7491
 9503TIP3   OH252703   5.976   6.576   9.414  0.3904  0.5960  0.1353
 9503TIP3    H152704   5.923   6.497   9.402  0.0720  0.7194  0.6940
 9503TIP3    H252705   5.913   6.647   9.413  0.8228  1.0111 -1.9086
 9504TIP3   OH252706   4.236   6.943   7.828 -0.5229 -0.5113 -0.5709
 9504TIP3    H152707   4.243   6.854   7.863  0.2594 -0.0330  0.5550
 9504TIP3    H252708   4.222   6.998   7.905 -2.5718  0.1981 -1.3868
 9505TIP3   OH252709   4.895   2.037   9.325  0.3575  0.0685  0.0552
 9505TIP3    H152710   4.968   2.073   9.375  0.6893 -0.5989  0.0684
 9505TIP3    H252711   4.905   2.073   9.237  0.6505  0.0477  0.0805
 9506TIP3   OH252712   3.326   3.454   8.286  0.3984 -0.4826  0.7576
 9506TIP3    H152713   3.335   3.443   8.192  1.7685  0.9621  0.6696
 9506TIP3    H252714   3.373   3.380   8.324  2.1720  0.3215  0.2512
 9507TIP3   OH252715   3.898   2.012   0.144 -0.5158  0.5722  0.0508
 9507TIP3    H152716   3.838   1.979   0.076  0.6399  1.0884 -1.2631
 9507TIP3    H252717   3.841   2.047   0.212 -1.7390 -1.2633  0.0368
 9508TIP3   OH252718   6.161   4.412   6.924 -0.3449 -0.3928  0.0269
 9508TIP3    H152719   6.187   4.504   6.924 -2.9227  0.4386 -0.7631
 9508TIP3    H252720   6.206   4.374   6.849  0.0569  0.4644 -0.1780
 9509TIP3   OH252721   5.684   4.459   8.555 -0.2525 -0.4537  0.0336
 9509TIP3    H152722   5.703   4.388   8.493  1.1633 -1.3042  1.3661
 9509TIP3    H252723   5.698   4.420   8.641  1.9689  1.7532  0.8081
 9510TIP3   OH252724   3.456   2.666   0.298  0.4591  0.2017  0.2405
 9510TIP3    H152725   3.521   2.653   0.367  0.5259  2.1132  0.5877
 9510TIP3    H252726   3.381   2.705   0.342 -0.9672 -1.8768 -0.1752
 9511TIP3   OH252727   7.073   7.611   9.854 -0.1785 -0.1308  0.1173
 9511TIP3    H152728   7.002   7.584   9.797 -0.6530  0.6068  0.3471
 9511TIP3    H252729   7.051   7.700   9.879 -1.9046 -1.5369  4.3854
 9512TIP3   OH252730   7.449   6.532   0.583 -0.4186  0.0859  0.5279
 9512TIP3    H152731   7.447   6.572   0.670  0.0491 -1.8963  1.5016
 9512TIP3    H252732   7.538   6.497   0.575 -0.6294 -0.2436 -0.5398
 9513TIP3   OH252733   6.789   1.422   7.850  0.0234 -0.4583  0.1393
 9513TIP3    H152734   6.860   1.455   7.795  0.0374 -0.4935  0.1362
 9513TIP3    H252735   6.805   1.460   7.936 -0.3303  0.0685 -0.0244
 9514TIP3   OH252736   3.135   1.729   9.259 -0.2332  0.0204 -0.2338
 9514TIP3    H152737   3.107   1.769   9.342 -0.7076 -0.4682 -0.1531
 9514TIP3    H252738   3.111   1.793   9.192 -0.2048  0.2467 -0.0285
 9515TIP3   OH252739   2.613   1.491   0.843 -0.2476 -0.7089  0.0369
 9515TIP3    H152740   2.539   1.454   0.794 -1.7156  2.0398 -0.0128
 9515TIP3    H252741   2.573   1.551   0.906  1.8706 -0.5681  1.3550
 9516TIP3   OH252742   4.225   3.516   8.351  0.3852 -0.5660 -0.4283
 9516TIP3    H152743   4.310   3.481   8.380  0.4473  1.2955  1.9582
 9516TIP3    H252744   4.245   3.562   8.270  1.5972 -0.4563 -0.0862
 9517TIP3   OH252745   1.233   5.927   9.290  0.3439  0.1838 -0.1439
 9517TIP3    H152746   1.247   6.013   9.331 -1.1384  0.6065 -0.4542
 9517TIP3    H252747   1.226   5.866   9.364  1.3841  0.3168  0.0798
 9518TIP3   OH252748   3.554   6.318   8.065 -0.1185 -0.4112  0.3166
 9518TIP3    H152749   3.487   6.384   8.048 -2.5959 -2.7228  0.6157
 9518TIP3    H252750   3.597   6.306   7.980 -1.3661 -0.2043 -0.3723
 9519TIP3   OH252751   2.515   6.574   9.144 -0.2162  0.0189 -0.1239
 9519TIP3    H152752   2.601   6.606   9.171  0.0963  0.5226 -1.6424
 9519TIP3    H252753   2.453   6.626   9.195  0.3569 -0.4890  1.1332
 9520TIP3   OH252754   3.434   0.565   0.097  0.7394  0.4842 -0.0734
 9520TIP3    H152755   3.452   0.549   0.190 -0.2180 -0.6536 -0.0648
 9520TIP3    H252756   3.402   0.656   0.095  0.7646  0.5196  0.7132
 9521TIP3   OH252757   1.728   5.230   8.666 -0.5468  0.2261 -0.2212
 9521TIP3    H152758   1.737   5.318   8.704  1.0315  0.1597 -0.3587
 9521TIP3    H252759   1.635   5.209   8.675 -0.7401  1.4292  0.8810
 9522TIP3   OH252760   0.073   4.609   1.822 -0.5131  0.4120 -0.1520
 9522TIP3    H152761   0.105   4.672   1.886  0.2879  0.1356 -0.2771
 9522TIP3    H252762  -0.022   4.621   1.822 -0.5398  0.3190  1.1841
 9523TIP3   OH252763   0.379   4.440   7.802  0.0371 -0.1828  0.3157
 9523TIP3    H152764   0.380   4.508   7.735 -1.7371  0.5847  1.0202
 9523TIP3    H252765   0.380   4.358   7.752  0.3049  0.3502 -0.5877
 9524TIP3   OH252766   6.427   0.183   7.472 -0.3695 -0.5485  0.0044
 9524TIP3    H152767   6.349   0.233   7.497  0.3519  0.7815 -0.2861
 9524TIP3    H252768   6.415   0.166   7.379  1.1197  2.5807 -0.9144
 9525TIP3   OH252769   0.246   4.567   9.231  0.5252 -0.0263  0.4250
 9525TIP3    H152770   0.279   4.498   9.174 -1.2379  0.5107 -1.3561
 9525TIP3    H252771   0.254   4.532   9.320  2.0253 -1.4625 -0.2391
 9526TIP3   OH252772   7.449   3.513   2.584  0.2232 -0.4666  0.5810
 9526TIP3    H152773   7.482   3.523   2.673  0.5061 -0.5079  0.4832
 9526TIP3    H252774   7.365   3.558   2.584  0.0896 -0.7092  0.9435
 9527TIP3   OH252775   1.900   2.762   8.806 -0.1240 -0.3937 -0.5142
 9527TIP3    H152776   1.856   2.802   8.731  0.9470  0.9560 -0.4667
 9527TIP3    H252777   1.931   2.678   8.773  0.2952  0.1614 -1.5953
 9528TIP3   OH252778   2.333   6.831   9.180 -0.3392 -0.2105 -0.6662
 9528TIP3    H152779   2.260   6.865   9.232  0.4449  1.4980 -0.6106
 9528TIP3    H252780   2.298   6.828   9.090  0.1252  2.8858 -1.0757
 9529TIP3   OH252781   7.538   3.808   1.194  0.2239 -0.1653  0.3978
 9529TIP3    H152782   7.614   3.805   1.253  0.9212  0.8555 -0.4078
 9529TIP3    H252783   7.495   3.891   1.213  1.4100  1.0028 -1.5987
 9530TIP3   OH252784   7.559   4.200   2.026 -0.3513 -0.1348  0.2956
 9530TIP3    H152785   7.648   4.211   1.991  0.2369 -0.7284  1.5296
 9530TIP3    H252786   7.519   4.286   2.016 -0.2015 -0.2375 -1.7029
 9531TIP3   OH252787   6.953   7.525   0.115 -0.0374 -0.1052 -0.0135
 9531TIP3    H152788   7.021   7.559   0.174 -1.3801  0.6818  1.1212
 9531TIP3    H252789   6.988   7.541   0.027 -0.2391  3.5832  0.4475
 9532TIP3   OH252790   7.199   3.928   8.732  0.2105 -0.2411  0.3959
 9532TIP3    H152791   7.225   3.913   8.823  1.2892  0.1448  0.1641
 9532TIP3    H252792   7.159   3.846   8.705  0.6830 -0.6609  0.9471
 9533TIP3   OH252793   4.229   2.658   2.063  0.0320  0.1865  0.0853
 9533TIP3    H152794   4.256   2.658   2.155  1.6088 -1.5568 -0.3150
 9533TIP3    H252795   4.251   2.570   2.032  0.4133  1.0321 -2.2128
 9534TIP3   OH252796   2.797   1.646   1.101 -0.0853 -0.5201  0.1651
 9534TIP3    H152797   2.850   1.596   1.038 -2.1856  0.3075 -2.4266
 9534TIP3    H252798   2.794   1.590   1.179 -1.2508 -3.9710 -2.1068
 9535TIP3   OH252799   1.801   0.203   3.058 -0.2098 -0.0242 -0.5210
 9535TIP3    H152800   1.715   0.241   3.039 -0.3007 -0.4442 -0.9493
 9535TIP3    H252801   1.792   0.110   3.039  0.0225 -0.2730  0.5218
 9536TIP3   OH252802   5.449   1.049   0.181  0.2394 -0.4995 -0.4592
 9536TIP3    H152803   5.432   0.969   0.131 -1.1910 -0.5133  0.0169
 9536TIP3    H252804   5.537   1.036   0.215 -0.1686 -2.1480  0.0802
 9537TIP3   OH252805   5.126   2.842   7.941 -0.3150  0.1260 -0.0451
 9537TIP3    H152806   5.182   2.848   8.018  0.5590 -1.5646 -0.5087
 9537TIP3    H252807   5.071   2.765   7.956 -0.5374  0.1136 -0.8432
 9538TIP3   OH252808   7.350   5.126   1.259 -0.6064  0.3829  0.2848
 9538TIP3    H152809   7.326   5.145   1.350  1.2747 -0.4647  1.0042
 9538TIP3    H252810   7.343   5.210   1.215  2.1701  1.7291  2.1283
 9539TIP3   OH252811   5.387   4.389   9.153  0.2592 -0.1055 -0.1919
 9539TIP3    H152812   5.347   4.384   9.067 -1.6195  2.1620  0.4522
 9539TIP3    H252813   5.480   4.404   9.135  0.2884 -1.7718 -1.7467
 9540TIP3   OH252814   2.089   0.765   2.542  0.0155 -0.4987  0.1168
 9540TIP3    H152815   2.176   0.740   2.512 -0.5951  2.1618 -5.1051
 9540TIP3    H252816   2.095   0.860   2.555 -2.1695 -0.0860 -1.3445
 9541TIP3   OH252817   2.834   3.765   0.892 -0.4562 -0.1126 -0.3340
 9541TIP3    H152818   2.862   3.676   0.873  0.5837  0.4571 -1.6321
 9541TIP3    H252819   2.914   3.811   0.917 -0.8458  0.6499 -0.4610
 9542TIP3   OH252820   3.769   3.763   0.303  0.2647 -0.0806 -0.2918
 9542TIP3    H152821   3.685   3.769   0.258  0.5441 -0.6324 -0.9108
 9542TIP3    H252822   3.834   3.758   0.232  1.0471  2.5965  0.1215
 9543TIP3   OH252823   1.747   4.212   9.757 -1.0482 -0.3429 -0.1005
 9543TIP3    H152824   1.653   4.205   9.741 -1.5337  1.4882  1.6054
 9543TIP3    H252825   1.775   4.283   9.699 -1.3459  1.1097  1.4497
 9544TIP3   OH252826   3.858   3.153   8.118 -0.0422  0.5697 -0.3392
 9544TIP3    H152827   3.917   3.079   8.107  1.6208  1.6792  0.6387
 9544TIP3    H252828   3.873   3.208   8.041  0.1961  0.8278 -0.1144
 9545TIP3   OH252829   4.222   7.116   9.006  0.3503  0.3504  0.0749
 9545TIP3    H152830   4.225   7.042   9.067  0.8353 -0.8444 -1.3291
 9545TIP3    H252831   4.150   7.171   9.038 -0.6838 -1.2384  0.6139
 9546TIP3   OH252832   4.993   0.586   7.049  0.3718  0.4640 -0.2804
 9546TIP3    H152833   5.071   0.563   7.099 -0.4615  1.3385  1.5029
 9546TIP3    H252834   4.960   0.502   7.016  0.8713 -0.1745  0.7848
 9547TIP3   OH252835   5.277   2.918   8.289 -0.9095 -0.0786  0.3163
 9547TIP3    H152836   5.319   2.894   8.371  1.5381 -2.1595 -1.3797
 9547TIP3    H252837   5.191   2.952   8.314 -0.0304 -0.0394  3.7100
 9548TIP3   OH252838   5.098   5.933   9.901 -0.6050 -0.0875 -0.0948
 9548TIP3    H152839   5.042   5.990   9.954 -1.8566 -0.8927 -0.5062
 9548TIP3    H252840   5.141   5.876   9.965  0.2290  0.9287  0.2744
 9549TIP3   OH252841   1.689   5.324   7.367 -0.2714  0.0164  0.1072
 9549TIP3    H152842   1.635   5.399   7.388 -0.0373  0.1350  0.2962
 9549TIP3    H252843   1.756   5.323   7.436  0.3306  0.2352 -0.4651
 9550TIP3   OH252844   3.475   2.705   2.293 -0.1926 -0.2505 -0.3446
 9550TIP3    H152845   3.471   2.797   2.320 -1.3357  0.2626 -2.0809
 9550TIP3    H252846   3.394   2.667   2.327 -0.8887  0.0189 -1.6250
 9551TIP3   OH252847   5.558   6.987   8.968 -0.1693  0.5171  0.1914
 9551TIP3    H152848   5.471   6.993   8.928 -0.1446  0.2935  0.1057
 9551TIP3    H252849   5.542   6.947   9.054  0.2121 -2.5429 -1.0578
 9552TIP3   OH252850   2.820   7.137   7.295 -0.5590 -0.0621 -0.8921
 9552TIP3    H152851   2.907   7.120   7.260 -0.3951 -1.2031  0.0360
 9552TIP3    H252852   2.764   7.143   7.217  0.5341  2.1215 -1.6045
 9553TIP3   OH252853   5.514   5.526   9.812 -0.3635  0.2556 -0.1727
 9553TIP3    H152854   5.428   5.561   9.788 -0.8393 -0.4489  0.4380
 9553TIP3    H252855   5.526   5.552   9.904  0.9602  2.0179 -0.7936
 9554TIP3   OH252856   7.559   7.388   9.816 -0.0197 -0.2583 -0.0714
 9554TIP3    H152857   7.610   7.430   9.885 -0.2535  0.3539 -0.2650
 9554TIP3    H252858   7.468   7.411   9.836  0.0546  2.4338 -2.1557
 9555TIP3   OH252859   2.037   2.052   2.868 -0.1241  0.1565 -0.1682
 9555TIP3    H152860   2.094   1.979   2.846  0.9375  1.0772 -0.5708
 9555TIP3    H252861   1.958   2.011   2.904 -0.3547 -1.2551 -2.1271
 9556TIP3   OH252862   0.608   4.049   3.372 -0.0169 -0.0369 -0.2415
 9556TIP3    H152863   0.536   4.016   3.425  0.6265 -0.1731  0.5748
 9556TIP3    H252864   0.566   4.098   3.301 -0.8875  1.3629  1.1712
 9557TIP3   OH252865   4.462   5.989   9.887  0.1176  0.6144 -0.2662
 9557TIP3    H152866   4.464   6.068   9.834 -2.9264  0.2278 -1.1304
 9557TIP3    H252867   4.479   5.918   9.825  1.5604  0.4404  0.2790
 9558TIP3   OH252868   0.025   0.068   1.505 -0.4278 -0.5057  0.6800
 9558TIP3    H152869   0.073   0.013   1.567 -0.5506  0.1761  1.3837
 9558TIP3    H252870   0.001   0.008   1.434 -0.8761 -1.4456  1.6063
 9559TIP3   OH252871   2.306   2.626   7.380  0.5425  0.2376 -0.3415
 9559TIP3    H152872   2.223   2.602   7.423  0.4760 -0.7803 -0.9934
 9559TIP3    H252873   2.372   2.576   7.429  0.5044 -0.6608 -1.1673
 9560TIP3   OH252874   4.714   6.967   7.072 -0.5030 -0.3006 -0.3162
 9560TIP3    H152875   4.756   7.052   7.060 -0.5802  0.0008  1.2603
 9560TIP3    H252876   4.642   6.967   7.009  1.4793 -0.6333 -2.7246
 9561TIP3   OH252877   4.811   6.454   9.298  0.1491 -0.1015  0.0333
 9561TIP3    H152878   4.886   6.411   9.339  0.8971  1.1888  0.0563
 9561TIP3    H252879   4.799   6.535   9.348 -0.4127  0.3632 -0.8284
 9562TIP3   OH252880   6.696   0.937   9.251 -0.5652 -0.3259 -0.6222
 9562TIP3    H152881   6.780   0.981   9.240 -0.3733 -0.4857  0.1515
 9562TIP3    H252882   6.639   1.002   9.293 -0.9092 -0.1333 -1.3748
 9563TIP3   OH252883   2.144   3.571   1.530 -0.2032  0.2048  0.5132
 9563TIP3    H152884   2.169   3.654   1.571  1.0262 -0.1975  0.6059
 9563TIP3    H252885   2.154   3.586   1.436 -1.5369  0.6442  0.4197
 9564TIP3   OH252886   1.640   0.572   8.895  0.3570 -0.0993 -0.0699
 9564TIP3    H152887   1.552   0.556   8.927  0.0867  0.9771 -0.2707
 9564TIP3    H252888   1.695   0.570   8.973 -0.2685  2.2711  0.4905
 9565TIP3   OH252889   6.117   0.961   0.981 -0.4038  0.3916  0.0724
 9565TIP3    H152890   6.133   0.873   1.016  1.0188  1.2188  1.6851
 9565TIP3    H252891   6.022   0.969   0.979 -0.6074 -1.5435 -1.1741
 9566TIP3   OH252892   7.483   4.950   0.348  0.0555 -0.4533  0.0210
 9566TIP3    H152893   7.462   5.012   0.277  1.7393 -0.1296 -0.2254
 9566TIP3    H252894   7.512   5.005   0.420 -0.0540 -0.8775  0.3916
 9567TIP3   OH252895   3.859   5.783   8.801 -0.0461 -0.4528 -0.0501
 9567TIP3    H152896   3.823   5.715   8.858 -0.5187  0.0483  0.2572
 9567TIP3    H252897   3.914   5.735   8.739  2.2040 -0.8177  2.0785
 9568TIP3   OH252898   5.465   5.739   8.321  0.4220 -0.1399  0.1312
 9568TIP3    H152899   5.413   5.702   8.251  0.4888  1.6894 -0.9528
 9568TIP3    H252900   5.553   5.702   8.309  0.0042 -1.2721  0.4303
 9569TIP3   OH252901   0.212   4.417   7.098 -0.0593  0.0726  0.2470
 9569TIP3    H152902   0.237   4.401   7.006  1.3818 -0.4694  0.7017
 9569TIP3    H252903   0.117   4.424   7.096 -0.1994 -1.6360 -1.0400
 9570TIP3   OH252904   4.132   0.445   1.013 -0.6946 -0.4609 -0.1403
 9570TIP3    H152905   4.062   0.508   0.999 -2.6915 -2.5517 -0.0897
 9570TIP3    H252906   4.090   0.359   1.003  1.7764 -1.8191  0.2899
 9571TIP3   OH252907   2.149   4.962   0.990  0.2585  0.0590  0.4488
 9571TIP3    H152908   2.244   4.965   0.984  0.5265 -1.7279  2.5471
 9571TIP3    H252909   2.119   5.024   0.924  2.8294 -0.1364 -1.0485
 9572TIP3   OH252910   4.563   5.352   9.521 -0.7506  0.2216 -0.2386
 9572TIP3    H152911   4.541   5.403   9.599 -0.5778 -0.2023  0.0934
 9572TIP3    H252912   4.487   5.296   9.507 -0.1706 -0.8188  0.5581
 9573TIP3   OH252913   5.623   1.233   2.489  0.4401 -0.9368  0.1400
 9573TIP3    H152914   5.636   1.324   2.515  0.1803 -0.9618  0.3606
 9573TIP3    H252915   5.528   1.222   2.487  0.4686 -1.4849  1.1140
 9574TIP3   OH252916   1.600   7.609   0.026 -0.3237 -0.1258  0.3022
 9574TIP3    H152917   1.689   7.601  -0.008 -1.8263 -0.9131 -4.1635
 9574TIP3    H252918   1.567   7.689  -0.014 -1.7205  0.0239  1.6912
 9575TIP3   OH252919   3.656   1.896   0.034 -0.1298 -0.4022 -0.6784
 9575TIP3    H152920   3.708   1.856  -0.035  1.1441  2.7538 -1.7264
 9575TIP3    H252921   3.602   1.961  -0.011 -0.2505  0.8236  1.1425
 9576TIP3   OH252922   1.683   7.222   9.033  0.5176  0.4518 -0.0021
 9576TIP3    H152923   1.633   7.265   8.963 -0.0417 -0.9238 -0.4745
 9576TIP3    H252924   1.683   7.286   9.104 -2.8725  0.1648  0.4178
 9577TIP3   OH252925   6.169   4.580   9.009 -0.0373 -0.3381 -0.5556
 9577TIP3    H152926   6.264   4.573   8.998  0.0010  0.3849 -0.7535
 9577TIP3    H252927   6.158   4.634   9.088 -0.3080 -2.4531  0.9279
 9578TIP3   OH252928   6.118   7.335   7.864 -0.4980 -0.5505  0.1715
 9578TIP3    H152929   6.122   7.368   7.954 -2.8358  0.5021 -0.0542
 9578TIP3    H252930   6.118   7.239   7.874 -2.9543 -0.4774  1.5017
 9579TIP3   OH252931   1.495   5.572   2.504 -0.0191  0.1196 -0.1458
 9579TIP3    H152932   1.501   5.662   2.536  0.2029 -0.1278  0.5336
 9579TIP3    H252933   1.412   5.568   2.457  0.6554  1.0730 -1.4535
 9580TIP3   OH252934   6.111   6.325   0.941 -0.3588  0.0301 -0.4711
 9580TIP3    H152935   6.036   6.314   1.000 -0.0200 -2.3178 -0.3789
 9580TIP3    H252936   6.183   6.351   0.998 -0.1009 -1.9571  0.1732
 9581TIP3   OH252937   6.495   3.478   7.483  0.3637 -0.1506  0.1257
 9581TIP3    H152938   6.485   3.468   7.578 -1.4826 -0.6242 -0.0945
 9581TIP3    H252939   6.537   3.564   7.473  0.3391  0.0271  1.3505
 9582TIP3   OH252940   6.889   3.245   8.025 -0.0292 -0.3832  0.1606
 9582TIP3    H152941   6.879   3.283   7.938 -1.3800 -0.6295  0.1779
 9582TIP3    H252942   6.827   3.171   8.026  1.6139 -1.8122  0.5586
 9583TIP3   OH252943   2.740   1.217   9.741 -0.0483 -0.6009 -0.5043
 9583TIP3    H152944   2.707   1.304   9.716  0.1703 -0.5815 -0.7369
 9583TIP3    H252945   2.764   1.176   9.657 -0.3451 -0.9652 -0.4139
 9584TIP3   OH252946   5.666   2.039   8.186  0.1618 -0.3954  0.3854
 9584TIP3    H152947   5.697   1.990   8.263  0.9596 -0.9222 -0.2514
 9584TIP3    H252948   5.730   2.109   8.176  1.3266 -1.6023 -1.0563
 9585TIP3   OH252949   7.424   3.377   9.172 -0.3949 -0.0543 -0.3053
 9585TIP3    H152950   7.336   3.395   9.141 -0.6934 -0.0654  0.5069
 9585TIP3    H252951   7.469   3.461   9.169 -0.7953  0.1912  0.3984
 9586TIP3   OH252952   4.616   5.396   8.663  0.1061 -0.2346  0.0744
 9586TIP3    H152953   4.523   5.415   8.648 -0.2012 -2.1080 -0.7167
 9586TIP3    H252954   4.645   5.353   8.583  1.8331  0.7882  0.0990
 9587TIP3   OH252955   2.698   0.312   2.115  0.4724 -0.3791  0.3265
 9587TIP3    H152956   2.729   0.395   2.078  0.4841  0.5312  2.2829
 9587TIP3    H252957   2.625   0.287   2.059 -0.6937  1.8968  0.7242
 9588TIP3   OH252958   3.399   2.307   0.242 -0.3142  0.1983  0.1424
 9588TIP3    H152959   3.389   2.212   0.249 -1.7500  0.3807  0.8962
 9588TIP3    H252960   3.408   2.337   0.333  0.1913  0.7868 -0.0949
 9589TIP3   OH252961   0.662   3.867   7.100  0.0518 -0.2014  0.1688
 9589TIP3    H152962   0.656   3.921   7.021  0.3184 -1.0973 -0.4788
 9589TIP3    H252963   0.753   3.877   7.129 -0.3554  1.1024  1.0931
 9590TIP3   OH252964   6.677   4.315   7.390 -0.5985 -0.1755  0.5878
 9590TIP3    H152965   6.760   4.362   7.399 -0.8852  0.3921  0.2791
 9590TIP3    H252966   6.610   4.382   7.399 -1.0200 -0.5824  0.5035
 9591TIP3   OH252967   2.805   5.627   9.559  0.6458  0.4513 -0.1624
 9591TIP3    H152968   2.723   5.677   9.555  0.7999  0.7636  0.4871
 9591TIP3    H252969   2.871   5.691   9.584  1.2707  0.3965 -1.6128
 9592TIP3   OH252970   0.274   2.138   2.682 -0.2617  0.0007  0.1224
 9592TIP3    H152971   0.281   2.101   2.770 -0.6691 -1.5770 -0.4800
 9592TIP3    H252972   0.358   2.121   2.641 -0.4127 -0.1438 -0.1276
 9593TIP3   OH252973   5.336   0.336   8.779  0.0886 -0.2506  0.3335
 9593TIP3    H152974   5.356   0.321   8.872 -1.5284  0.9595  0.9326
 9593TIP3    H252975   5.364   0.426   8.763  0.2586 -0.4190 -0.3254
 9594TIP3   OH252976   2.533   0.766   1.264  0.0225 -0.3993 -0.0166
 9594TIP3    H152977   2.543   0.693   1.204 -0.7274 -0.3142 -0.2517
 9594TIP3    H252978   2.452   0.749   1.311  0.8452 -0.7257  1.3539
 9595TIP3   OH252979   7.659   3.399   8.640 -0.2165  0.6080 -0.2563
 9595TIP3    H152980   7.605   3.463   8.593 -0.3717 -0.0772 -1.0242
 9595TIP3    H252981   7.691   3.339   8.572  0.9079  0.5614  0.2884
 9596TIP3   OH252982   0.787   2.960   0.276  0.4621 -0.2982  0.3837
 9596TIP3    H152983   0.761   3.007   0.356  0.5030 -0.1880  0.3329
 9596TIP3    H252984   0.860   2.904   0.304  0.3831 -0.3664  0.4547
 9597TIP3   OH252985   5.295   2.140   9.146  0.3145  0.0653  0.3646
 9597TIP3    H152986   5.210   2.112   9.111  0.8077 -0.0124 -0.8367
 9597TIP3    H252987   5.322   2.068   9.203 -0.6654  0.3329  1.1824
 9598TIP3   OH252988   1.108   1.421   2.830  0.5739  0.0291 -0.2286
 9598TIP3    H152989   1.152   1.500   2.798  1.1644  0.3233  1.2281
 9598TIP3    H252990   1.160   1.349   2.793 -0.3093  0.2564 -2.0434
 9599TIP3   OH252991   0.240   2.990   7.944  0.1778 -0.0806  0.2987
 9599TIP3    H152992   0.314   3.050   7.932  0.8133 -0.6974  1.0255
 9599TIP3    H252993   0.222   2.993   8.038 -0.1148 -0.6342  0.2621
 9600TIP3   OH252994   2.990   3.900   8.834  0.4267 -0.0366  0.5925
 9600TIP3    H152995   3.046   3.827   8.806 -1.0449 -0.8148 -0.4337
 9600TIP3    H252996   2.960   3.875   8.921 -0.4946 -0.9577  0.0365
 9601TIP3   OH252997   7.392   3.190   1.172 -0.3868 -0.6728  0.2216
 9601TIP3    H152998   7.378   3.278   1.206 -0.8227 -1.3990  2.0271
 9601TIP3    H252999   7.475   3.162   1.211  0.0155 -0.8763 -0.7630
 9602TIP3   OH253000   1.052   5.457   2.944 -0.3062  0.3441 -0.4932
 9602TIP3    H153001   1.056   5.364   2.970 -1.7351  0.3742 -0.0807
 9602TIP3    H253002   1.074   5.457   2.851 -1.6291 -0.6065 -0.8415
 9603TIP3   OH253003   4.760   6.074   7.520  0.1683 -0.2134  1.0497
 9603TIP3    H153004   4.703   6.041   7.450  0.9530  0.3958  0.0842
 9603TIP3    H253005   4.801   6.152   7.482  1.6984 -0.6825  1.6702
 9604TIP3   OH253006   6.965   6.882   0.811 -0.6409 -0.1874 -0.7944
 9604TIP3    H153007   7.031   6.816   0.789 -0.0581  0.0048  0.2857
 9604TIP3    H253008   6.909   6.887   0.734 -0.6650 -1.8995 -0.9123
 9605TIP3   OH253009   2.921   1.522   7.603 -0.2592 -0.1110  0.0013
 9605TIP3    H153010   3.013   1.536   7.622 -0.2621  0.3774 -0.3321
 9605TIP3    H253011   2.899   1.439   7.647 -0.0121  0.4660  1.2391
 9606TIP3   OH253012   2.532   0.595   1.027  0.3090 -0.0585 -0.0347
 9606TIP3    H153013   2.579   0.661   0.976 -0.5474 -0.1895 -1.0400
 9606TIP3    H253014   2.441   0.603   0.997 -0.2749  0.0270  1.6723
 9607TIP3   OH253015   2.785   6.534   8.286  0.4237  0.4895  0.0921
 9607TIP3    H153016   2.787   6.455   8.341  0.0623 -0.0450 -0.6516
 9607TIP3    H253017   2.770   6.501   8.197  0.4472  1.3874 -0.2500
 9608TIP3   OH253018   6.965   3.654   8.199 -0.0145  0.9375  0.2962
 9608TIP3    H153019   6.882   3.698   8.180 -0.4086  0.6415  1.2502
 9608TIP3    H253020   6.943   3.561   8.200  0.2904  0.8684  0.7439
 9609TIP3   OH253021   3.255   7.335   0.201 -0.5492  0.1013 -0.1718
 9609TIP3    H153022   3.293   7.264   0.252  1.3055  0.9347 -0.3109
 9609TIP3    H253023   3.215   7.393   0.266  1.9280  1.2321  0.4521
 9610TIP3   OH253024   2.377   2.743   8.764 -0.0837  0.1340  0.0114
 9610TIP3    H153025   2.335   2.702   8.689  0.2891 -2.6157  1.1825
 9610TIP3    H253026   2.470   2.747   8.740 -0.2026  1.0207 -0.3634
 9611TIP3   OH253027   0.335   6.860   1.718 -0.9626  0.0531 -0.1286
 9611TIP3    H153028   0.339   6.779   1.768  0.1979 -0.6454 -1.2698
 9611TIP3    H253029   0.331   6.832   1.626  0.6585  1.2365 -0.6150
 9612TIP3   OH253030   4.955   1.661   0.973  0.0778 -0.2296 -0.2450
 9612TIP3    H153031   4.879   1.603   0.971 -1.0980  1.2256  0.2813
 9612TIP3    H253032   4.961   1.694   0.883  0.0106 -0.2670 -0.2636
 9613TIP3   OH253033   6.166   1.439   8.846  0.1323 -0.2681  0.1261
 9613TIP3    H153034   6.110   1.509   8.813  1.2469  1.0371  0.8774
 9613TIP3    H253035   6.136   1.360   8.801  1.1890  1.2350 -3.5905
 9614TIP3   OH253036   0.566   3.145   2.986  0.4066  0.1662  0.3097
 9614TIP3    H153037   0.529   3.059   3.001  0.0048  0.4347  0.9002
 9614TIP3    H253038   0.596   3.174   3.073 -0.4886  1.0825  0.3267
 9615TIP3   OH253039   5.720   0.489   1.154 -0.2992  0.0266 -0.2819
 9615TIP3    H153040   5.669   0.564   1.186  1.2412  1.3560 -0.8231
 9615TIP3    H253041   5.689   0.415   1.207 -0.7522  1.3450  1.3998
 9616TIP3   OH253042   6.075   7.191   2.614  0.3091  0.4090 -0.2069
 9616TIP3    H153043   6.107   7.200   2.704  1.8920 -0.5433 -0.6383
 9616TIP3    H253044   6.096   7.275   2.573 -0.3432  0.8159  0.2740
 9617TIP3   OH253045   5.926   4.305   9.687 -0.1773  0.6963  0.6955
 9617TIP3    H153046   5.981   4.259   9.624 -0.6664 -0.9717  1.4405
 9617TIP3    H253047   5.855   4.342   9.635 -0.7868 -0.9800  0.2796
 9618TIP3   OH253048   2.366   2.058   7.888 -0.3281 -0.9917  0.0624
 9618TIP3    H153049   2.349   2.152   7.900 -0.7124 -1.3019  2.3050
 9618TIP3    H253050   2.461   2.050   7.898 -0.0535 -0.6565 -1.8879
 9619TIP3   OH253051   6.962   4.128   9.440  0.4814  0.0560  0.5589
 9619TIP3    H153052   6.881   4.110   9.392  0.3830  1.9427 -0.0983
 9619TIP3    H253053   6.939   4.116   9.532 -1.2683  2.6530  0.5867
 9620TIP3   OH253054   4.124   2.978   7.492  0.0033  0.1419  0.1478
 9620TIP3    H153055   4.071   2.937   7.425 -1.1886 -0.3903  1.3834
 9620TIP3    H253056   4.186   3.033   7.443 -0.7697 -0.2866 -1.3650
 9621TIP3   OH253057   1.297   2.778   8.949 -0.0353 -0.1898 -0.7606
 9621TIP3    H153058   1.328   2.734   8.870 -1.3260 -0.1120 -1.3372
 9621TIP3    H253059   1.224   2.725   8.980 -0.7659  0.8083 -0.7137
 9622TIP3   OH253060   2.289   6.949   0.513  0.2097  0.3475  0.0407
 9622TIP3    H153061   2.211   6.998   0.487  1.7363  2.2256 -1.3685
 9622TIP3    H253062   2.299   6.966   0.606 -1.3149 -0.3524  0.3570
 9623TIP3   OH253063   2.792   3.529   1.368  0.0597 -0.3910 -0.1516
 9623TIP3    H153064   2.747   3.534   1.452 -0.6244 -0.7870 -0.4772
 9623TIP3    H253065   2.770   3.441   1.335 -0.2185 -0.0099 -1.0205
 9624TIP3   OH253066   3.410   3.746   9.563 -0.0499  0.6204 -0.0973
 9624TIP3    H153067   3.406   3.749   9.467 -0.0703  1.1119 -0.0822
 9624TIP3    H253068   3.332   3.793   9.591 -0.6234 -0.4518  0.1642
 9625TIP3   OH253069   6.442   2.003   1.221 -0.1258 -0.1349  0.4258
 9625TIP3    H153070   6.401   1.952   1.151  0.0526 -0.9959  0.9356
 9625TIP3    H253071   6.521   1.953   1.243  0.6489  0.9519  0.1707
 9626TIP3   OH253072   5.804   7.144   7.887 -0.1493 -0.1069  0.5060
 9626TIP3    H153073   5.786   7.238   7.889 -0.6031 -0.2033  1.6049
 9626TIP3    H253074   5.886   7.133   7.936 -0.4602 -0.3553  0.9756
 9627TIP3   OH253075   0.794   5.636   2.940 -0.1388  0.0628  0.4242
 9627TIP3    H153076   0.872   5.630   2.994 -0.7940 -0.8555  1.3138
 9627TIP3    H253077   0.793   5.555   2.889 -0.3586  0.2110  0.1849
 9628TIP3   OH253078   1.965   1.127   1.374 -0.9344  0.2092  0.2309
 9628TIP3    H153079   1.999   1.044   1.410 -2.5817 -0.5017  0.2627
 9628TIP3    H253080   1.908   1.100   1.301  0.8462  1.5180 -1.7589
 9629TIP3   OH253081   1.086   0.643   7.738 -0.0571 -0.4765 -0.9312
 9629TIP3    H153082   1.019   0.625   7.671 -0.4930 -0.0296 -0.6259
 9629TIP3    H253083   1.088   0.739   7.745  0.5141 -0.4946 -0.8328
 9630TIP3   OH253084   1.361   7.673   2.996  0.2511 -0.1415 -0.2735
 9630TIP3    H153085   1.441   7.686   3.047  1.4791 -1.4399 -1.7452
 9630TIP3    H253086   1.329   7.587   3.021  0.0852 -0.2000 -0.6742
 9631TIP3   OH253087   1.440   4.783   0.773  0.7196  0.2844 -0.2172
 9631TIP3    H153088   1.438   4.712   0.837  2.3089  0.3415 -0.0693
 9631TIP3    H253089   1.445   4.738   0.688 -1.8894  0.1953 -0.4240
 9632TIP3   OH253090   5.881   6.738   7.290  0.1218  0.3949 -0.0296
 9632TIP3    H153091   5.862   6.692   7.208  2.0444 -1.0647  0.2656
 9632TIP3    H253092   5.964   6.782   7.273 -0.0866  1.0939  0.7475
 9633TIP3   OH253093   2.838   3.884   8.605  0.5349  0.0276 -0.3693
 9633TIP3    H153094   2.886   3.879   8.522  1.3111  0.1493  0.0597
 9633TIP3    H253095   2.904   3.911   8.669  0.2491 -1.3076  0.5380
 9634TIP3   OH253096   6.483   6.198   1.128 -0.1238  0.7690 -0.2378
 9634TIP3    H153097   6.422   6.271   1.141 -0.3835  0.6922 -0.9849
 9634TIP3    H253098   6.427   6.121   1.116  0.1478  0.4629  0.3951
 9635TIP3   OH253099   2.786   3.840   9.677  0.5870 -0.1321  0.4658
 9635TIP3    H153100   2.734   3.920   9.668  1.9453  0.8290  0.7679
 9635TIP3    H253101   2.733   3.772   9.636 -0.4279  0.9961 -0.1620
 9636TIP3   OH253102   2.481   3.123   1.396  0.0484 -0.0697 -0.1419
 9636TIP3    H153103   2.519   3.073   1.468  0.9724  0.3124 -0.3427
 9636TIP3    H253104   2.391   3.090   1.388  0.0226 -0.3224  0.9859
 9637TIP3   OH253105   6.637   6.029   7.272 -0.3860 -0.0360  0.1165
 9637TIP3    H153106   6.584   6.109   7.276 -1.2961 -0.6542  0.9701
 9637TIP3    H253107   6.628   5.999   7.181 -2.0103 -0.4238  0.3613
 9638TIP3   OH253108   1.933   0.192   9.154 -0.2843 -0.4648 -0.2104
 9638TIP3    H153109   1.965   0.262   9.098  0.0277 -0.1428  0.3508
 9638TIP3    H253110   1.859   0.230   9.200  0.1421 -0.3559  0.4045
 9639TIP3   OH253111   5.917   0.318   0.979  0.9190 -0.0115  0.8165
 9639TIP3    H153112   5.859   0.391   1.000  1.5373  0.7039  0.0905
 9639TIP3    H253113   5.986   0.357   0.925  0.5551 -1.3703 -0.7060
 9640TIP3   OH253114   0.554   7.662   7.326 -0.3875 -0.4787 -0.1187
 9640TIP3    H153115   0.621   7.629   7.266  0.0484 -1.2805  0.7875
 9640TIP3    H253116   0.557   7.603   7.400 -1.4044  0.0893  0.3944
 9641TIP3   OH253117   6.079   7.016   1.227 -0.1138  0.1534  0.1764
 9641TIP3    H153118   6.016   7.043   1.294 -1.0331 -1.4712  0.0042
 9641TIP3    H253119   6.067   7.080   1.157  0.8501  1.8667  1.5075
 9642TIP3   OH253120   2.721   6.486   8.962  0.1831 -0.0773 -0.0727
 9642TIP3    H153121   2.703   6.535   8.882  2.0913 -0.2211 -0.6433
 9642TIP3    H253122   2.656   6.517   9.025 -0.6745  0.8158 -1.3633
 9643TIP3   OH253123   3.845   2.198   1.252 -0.0098 -0.1712  0.3148
 9643TIP3    H153124   3.935   2.166   1.257 -0.0727 -0.3151  0.5956
 9643TIP3    H253125   3.809   2.179   1.339 -0.6776 -1.2046 -0.1598
 9644TIP3   OH253126   1.154   0.805   9.169 -0.0423 -0.4674  0.7386
 9644TIP3    H153127   1.169   0.748   9.095 -1.1470  0.9057 -0.6154
 9644TIP3    H253128   1.225   0.870   9.165  0.8123 -1.2953  1.8582
 9645TIP3   OH253129   7.380   2.081   1.245  0.1708  0.5142 -0.1704
 9645TIP3    H153130   7.334   2.115   1.168  0.3553  2.0887  0.3674
 9645TIP3    H253131   7.470   2.070   1.216  0.3348  1.5253 -0.0893
 9646TIP3   OH253132   2.604   6.044   8.569 -0.6251 -0.5359 -0.1992
 9646TIP3    H153133   2.582   6.117   8.628 -0.4719 -0.6962  0.0591
 9646TIP3    H253134   2.667   5.992   8.619  0.4035 -0.0449 -0.9579
 9647TIP3   OH253135   7.142   6.860   1.585  0.1522 -0.5132  0.4710
 9647TIP3    H153136   7.053   6.894   1.596  0.4402  0.1420  0.7609
 9647TIP3    H253137   7.199   6.929   1.618  0.7531 -1.1463  0.7834
 9648TIP3   OH253138   6.183   6.164   1.858  0.2314 -0.2198 -0.0048
 9648TIP3    H153139   6.195   6.245   1.908 -1.4727 -0.2184  0.4557
 9648TIP3    H253140   6.106   6.180   1.803 -0.3232 -1.6203  0.3154
 9649TIP3   OH253141   0.084   4.506   8.802  0.1236  0.5574 -0.0391
 9649TIP3    H153142   0.067   4.448   8.877  1.2304  0.7416  0.3716
 9649TIP3    H253143   0.012   4.570   8.805 -2.1867 -1.7650 -1.5842
 9650TIP3   OH253144   4.569   4.607   8.390  0.2482 -0.7310 -0.5139
 9650TIP3    H153145   4.631   4.548   8.434 -0.2446 -1.2449 -0.4952
 9650TIP3    H253146   4.542   4.558   8.312 -0.2565 -0.5812 -0.4361
 9651TIP3   OH253147   1.190   4.412   7.129 -0.2603  0.1328  0.0050
 9651TIP3    H153148   1.165   4.500   7.101 -0.4973  0.6905  1.8953
 9651TIP3    H253149   1.264   4.390   7.072 -0.2551  1.4993 -0.5645
 9652TIP3   OH253150   4.794   2.193   0.470  0.0144 -0.3904 -0.7552
 9652TIP3    H153151   4.799   2.263   0.535  0.4681  0.7074 -1.9218
 9652TIP3    H253152   4.783   2.113   0.521  0.1006  0.4625  0.6475
 9653TIP3   OH253153   7.363   3.751   7.885 -0.1853  0.5721 -0.5605
 9653TIP3    H153154   7.289   3.715   7.934 -0.1538 -0.2268 -1.0676
 9653TIP3    H253155   7.323   3.787   7.805 -0.0943  0.6803 -0.5569
 9654TIP3   OH253156   3.843   3.086   7.341 -0.2998  0.6649  0.3267
 9654TIP3    H153157   3.897   3.158   7.309 -0.3171  1.6407  2.3925
 9654TIP3    H253158   3.764   3.090   7.286 -0.2554  2.1539  0.3358
 9655TIP3   OH253159   2.260   3.156   9.326 -0.1362  0.1676  0.0610
 9655TIP3    H153160   2.346   3.114   9.328  0.1810  0.7690 -0.6808
 9655TIP3    H253161   2.225   3.135   9.240 -1.0983 -0.7654  0.6530
 9656TIP3   OH253162   0.489   5.171   9.083 -0.4781  0.0044 -0.0987
 9656TIP3    H153163   0.543   5.224   9.024 -0.6519 -0.1630 -0.4120
 9656TIP3    H253164   0.427   5.128   9.025 -0.8284  0.0516  0.2414
 9657TIP3   OH253165   7.661   7.036   9.856  0.0534  0.4704 -0.5112
 9657TIP3    H153166   7.749   7.046   9.819  0.0808 -0.0215 -0.5891
 9657TIP3    H253167   7.627   6.957   9.814 -0.1272  0.2146  0.1015
 9658TIP3   OH253168   0.804   0.891   8.716  0.2216  0.2327  0.0561
 9658TIP3    H153169   0.886   0.881   8.667 -0.5310  0.8693 -1.3906
 9658TIP3    H253170   0.786   0.804   8.750  0.8605 -0.1953 -0.6590
 9659TIP3   OH253171   2.611   3.532   8.688 -0.3676  0.6446  0.3351
 9659TIP3    H153172   2.609   3.448   8.642  1.2293 -0.3344  1.8670
 9659TIP3    H253173   2.640   3.595   8.622  2.2419 -0.7679 -0.0068
 9660TIP3   OH253174   4.793   1.760   9.413 -0.1632  0.7859  0.0918
 9660TIP3    H153175   4.860   1.698   9.384  0.2609 -0.4011  3.2623
 9660TIP3    H253176   4.813   1.841   9.366  1.6524 -0.3744 -1.2566
 9661TIP3   OH253177   2.875   3.269   1.552  0.1241  0.6144  0.1782
 9661TIP3    H153178   2.825   3.257   1.471 -0.2661  0.4139  0.4396
 9661TIP3    H253179   2.853   3.357   1.582  0.6165  0.8547 -0.1642
 9662TIP3   OH253180   3.618   6.779   9.029  0.0247 -0.0312  0.2006
 9662TIP3    H153181   3.600   6.714   8.961 -1.1191 -0.8222  1.2260
 9662TIP3    H253182   3.662   6.851   8.982 -1.4255 -0.1990 -1.5270
 9663TIP3   OH253183   3.724   6.743   9.654 -0.5506  0.0004 -0.0405
 9663TIP3    H153184   3.629   6.758   9.651 -0.5854 -0.1512  0.2873
 9663TIP3    H253185   3.735   6.668   9.712 -0.4046 -1.6290 -2.0948
 9664TIP3   OH253186   6.539   6.034   2.644  0.2773  0.2797 -0.2027
 9664TIP3    H153187   6.524   5.947   2.682 -2.7115  1.1990  1.0094
 9664TIP3    H253188   6.571   6.087   2.717  0.3393  0.6361 -0.4893
 9665TIP3   OH253189   4.164   7.027   2.245 -0.8418 -0.0043 -1.2757
 9665TIP3    H153190   4.178   6.933   2.233  1.9701 -0.1936  1.7682
 9665TIP3    H253191   4.107   7.033   2.322  2.2340  0.5139  1.1875
 9666TIP3   OH253192   2.924   2.444   2.006  0.0101 -0.3069  0.2177
 9666TIP3    H153193   2.915   2.423   1.913  0.5870  1.2558 -0.2304
 9666TIP3    H253194   2.963   2.531   2.007 -0.0072 -0.2815  1.9381
 9667TIP3   OH253195   7.182   3.781   1.386 -0.6176  0.3341  0.2733
 9667TIP3    H153196   7.221   3.702   1.424 -1.0072  0.1763  0.3485
 9667TIP3    H253197   7.257   3.834   1.358 -0.3440  0.1443  0.6403
 9668TIP3   OH253198   0.698   6.689   0.298 -0.3023  0.1625 -0.4686
 9668TIP3    H153199   0.783   6.704   0.341  0.2187 -2.1426 -0.5719
 9668TIP3    H253200   0.633   6.705   0.366  0.3047  0.4258  0.0566
 9669TIP3   OH253201   1.110   6.263   7.582  0.0612  0.5888  0.4932
 9669TIP3    H153202   1.084   6.174   7.559  0.3184  0.7461 -0.4192
 9669TIP3    H253203   1.097   6.267   7.677 -1.3373  0.0420  0.3459
 9670TIP3   OH253204   3.465   2.472   7.815  0.0005  0.2204  0.2688
 9670TIP3    H153205   3.443   2.529   7.741  1.8352  0.3849 -0.1897
 9670TIP3    H253206   3.459   2.529   7.892  0.7232  0.7681 -0.0658
 9671TIP3   OH253207   7.007   7.615   7.965  0.2727 -0.5985 -0.4420
 9671TIP3    H153208   7.014   7.699   7.919 -0.5740  1.4244  2.7995
 9671TIP3    H253209   7.096   7.579   7.964  0.9125  0.9122 -0.8760
 9672TIP3   OH253210   0.913   6.094   0.711  0.5602  0.4311  0.2237
 9672TIP3    H153211   0.869   6.017   0.746  2.2988  0.3891  2.5733
 9672TIP3    H253212   0.994   6.061   0.672 -0.1500  0.7802 -1.6277
 9673TIP3   OH253213   7.546   0.942   2.389  0.2691 -0.2660 -0.4379
 9673TIP3    H153214   7.618   0.878   2.393  0.7534  0.2516 -0.7712
 9673TIP3    H253215   7.587   1.022   2.357 -0.4008  0.1263 -0.3249
 9674TIP3   OH253216   3.275   2.395   9.615  0.1275 -0.0917  0.5827
 9674TIP3    H153217   3.229   2.469   9.654 -1.7543 -0.7710 -0.2091
 9674TIP3    H253218   3.336   2.366   9.682 -2.1224 -0.4739  2.6112
 9675TIP3   OH253219   5.945   1.679   2.268  0.3026 -0.3200  0.1378
 9675TIP3    H153220   5.980   1.661   2.181 -0.4257  0.1069 -0.2574
 9675TIP3    H253221   5.853   1.654   2.262 -0.5146  2.3880 -0.1219
 9676TIP3   OH253222   7.308   5.430   7.214  0.5599 -0.2173  0.2804
 9676TIP3    H153223   7.307   5.339   7.183  1.6545 -0.1816  0.1284
 9676TIP3    H253224   7.264   5.426   7.299  1.5044 -1.0657  0.7501
 9677TIP3   OH253225   6.435   4.999   0.507  0.1819  0.0554  0.0147
 9677TIP3    H153226   6.504   5.039   0.560  1.1399 -1.6216  0.1276
 9677TIP3    H253227   6.482   4.961   0.432 -0.6349 -0.9033 -0.0380
 9678TIP3   OH253228   6.230   0.530   7.836  0.2383  0.2459 -0.1492
 9678TIP3    H153229   6.163   0.570   7.781  0.9950 -1.0096 -2.0906
 9678TIP3    H253230   6.312   0.563   7.801  0.7485 -0.7478  0.0746
 9679TIP3   OH253231   0.107   3.598   1.919  0.0433 -0.1834  0.1596
 9679TIP3    H153232   0.078   3.647   1.996  4.9326 -0.1958  2.3842
 9679TIP3    H253233   0.091   3.657   1.845 -2.9245  0.6696  1.3492
 9680TIP3   OH253234   0.091   5.091   2.652 -0.7017 -0.3127 -0.1126
 9680TIP3    H153235   0.117   5.019   2.595 -1.2269 -1.0921  0.6064
 9680TIP3    H253236   0.174   5.128   2.683 -0.4259 -0.3592 -0.7780
 9681TIP3   OH253237   2.470   5.640   9.015 -0.2217  0.2674  0.2963
 9681TIP3    H153238   2.450   5.692   8.937  1.1999 -1.1746 -1.0852
 9681TIP3    H253239   2.392   5.586   9.028  0.7824 -1.9972 -2.2798
 9682TIP3   OH253240   5.917   6.040   9.370 -0.3239  0.1847 -0.0070
 9682TIP3    H153241   5.914   6.065   9.277 -1.3604 -0.3872 -0.1525
 9682TIP3    H253242   5.925   5.944   9.368  0.2759  0.2227  0.5001
 9683TIP3   OH253243   7.064   0.961   9.473  0.3298 -0.3961  0.2642
 9683TIP3    H153244   7.133   0.983   9.536 -1.0960  2.0461  1.1093
 9683TIP3    H253245   7.072   1.028   9.405 -0.5595 -0.7322 -0.1784
 9684TIP3   OH253246   6.973   3.715   0.056 -0.3072 -0.0989  0.5100
 9684TIP3    H153247   6.920   3.695   0.133  1.1307 -0.9270  1.3137
 9684TIP3    H253248   7.010   3.630   0.030  0.3789  0.4094 -0.2103
 9685TIP3   OH253249   0.467   5.858   2.452  0.5090 -0.0202  0.0280
 9685TIP3    H153250   0.390   5.857   2.395 -0.2609  1.6295  0.9703
 9685TIP3    H253251   0.451   5.929   2.513  2.3816 -0.2352  0.8479
 9686TIP3   OH253252   4.091   6.350   0.191  0.1070  0.1887  0.1445
 9686TIP3    H153253   4.184   6.338   0.175 -0.2406  0.0807 -2.1411
 9686TIP3    H253254   4.085   6.431   0.241  1.3096  1.3796 -1.5587
 9687TIP3   OH253255   1.813   4.889   0.247 -0.1377  0.4431  0.5264
 9687TIP3    H153256   1.850   4.977   0.242  1.0362 -0.1086 -2.5372
 9687TIP3    H253257   1.889   4.831   0.248 -0.8844 -0.5873 -0.3329
 9688TIP3   OH253258   1.211   6.959   1.740 -0.7369  0.2293 -0.0635
 9688TIP3    H153259   1.200   6.991   1.651 -2.5140  2.6874  0.9063
 9688TIP3    H253260   1.122   6.937   1.769  0.0520 -2.8596  0.4093
 9689TIP3   OH253261   6.660   7.218   1.447  0.2820 -0.1034  0.0804
 9689TIP3    H153262   6.575   7.201   1.408 -0.2021  0.4881  0.8472
 9689TIP3    H253263   6.640   7.255   1.533  1.3134 -0.5715  0.5395
 9690TIP3   OH253264   4.402   1.697   9.726  0.1629  0.3138  0.6190
 9690TIP3    H153265   4.458   1.694   9.648 -0.2767  0.3996  0.2940
 9690TIP3    H253266   4.443   1.762   9.783 -0.1410  1.1252 -0.0486
 9691TIP3   OH253267   0.044   4.424   0.333 -0.2087  0.2070 -0.1470
 9691TIP3    H153268   0.134   4.401   0.309 -1.1384 -2.2457 -1.5986
 9691TIP3    H253269   0.042   4.520   0.328  1.8853  0.2376 -1.7756
 9692TIP3   OH253270   7.071   3.891   9.352 -0.0349  0.4110  0.3761
 9692TIP3    H153271   7.070   3.877   9.447  1.5646 -0.2776  0.3194
 9692TIP3    H253272   7.069   3.986   9.342  0.9805  0.5329  1.1537
 9693TIP3   OH253273   2.947   2.600   9.508  0.4479 -0.0904  0.1722
 9693TIP3    H153274   2.945   2.516   9.553 -1.8586 -0.2599 -0.1589
 9693TIP3    H253275   2.858   2.614   9.478  0.2672  3.3846  1.8358
 9694TIP3   OH253276   0.253   7.610   6.747  0.0174 -0.1440 -0.7660
 9694TIP3    H153277   0.244   7.522   6.711 -1.3937 -0.9217  1.3329
 9694TIP3    H253278   0.164   7.646   6.747 -0.3168 -0.6293  2.8277
 9695TIP3   OH253279   0.689   1.237   2.050  0.2184  0.5326  0.0029
 9695TIP3    H153280   0.747   1.161   2.057  3.4417  2.6689 -1.1406
 9695TIP3    H253281   0.722   1.298   2.115 -2.2007  1.1266  0.7873
 9696TIP3   OH253282   3.612   3.076   8.788 -0.3916  0.0265  0.0965
 9696TIP3    H153283   3.629   2.987   8.757 -0.5238 -0.2012  0.6560
 9696TIP3    H253284   3.548   3.064   8.858  0.7705  0.4027  1.2505
 9697TIP3   OH253285   6.086   7.623   8.273 -0.2348 -0.9693 -0.5580
 9697TIP3    H153286   6.143   7.626   8.350 -0.9683 -0.0822 -0.0144
 9697TIP3    H253287   6.085   7.714   8.242  0.6685 -1.4637 -2.1005
 9698TIP3   OH253288   0.322   2.415   0.926 -0.3084  0.0770 -0.3005
 9698TIP3    H153289   0.275   2.338   0.958  1.7630 -0.6578  1.1528
 9698TIP3    H253290   0.355   2.389   0.840 -0.9454 -0.0533 -0.5160
 9699TIP3   OH253291   4.016   7.393   7.542 -0.3533 -0.4547 -0.2182
 9699TIP3    H153292   3.926   7.379   7.571 -0.6424 -2.6010 -1.8870
 9699TIP3    H253293   4.024   7.342   7.462  1.4548  2.2404 -1.9060
 9700TIP3   OH253294   1.268   6.369   0.533  0.1682  0.2171 -0.3202
 9700TIP3    H153295   1.277   6.383   0.439  0.6495  0.7865 -0.1891
 9700TIP3    H253296   1.174   6.377   0.549  0.2267  1.4535 -0.5410
 9701TIP3   OH253297   2.338   2.088   8.753 -0.1086 -0.2074  0.5115
 9701TIP3    H153298   2.432   2.089   8.767 -0.0061  0.4350 -0.1773
 9701TIP3    H253299   2.308   2.009   8.798  0.6798 -0.1252  1.2045
 9702TIP3   OH253300   6.718   0.628   7.097  0.5449  0.7626 -0.1818
 9702TIP3    H153301   6.625   0.648   7.092 -0.2664 -2.0426  1.2856
 9702TIP3    H253302   6.756   0.701   7.146 -1.0989  1.4004  0.2149
 9703TIP3   OH253303   0.327   0.894   1.373 -0.8998  0.4462  0.1940
 9703TIP3    H153304   0.265   0.854   1.434 -0.2552  0.9192  1.1774
 9703TIP3    H253305   0.385   0.823   1.347 -1.7792  0.0215 -0.6552
 9704TIP3   OH253306   1.338   7.644   0.785  0.3240  0.1199  0.3624
 9704TIP3    H153307   1.386   7.712   0.832 -1.3178 -0.5125  3.1754
 9704TIP3    H253308   1.352   7.565   0.836 -1.4135 -0.6832 -0.3354
 9705TIP3   OH253309   3.324   3.538   9.902  0.2281  0.2245  0.8869
 9705TIP3    H153310   3.297   3.564   9.814  0.0349  0.9252  1.1397
 9705TIP3    H253311   3.331   3.443   9.898 -0.8747  0.1413  0.4081
 9706TIP3   OH253312   7.242   5.893   0.729 -0.1119  0.0871  0.0099
 9706TIP3    H153313   7.263   5.812   0.683 -0.5035  0.0218 -0.0564
 9706TIP3    H253314   7.263   5.962   0.666 -1.0949 -0.0204 -0.4515
 9707TIP3   OH253315   1.816   2.814   0.967  0.0162  0.0669  0.6777
 9707TIP3    H153316   1.871   2.820   0.889  2.4426  0.2361  2.2967
 9707TIP3    H253317   1.808   2.720   0.985 -1.4197 -0.0326 -0.2827
 9708TIP3   OH253318   2.145   5.082   2.723 -0.2131 -0.1349  0.1850
 9708TIP3    H153319   2.137   5.000   2.772  0.0303  0.6673  1.6315
 9708TIP3    H253320   2.096   5.146   2.776  1.8963  1.2591  0.5698
 9709TIP3   OH253321   0.847   6.317   0.847 -0.3325  0.1853 -0.1510
 9709TIP3    H153322   0.787   6.281   0.913 -0.3477  0.5506  0.0368
 9709TIP3    H253323   0.860   6.245   0.785 -2.8642  0.7991 -1.5362
 9710TIP3   OH253324   2.545   1.619   9.458  0.4091  0.4919 -0.2285
 9710TIP3    H153325   2.533   1.714   9.451  0.7983  0.7601  1.9707
 9710TIP3    H253326   2.592   1.595   9.378  0.4041  2.1701 -0.7734
 9711TIP3   OH253327   7.334   6.393   0.187 -0.1936 -0.0317  0.2017
 9711TIP3    H153328   7.301   6.442   0.111  0.4267  0.0078 -0.0469
 9711TIP3    H253329   7.389   6.325   0.150  0.5671  0.3336  0.6380
 9712TIP3   OH253330   1.143   5.505   8.513 -0.7619  0.0231 -0.4080
 9712TIP3    H153331   1.226   5.460   8.532 -1.0237 -1.1739 -1.8911
 9712TIP3    H253332   1.165   5.598   8.518 -0.2809 -0.1494  3.0939
 9713TIP3   OH253333   7.222   6.159   9.973  0.1026 -0.1176  0.2788
 9713TIP3    H153334   7.169   6.090  10.012  1.3181 -0.4823  1.3563
 9713TIP3    H253335   7.245   6.125   9.886 -0.3608 -0.5053  0.3047
 9714TIP3   OH253336   5.448   1.253   9.691 -0.0813 -0.0198 -0.6674
 9714TIP3    H153337   5.456   1.285   9.781 -2.0542 -0.1465 -0.4145
 9714TIP3    H253338   5.530   1.206   9.676  0.8167  1.0324  0.6146
 9715TIP3   OH253339   0.957   7.056   7.597  0.1326 -0.2346 -0.3751
 9715TIP3    H153340   0.937   7.145   7.624  2.2048  0.2963 -0.4201
 9715TIP3    H253341   0.873   7.020   7.570 -0.9576  1.2795  0.8086
 9716TIP3   OH253342   5.685   3.847   6.655  0.0846 -0.6688  0.7378
 9716TIP3    H153343   5.720   3.769   6.612  0.1961 -0.9112  1.2524
 9716TIP3    H253344   5.752   3.914   6.641 -0.2780 -0.4904 -0.2113
 9717TIP3   OH253345   5.941   6.298   1.780 -0.4769  0.4714 -0.0887
 9717TIP3    H153346   5.879   6.267   1.713 -0.2754 -1.2406  0.4721
 9717TIP3    H253347   5.896   6.370   1.823  0.1549  3.0134 -3.3228
 9718TIP3   OH253348   5.527   5.253   0.018 -0.3379  0.1508  0.0310
 9718TIP3    H153349   5.549   5.178  -0.038 -2.7404 -0.9186  0.4012
 9718TIP3    H253350   5.490   5.213   0.097 -3.2235  1.6811 -0.4344
 9719TIP3   OH253351   0.308   6.398   1.356 -0.3422 -0.1126 -0.4610
 9719TIP3    H153352   0.324   6.305   1.339 -1.0952 -0.4295  0.4694
 9719TIP3    H253353   0.335   6.411   1.447 -0.3412  0.5587 -0.5517
 9720TIP3   OH253354   0.880   2.787   7.391  0.1438  0.4464 -0.4937
 9720TIP3    H153355   0.811   2.836   7.435 -0.7905 -1.5021  0.3171
 9720TIP3    H253356   0.851   2.696   7.395  2.6988 -0.4338 -0.2037
 9721TIP3   OH253357   5.798   1.504   0.222  0.1319 -0.2681 -0.1517
 9721TIP3    H153358   5.771   1.563   0.292 -1.7275  0.3850 -1.3401
 9721TIP3    H253359   5.720   1.453   0.202  0.6649 -0.5652 -1.6115
 9722TIP3   OH253360   3.765   6.990   8.868 -0.5526  0.0935 -0.0092
 9722TIP3    H153361   3.809   7.045   8.933 -1.2399 -1.3910  1.8277
 9722TIP3    H253362   3.831   6.975   8.801  0.9421 -0.0261  1.4135
 9723TIP3   OH253363   7.228   3.460   9.442 -0.0933 -0.4596 -0.4817
 9723TIP3    H153364   7.297   3.469   9.508 -0.4363  0.6369 -0.2463
 9723TIP3    H253365   7.255   3.519   9.372 -1.2065  0.6485 -0.0103
 9724TIP3   OH253366   1.336   4.776   1.538 -0.1256  0.3105  0.2638
 9724TIP3    H153367   1.294   4.773   1.624  0.0665  0.8575  0.3848
 9724TIP3    H253368   1.330   4.868   1.513 -0.0202  0.1820 -0.2283
 9725TIP3   OH253369   2.070  -0.033   9.795  0.0205  0.1482 -0.6550
 9725TIP3    H153370   2.070  -0.001   9.885  0.1472 -0.3421 -0.4774
 9725TIP3    H253371   2.163  -0.044   9.773 -0.0340 -0.6223 -0.5202
 9726TIP3   OH253372   1.657   3.944   1.056  0.4780 -0.2602  0.0775
 9726TIP3    H153373   1.595   4.011   1.085  0.2092 -0.2860 -0.4304
 9726TIP3    H253374   1.706   3.921   1.135 -0.3626 -0.4507  0.5516
 9727TIP3   OH253375   6.561   5.928   9.992  0.0609  0.2642 -0.1150
 9727TIP3    H153376   6.633   5.974   9.949 -0.7691  0.0394 -1.7999
 9727TIP3    H253377   6.591   5.837   9.998 -0.2499  0.0864 -1.2044
 9728TIP3   OH253378   0.417   1.047   7.652  0.0719  0.2395 -0.0735
 9728TIP3    H153379   0.389   1.065   7.562  0.4372  2.5274  0.2120
 9728TIP3    H253380   0.335   1.033   7.700 -0.2302  0.6298 -0.4655
 9729TIP3   OH253381   4.968   7.172   0.167 -0.5385 -0.0574 -0.1550
 9729TIP3    H153382   5.023   7.182   0.089 -0.1615  1.1628  0.2495
 9729TIP3    H253383   4.889   7.221   0.148 -0.2036  0.7335  0.4416
 9730TIP3   OH253384   4.606   4.530   8.717 -0.3377  0.1454  0.0685
 9730TIP3    H153385   4.617   4.580   8.799  1.1711  0.0391 -0.0527
 9730TIP3    H253386   4.677   4.466   8.718 -1.4657 -1.1435 -0.4209
 9731TIP3   OH253387   1.912   1.200   9.675 -0.5771  0.2373 -0.6294
 9731TIP3    H153388   1.979   1.265   9.655 -0.4031  0.1744 -0.2691
 9731TIP3    H253389   1.865   1.236   9.750  0.3134 -0.5992  0.3727
 9732TIP3   OH253390   6.790   6.926   2.936 -0.5151 -0.0796  0.1747
 9732TIP3    H153391   6.743   6.872   2.999 -0.7965  0.1356  0.1497
 9732TIP3    H253392   6.806   7.009   2.982 -0.0072 -0.2110  0.2450
 9733TIP3   OH253393   0.100   2.319   8.441 -0.8215  0.1004 -0.3271
 9733TIP3    H153394   0.084   2.228   8.467 -1.0203  0.1501 -0.2699
 9733TIP3    H253395   0.016   2.363   8.458 -0.8425  0.2107 -0.7111
 9734TIP3   OH253396   2.721   7.468   3.041  0.7148  0.4203 -0.0478
 9734TIP3    H153397   2.678   7.553   3.049  0.8668  0.7413 -1.9950
 9734TIP3    H253398   2.802   7.487   2.994  1.0134 -0.7378 -0.0307
 9735TIP3   OH253399   3.497   0.205   7.319 -0.3209 -0.4577 -0.4069
 9735TIP3    H153400   3.446   0.279   7.287  0.3020 -0.0236 -0.4037
 9735TIP3    H253401   3.557   0.184   7.248  0.4631 -0.0554  0.1266
 9736TIP3   OH253402   6.439   6.230   7.274 -0.0969 -0.5292  0.5144
 9736TIP3    H153403   6.426   6.280   7.194  1.7276 -0.8002 -0.0058
 9736TIP3    H253404   6.428   6.294   7.345 -2.6706 -0.4885  0.1566
 9737TIP3   OH253405   2.758   4.437   9.348 -0.1016 -0.0598 -0.4296
 9737TIP3    H153406   2.674   4.422   9.305  0.2287  0.5294 -1.3111
 9737TIP3    H253407   2.823   4.406   9.285  0.3698  0.2616 -0.1085
 9738TIP3   OH253408   2.618   1.222   8.084 -0.1183 -0.0104 -0.3038
 9738TIP3    H153409   2.554   1.202   8.153 -0.4278  2.2390  0.1457
 9738TIP3    H253410   2.697   1.248   8.132 -0.0348  0.6503 -0.7756
 9739TIP3   OH253411   2.670   2.857   1.262 -0.0419 -0.8920 -0.5068
 9739TIP3    H153412   2.598   2.853   1.325  0.0405  0.2892 -0.3189
 9739TIP3    H253413   2.709   2.769   1.266 -1.1929 -1.4182 -0.3069
 9740TIP3   OH253414   5.138   2.375   1.666  0.0015  0.1670 -0.1871
 9740TIP3    H153415   5.138   2.464   1.702 -0.1440 -0.1336  0.5772
 9740TIP3    H253416   5.193   2.381   1.588 -0.1569  0.9655 -0.2470
 9741TIP3   OH253417   7.396   5.557   9.438 -0.4773  0.3242 -0.1889
 9741TIP3    H153418   7.446   5.523   9.512 -0.0961  3.2564  1.0723
 9741TIP3    H253419   7.455   5.553   9.364 -0.0847 -0.6749  0.1720
 9742TIP3   OH253420   3.686   0.380   1.882  0.3347  0.1305 -0.6815
 9742TIP3    H153421   3.691   0.459   1.935  1.5097 -0.7871  0.6641
 9742TIP3    H253422   3.623   0.401   1.813  0.7129  2.2659 -0.4589
 9743TIP3   OH253423   3.177   5.840   8.719 -0.1001 -0.6761 -0.3102
 9743TIP3    H153424   3.135   5.923   8.740 -1.8366 -1.3862 -0.8253
 9743TIP3    H253425   3.156   5.824   8.627  0.6921 -1.4260 -0.3803
 9744TIP3   OH253426   0.143   6.398   9.288  0.3836  0.3218  0.3406
 9744TIP3    H153427   0.152   6.393   9.383 -0.7675 -3.2288  0.4097
 9744TIP3    H253428   0.053   6.427   9.273  0.1946 -0.2453  0.3682
 9745TIP3   OH253429   2.335   7.103   9.294 -0.1229 -0.2690  0.1660
 9745TIP3    H153430   2.402   7.038   9.275  0.1694  0.7626 -2.7909
 9745TIP3    H253431   2.259   7.052   9.322  1.3257 -1.5404  2.0817
 9746TIP3   OH253432   1.571   2.944   7.268  0.4702 -0.1646  0.4375
 9746TIP3    H153433   1.563   2.849   7.276 -0.9480  0.0461  2.1415
 9746TIP3    H253434   1.632   2.968   7.338 -0.9944  0.3851  1.5525
 9747TIP3   OH253435   7.614   5.017   1.164 -0.2286  0.2599 -0.3079
 9747TIP3    H153436   7.609   5.084   1.095 -0.7523  1.5251  0.9181
 9747TIP3    H253437   7.526   5.015   1.202  0.0983 -0.2910  0.4325
 9748TIP3   OH253438   4.803   7.438   8.724 -0.3052  0.0398  0.1700
 9748TIP3    H153439   4.794   7.528   8.757 -1.5411  0.4788 -1.2893
 9748TIP3    H253440   4.818   7.386   8.803 -0.4756  1.4026  1.1477
 9749TIP3   OH253441   5.474   7.592   7.818  0.5148  0.2571  0.0679
 9749TIP3    H153442   5.502   7.576   7.728 -1.2837  1.9935 -0.8613
 9749TIP3    H253443   5.550   7.633   7.860  1.2057 -0.1365 -0.7771
 9750TIP3   OH253444   1.808   4.426   8.862 -0.4203 -0.2732 -0.4570
 9750TIP3    H153445   1.816   4.498   8.799  2.6561 -0.2237 -0.1514
 9750TIP3    H253446   1.897   4.408   8.890 -1.5837 -0.1274  4.1793
 9751TIP3   OH253447   0.422   5.900   1.363 -0.2607  1.0987  0.0913
 9751TIP3    H153448   0.369   5.845   1.421  0.1522 -2.0504 -2.2576
 9751TIP3    H253449   0.502   5.917   1.413  0.1239 -1.5731  0.5283
 9752TIP3   OH253450   6.369   0.753   9.571  0.3046  0.1900 -0.2607
 9752TIP3    H153451   6.373   0.830   9.628 -1.1271 -0.9039  1.3873
 9752TIP3    H253452   6.295   0.771   9.512  0.5081  0.4273 -0.4496
 9753TIP3   OH253453   4.697   7.294   2.360  0.0698  0.1185  0.1221
 9753TIP3    H153454   4.618   7.241   2.376 -1.6036  1.2780 -3.2756
 9753TIP3    H253455   4.663   7.381   2.341  2.0926  0.5349 -1.9528
 9754TIP3   OH253456   5.537   0.463   8.015  0.4492  1.2537  0.5284
 9754TIP3    H153457   5.478   0.465   7.940  0.7506 -1.8263  0.0707
 9754TIP3    H253458   5.625   0.470   7.977  0.9097 -3.8490 -0.1459
 9755TIP3   OH253459   4.406   1.306   8.013 -0.5725  0.3649 -0.2922
 9755TIP3    H153460   4.348   1.285   8.086 -0.2503  0.1576 -0.0928
 9755TIP3    H253461   4.413   1.225   7.963 -1.3119  0.6788 -0.9285
 9756TIP3   OH253462   2.286   7.666   0.494  0.0735  0.0270 -0.3979
 9756TIP3    H153463   2.351   7.635   0.557  1.0947  0.5926 -1.1461
 9756TIP3    H253464   2.297   7.610   0.417 -1.7709 -1.2476  0.1867
 9757TIP3   OH253465   5.464   6.517   0.088  0.5902 -0.2695 -0.3073
 9757TIP3    H153466   5.522   6.531   0.012 -1.6763  0.9489 -1.9342
 9757TIP3    H253467   5.445   6.605   0.120  2.9853 -0.7888  3.0257
 9758TIP3   OH253468   4.883   6.095   0.321 -0.1484  0.4284 -0.7075
 9758TIP3    H153469   4.909   6.158   0.388  0.3442  2.0294 -2.3273
 9758TIP3    H253470   4.797   6.124   0.292 -0.2372 -0.0881 -0.9708
 9759TIP3   OH253471   0.482   4.285   8.780  0.2283  0.4397  0.1650
 9759TIP3    H153472   0.562   4.306   8.732 -0.5409 -0.7254 -1.7394
 9759TIP3    H253473   0.506   4.208   8.833  0.2213 -0.3262 -0.9151
 9760TIP3   OH253474   6.446   2.120   1.478  0.4520  0.0481  0.4791
 9760TIP3    H153475   6.446   2.086   1.389  1.3666 -0.9145  0.8336
 9760TIP3    H253476   6.483   2.208   1.471 -0.0989  0.2338 -0.1686
 9761TIP3   OH253477   2.310   5.026   7.612 -0.2957  0.4822  0.0336
 9761TIP3    H153478   2.267   5.050   7.694  0.7760  1.0848  0.4426
 9761TIP3    H253479   2.270   5.083   7.546 -0.9723  0.1823  0.1768
 9762TIP3   OH253480   2.693   2.397   0.958 -0.1616 -0.4186  0.8644
 9762TIP3    H153481   2.629   2.327   0.960 -0.7656 -0.0331 -1.9225
 9762TIP3    H253482   2.672   2.451   1.035 -0.6445 -2.3657  2.1801
 9763TIP3   OH253483   3.379   3.257   9.848 -0.0719 -0.5164  0.4252
 9763TIP3    H153484   3.409   3.226   9.933 -1.5845 -2.6409  0.2619
 9763TIP3    H253485   3.436   3.215   9.785  0.0289 -0.2281  0.3226
 9764TIP3   OH253486   2.694   0.131   9.178 -0.5202 -1.0328  0.1281
 9764TIP3    H153487   2.787   0.110   9.180 -0.3969 -0.6387 -0.7817
 9764TIP3    H253488   2.652   0.055   9.218  0.1746 -1.2901  0.3927
 9765TIP3   OH253489   2.873   3.770   9.043 -0.2387 -0.5832  0.2211
 9765TIP3    H153490   2.854   3.686   9.002  1.1499 -0.3903 -0.8546
 9765TIP3    H253491   2.962   3.761   9.077  0.0566  0.5680 -0.2149
 9766TIP3   OH253492   5.459   7.590   2.580  0.6164  0.2789  0.0571
 9766TIP3    H153493   5.460   7.659   2.647  1.8997 -0.0363  0.3830
 9766TIP3    H253494   5.537   7.606   2.528  0.2817 -0.2234 -0.6193
 9767TIP3   OH253495   5.092  -0.016   0.364 -0.0805  0.1368 -0.1675
 9767TIP3    H153496   5.107  -0.048   0.453 -1.7289  2.0757  0.8818
 9767TIP3    H253497   5.037  -0.083   0.323 -0.5213 -0.0852  0.7690
 9768TIP3   OH253498   1.957   2.557   0.191  0.0583  0.3265 -0.0787
 9768TIP3    H153499   1.882   2.585   0.138 -0.0549 -2.3392 -1.4785
 9768TIP3    H253500   2.028   2.616   0.165 -1.1786  2.0741  0.3282
 9769TIP3   OH253501   3.598   3.581   9.870 -0.5825  0.2336 -0.0018
 9769TIP3    H153502   3.505   3.581   9.889 -0.4978  0.4670  0.4220
 9769TIP3    H253503   3.624   3.673   9.877 -0.2061  0.0969  0.4732
 9770TIP3   OH253504   3.355   0.183   1.424  0.0449 -0.1812  0.8866
 9770TIP3    H153505   3.414   0.234   1.480 -1.0500  1.8761  0.2579
 9770TIP3    H253506   3.281   0.161   1.481 -1.3568  2.4231  0.2610
 9771TIP3   OH253507   3.263   1.430   0.086 -0.3557  0.3085  0.3277
 9771TIP3    H153508   3.263   1.423  -0.009 -0.5659  0.2949  0.3299
 9771TIP3    H253509   3.311   1.353   0.116 -3.7891 -1.9952  0.4254
 9772TIP3   OH253510   7.295   6.925   3.088 -0.3243 -0.2956  0.7787
 9772TIP3    H153511   7.225   6.871   3.124  0.2796 -0.8964  1.0691
 9772TIP3    H253512   7.376   6.886   3.121  0.1364  0.7453  0.9480
 9773TIP3   OH253513   6.031   2.860   9.464 -0.5337 -0.3990 -0.1555
 9773TIP3    H153514   6.100   2.872   9.399 -0.9862  1.2699 -0.3751
 9773TIP3    H253515   6.073   2.815   9.537  0.5408 -0.2691 -0.6791
 9774TIP3   OH253516   1.864   1.368   2.453 -0.3704  0.2128  0.1641
 9774TIP3    H153517   1.792   1.382   2.516 -1.1528  1.5043 -0.9620
 9774TIP3    H253518   1.835   1.294   2.401  0.5517 -1.2563  1.6413
 9775TIP3   OH253519   2.951   0.300   7.540 -0.0856 -0.4204  0.8007
 9775TIP3    H153520   2.960   0.210   7.507 -0.1620  0.7377 -2.7916
 9775TIP3    H253521   3.040   0.329   7.555  0.3286  0.1330 -2.1060
 9776TIP3   OH253522   3.965   1.402   1.625 -0.1439  0.3511  0.0594
 9776TIP3    H153523   4.007   1.391   1.710 -1.4480  1.1469  0.8254
 9776TIP3    H253524   3.923   1.317   1.608  1.3335 -0.3118 -0.5201
 9777TIP3   OH253525   4.370   2.688   0.616  0.2549  0.0121 -0.4704
 9777TIP3    H153526   4.446   2.646   0.657 -1.4801 -2.1428  0.7799
 9777TIP3    H253527   4.376   2.661   0.524 -0.2760 -2.3417  0.1068
 9778TIP3   OH253528   1.913   0.010   1.151  0.2046 -0.2821 -0.0953
 9778TIP3    H153529   1.968  -0.036   1.214 -1.8942 -1.1844  1.1702
 9778TIP3    H253530   1.882  -0.057   1.091  0.2294  0.1631 -0.6191
 9779TIP3   OH253531   4.787   0.918   1.050  0.4402  0.2809  0.5902
 9779TIP3    H153532   4.828   0.855   1.109 -2.6256 -1.8819  0.6453
 9779TIP3    H253533   4.772   0.869   0.969 -2.2834  0.6922  0.7261
 9780TIP3   OH253534   1.277   4.231   2.685 -0.7101  0.3002  0.1983
 9780TIP3    H153535   1.186   4.221   2.715 -0.8133  0.0029 -0.2067
 9780TIP3    H253536   1.269   4.262   2.595 -0.4026  0.7058  0.3072
 9781TIP3   OH253537   7.408   2.267   1.543  0.3435  0.1054  0.3521
 9781TIP3    H153538   7.400   2.334   1.611 -2.7539  1.3372 -1.0203
 9781TIP3    H253539   7.446   2.313   1.468  1.1694 -0.5351  0.3630
 9782TIP3   OH253540   3.636   4.470   7.645 -0.3083 -0.3668  0.2057
 9782TIP3    H153541   3.558   4.517   7.676 -0.1906  1.3350 -1.8056
 9782TIP3    H253542   3.708   4.532   7.659  0.2429 -0.8761 -0.3340
 9783TIP3   OH253543   4.878   0.395   2.683  0.4719 -0.3753  0.1623
 9783TIP3    H153544   4.959   0.414   2.636  1.1830 -0.2634  1.3847
 9783TIP3    H253545   4.882   0.452   2.761 -0.9164 -0.1629  0.0981
 9784TIP3   OH253546   5.818   2.666   0.650  0.0645 -0.2146 -0.0884
 9784TIP3    H153547   5.787   2.690   0.562  1.0251 -0.2537 -0.4480
 9784TIP3    H253548   5.817   2.748   0.699 -2.0833 -0.4821  0.3857
 9785TIP3   OH253549   2.959   1.443   8.865  0.3551 -0.0475  0.3787
 9785TIP3    H153550   2.953   1.537   8.851  1.9628 -0.0815 -0.7893
 9785TIP3    H253551   2.868   1.414   8.873 -0.3039  1.2405 -1.7574
 9786TIP3   OH253552   0.438   3.062   8.631  0.2218  0.0396  0.4503
 9786TIP3    H153553   0.495   3.123   8.678  0.7463 -1.1387  1.3660
 9786TIP3    H253554   0.485   3.043   8.550  0.0995  0.7685  0.2019
 9787TIP3   OH253555   5.595   4.848   7.732 -0.1411  0.2184 -0.7762
 9787TIP3    H153556   5.599   4.752   7.724 -0.6234 -0.0036  1.0797
 9787TIP3    H253557   5.665   4.879   7.675  0.9704 -1.3396 -0.3567
 9788TIP3   OH253558   2.402   6.201   7.887 -0.1454  0.0107 -0.2703
 9788TIP3    H153559   2.404   6.186   7.981 -0.9719 -0.9113 -0.3902
 9788TIP3    H253560   2.315   6.175   7.860 -0.4426  1.6976 -1.0822
 9789TIP3   OH253561   2.726   4.744   7.353 -0.2368 -0.4972  0.5636
 9789TIP3    H153562   2.634   4.740   7.377  0.0500  0.3785  1.9302
 9789TIP3    H253563   2.739   4.833   7.320 -0.0605 -0.9019 -0.5065
 9790TIP3   OH253564   2.999   5.543   7.786  0.7992 -0.1690 -0.2302
 9790TIP3    H153565   3.008   5.449   7.770  2.0349 -0.1642  0.3507
 9790TIP3    H253566   3.089   5.573   7.800  0.2874  0.8600  0.9385
 9791TIP3   OH253567   6.313   5.047   8.457  0.0741 -0.3352  0.6602
 9791TIP3    H153568   6.402   5.012   8.458  0.0215 -0.5321 -0.3417
 9791TIP3    H253569   6.293   5.065   8.549  1.3070  0.1248  0.8482
 9792TIP3   OH253570   7.476   1.223   9.426  0.2788 -0.6439 -0.6575
 9792TIP3    H153571   7.544   1.156   9.436  2.1504  1.3062  0.8046
 9792TIP3    H253572   7.510   1.299   9.474 -2.0531  1.1314 -1.5918
 9793TIP3   OH253573   3.980   1.861   8.066  0.4924 -0.4547  0.0550
 9793TIP3    H153574   4.040   1.786   8.056  0.0038 -0.6470 -1.6731
 9793TIP3    H253575   3.897   1.822   8.093  0.5241 -0.4165  0.2103
 9794TIP3   OH253576   6.825   5.851   3.224  0.6481 -0.0551 -0.5028
 9794TIP3    H153577   6.870   5.826   3.305  0.0421 -0.9372 -0.4239
 9794TIP3    H253578   6.812   5.945   3.232  3.0174  0.3674 -0.8036
 9795TIP3   OH253579   6.282   4.344   0.242  0.1450  0.7302 -0.1500
 9795TIP3    H153580   6.202   4.374   0.200  1.1319  0.4675 -2.3480
 9795TIP3    H253581   6.329   4.425   0.264  0.1542  0.8726 -0.6779
 9796TIP3   OH253582   0.551   3.811   0.681  1.1089 -0.7948 -0.7604
 9796TIP3    H153583   0.568   3.901   0.710 -0.3587 -0.3348 -1.1972
 9796TIP3    H253584   0.466   3.817   0.637  0.8764 -2.4604 -0.5772
 9797TIP3   OH253585   5.626   1.975   0.705  0.7303  0.2349 -0.4426
 9797TIP3    H153586   5.553   2.037   0.697  0.6872  0.2170 -0.2076
 9797TIP3    H253587   5.676   2.007   0.780  0.7850  0.0639 -0.4055
 9798TIP3   OH253588   2.048   4.563   7.354  0.2723  0.0334  0.2989
 9798TIP3    H153589   2.063   4.587   7.446 -0.0154  1.1126  0.0838
 9798TIP3    H253590   2.024   4.646   7.312  0.5430 -0.4273 -0.7810
 9799TIP3   OH253591   0.292   7.096   2.200  0.6763 -0.5193 -0.4140
 9799TIP3    H153592   0.361   7.152   2.235 -0.0875  1.0178 -1.2329
 9799TIP3    H253593   0.326   7.068   2.115 -0.0960  1.1805 -1.3446
 9800TIP3   OH253594   0.145   0.342   9.412  0.9678 -0.0554 -0.8431
 9800TIP3    H153595   0.118   0.295   9.333  0.0956 -2.9969  1.0354
 9800TIP3    H253596   0.071   0.397   9.434  1.1488  0.6520 -1.9344
 9801TIP3   OH253597   5.002   6.242   9.837  0.7135 -0.3322 -0.0247
 9801TIP3    H153598   5.008   6.176   9.905  0.1718 -1.0342 -0.6315
 9801TIP3    H253599   5.086   6.287   9.838  0.0935  0.9107  2.3156
 9802TIP3   OH253600   0.397   2.748   7.969 -0.7527 -0.3074  0.1598
 9802TIP3    H153601   0.449   2.738   8.049 -0.6558  0.6022  0.2256
 9802TIP3    H253602   0.395   2.843   7.954 -0.8167 -0.4633 -0.8858
 9803TIP3   OH253603   3.131   5.352   8.000  0.2007 -0.6108  0.0981
 9803TIP3    H153604   3.150   5.260   8.021  1.3116 -1.1506 -2.7992
 9803TIP3    H253605   3.214   5.388   7.970 -0.6786  0.6957 -0.8943
 9804TIP3   OH253606   1.010   1.942   8.304  0.2358  0.3643  0.3652
 9804TIP3    H153607   1.079   1.883   8.332  0.0891  0.8616  1.8995
 9804TIP3    H253608   1.056   2.020   8.272  0.4010 -0.1023 -0.5779
 9805TIP3   OH253609   3.881   2.094   9.368  0.0785 -0.6602 -0.3542
 9805TIP3    H153610   3.967   2.076   9.329 -1.0073 -1.5011 -2.5008
 9805TIP3    H253611   3.839   2.009   9.373 -1.2070 -0.0739 -0.8393
 9806TIP3   OH253612   3.043   0.189   7.233 -0.2208  0.3898  0.0380
 9806TIP3    H153613   3.057   0.111   7.179 -1.8451  0.4765 -0.5770
 9806TIP3    H253614   3.110   0.183   7.301  1.0136 -0.4409 -1.1861
 9807TIP3   OH253615   1.930   0.478   2.134  0.1691  0.3674  0.2084
 9807TIP3    H153616   2.018   0.498   2.166 -0.0354  0.1959  0.8986
 9807TIP3    H253617   1.872   0.532   2.188 -0.1002  1.1232 -0.8151
 9808TIP3   OH253618   1.024   3.519   1.350  0.4765  0.0899  0.4119
 9808TIP3    H153619   0.930   3.534   1.343  0.0987 -1.9751  0.3433
 9808TIP3    H253620   1.064   3.604   1.333 -1.3640  0.9263  0.0979
 9809TIP3   OH253621   4.191   6.626   9.310 -0.1593 -0.0215  0.3885
 9809TIP3    H153622   4.285   6.622   9.326 -0.2101  1.8838  1.3669
 9809TIP3    H253623   4.172   6.546   9.259  1.9801 -0.3517  0.0257
 9810TIP3   OH253624   7.218   6.834   1.265  0.1677  0.2283  0.5414
 9810TIP3    H153625   7.158   6.762   1.247  0.7624  0.0061 -0.6643
 9810TIP3    H253626   7.186   6.873   1.346 -0.5666 -0.9603  0.8370
 9811TIP3   OH253627   5.843   3.030   0.349  0.5984 -0.5258 -0.2631
 9811TIP3    H153628   5.792   3.108   0.369 -0.5014 -1.3394  0.2440
 9811TIP3    H253629   5.931   3.050   0.379  0.1236  0.1825  0.7049
 9812TIP3   OH253630   5.830   0.915   7.511  0.0903 -0.2148  0.3726
 9812TIP3    H153631   5.892   0.900   7.440 -0.6903  0.3753 -0.4635
 9812TIP3    H253632   5.823   1.011   7.515 -0.9575 -0.2830  0.2744
 9813TIP3   OH253633   1.464   6.557   6.847  0.5462  0.1409  0.2943
 9813TIP3    H153634   1.370   6.568   6.829  0.8290  1.4565 -0.5213
 9813TIP3    H253635   1.476   6.463   6.853 -0.8367 -0.0499  0.4430
 9814TIP3   OH253636   1.843   7.605   9.127 -0.4680  0.1865 -0.0405
 9814TIP3    H153637   1.849   7.698   9.148 -0.0669  0.4588 -1.3080
 9814TIP3    H253638   1.884   7.596   9.041 -1.0227 -1.0723 -0.2054
 9815TIP3   OH253639   0.143   6.759   1.965  0.2949 -0.4486  0.0725
 9815TIP3    H153640   0.127   6.852   1.983  2.1904 -0.5164  2.8615
 9815TIP3    H253641   0.097   6.713   2.035  1.7684 -1.3598  0.4930
 9816TIP3   OH253642   6.117   3.538   1.513 -0.3755  0.6493  0.0898
 9816TIP3    H153643   6.097   3.465   1.455  0.5682 -1.8781  2.6522
 9816TIP3    H253644   6.060   3.609   1.484 -0.1182 -0.4676 -3.6408
 9817TIP3   OH253645   0.247   0.088   7.615  0.9126  0.0038 -0.8189
 9817TIP3    H153646   0.308   0.145   7.663 -0.6277  1.3630 -0.3790
 9817TIP3    H253647   0.252   0.118   7.525  2.5696 -1.4483 -1.2687
 9818TIP3   OH253648   3.199   0.701   7.124 -0.4450 -0.8202  0.7469
 9818TIP3    H153649   3.254   0.634   7.082 -1.8118 -1.1703 -0.5775
 9818TIP3    H253650   3.200   0.678   7.217 -0.0362 -2.0614  0.4535
 9819TIP3   OH253651   2.336   6.927   2.758  0.1020  0.2621 -0.2054
 9819TIP3    H153652   2.247   6.903   2.732 -0.8402  1.7368  1.4698
 9819TIP3    H253653   2.325   6.983   2.835  2.5587 -1.0513  1.2391
 9820TIP3   OH253654   5.492   1.988   1.681  0.4536 -0.1430  0.1448
 9820TIP3    H153655   5.527   2.046   1.613  0.0237  0.4543  0.4291
 9820TIP3    H253656   5.398   2.002   1.678  0.1696 -1.8917 -0.7615
 9821TIP3   OH253657   7.022   5.919   7.771 -0.3235  0.8992 -0.0622
 9821TIP3    H153658   7.068   5.972   7.705  0.0302  0.4153 -0.2131
 9821TIP3    H253659   7.092   5.876   7.819 -0.6015  0.8660  0.3098
 9822TIP3   OH253660   1.443   6.576   1.491  0.2427 -0.1358  0.2122
 9822TIP3    H153661   1.442   6.630   1.571 -0.6686 -1.4968  1.1670
 9822TIP3    H253662   1.382   6.620   1.432 -0.2739  0.0422  0.8695
 9823TIP3   OH253663   0.671   0.926   8.272  0.3864 -0.1466  0.2929
 9823TIP3    H153664   0.674   0.870   8.350  2.4895 -0.0955  0.3197
 9823TIP3    H253665   0.598   0.986   8.287 -0.4294 -1.3583  1.3390
 9824TIP3   OH253666   4.647   0.010   1.015 -0.0610 -0.6154 -0.0993
 9824TIP3    H153667   4.589  -0.064   1.003 -0.6395 -0.2226  0.2406
 9824TIP3    H253668   4.731  -0.019   0.979  0.1153 -1.9521  1.2917
 9825TIP3   OH253669   7.341   0.792   2.137  0.0211  0.3659  0.0883
 9825TIP3    H153670   7.352   0.859   2.068  0.5752 -1.5430 -1.7889
 9825TIP3    H253671   7.431   0.771   2.163 -0.1121 -0.1896  0.1009
 9826TIP3   OH253672   7.184   0.499   0.373  0.4255 -0.2719  0.2580
 9826TIP3    H153673   7.089   0.494   0.382  0.4097  0.2754  0.4712
 9826TIP3    H253674   7.200   0.590   0.346  0.6993 -0.9906 -2.2328
 9827TIP3   OH253675   0.124   6.791   2.712  0.4376  0.5733 -0.1675
 9827TIP3    H153676   0.078   6.761   2.791  1.1804 -1.0453 -0.3196
 9827TIP3    H253677   0.157   6.711   2.671  1.5049  1.5214 -1.2349
 9828TIP3   OH253678   4.740   7.335   0.779  0.2931 -0.3993 -0.2709
 9828TIP3    H153679   4.722   7.413   0.725  1.0977 -0.7581 -1.1004
 9828TIP3    H253680   4.818   7.296   0.738 -0.3764 -1.9117 -0.1788
 9829TIP3   OH253681   1.588   5.121   0.158 -0.0144  0.3455  0.3599
 9829TIP3    H153682   1.654   5.173   0.203  0.9354 -0.7993  0.3450
 9829TIP3    H253683   1.562   5.055   0.222  1.0211 -1.0139 -0.5468
 9830TIP3   OH253684   3.545   2.451   1.210 -0.1256  0.5639  0.5846
 9830TIP3    H153685   3.480   2.395   1.252 -0.3815  2.2893  2.7059
 9830TIP3    H253686   3.627   2.427   1.252 -0.2594  1.7773  1.6126
 9831TIP3   OH253687   1.771   2.776   1.341  0.1148 -0.2022 -0.1250
 9831TIP3    H153688   1.680   2.756   1.321 -0.6303  1.0024  1.7857
 9831TIP3    H253689   1.782   2.748   1.432  1.5498  0.0199 -0.2057
 9832TIP3   OH253690   2.436   3.082   6.952 -0.2368 -0.1209  0.2296
 9832TIP3    H153691   2.457   3.098   7.044 -0.3984  0.3594  0.1883
 9832TIP3    H253692   2.516   3.104   6.905 -0.6084  1.1087  0.1277
 9833TIP3   OH253693   5.408   4.028   0.036  0.2080  0.4025  0.0284
 9833TIP3    H153694   5.385   4.109  -0.010  0.2680  0.3330 -0.1267
 9833TIP3    H253695   5.340   3.966   0.012  1.4647 -0.3345 -1.8586
 9834TIP3   OH253696   0.096   1.894   7.837  0.2394 -0.1835  0.3115
 9834TIP3    H153697   0.161   1.847   7.890  0.2463 -0.2068  0.2820
 9834TIP3    H253698   0.057   1.957   7.898 -0.7619 -1.1655  0.7325
 9835TIP3   OH253699   7.019   3.216   8.826 -0.3507  0.2179 -0.2866
 9835TIP3    H153700   7.106   3.228   8.786 -0.4163  1.5136 -0.0812
 9835TIP3    H253701   7.015   3.123   8.847  0.7861  0.0390 -0.7748
 9836TIP3   OH253702   1.811   1.292   9.077 -0.2882 -0.0504  0.2091
 9836TIP3    H153703   1.780   1.382   9.087  0.7145  0.4349 -0.8436
 9836TIP3    H253704   1.849   1.271   9.162 -3.5465 -0.7522  1.6337
 9837TIP3   OH253705   2.071   6.856   2.689  0.2682  0.4343 -0.0580
 9837TIP3    H153706   1.977   6.872   2.691  0.4302  1.4002  0.5199
 9837TIP3    H253707   2.090   6.838   2.597 -0.3854  0.8769 -0.2890
 9838TIP3   OH253708   7.661   6.234   1.834  0.4332  0.0275  0.1943
 9838TIP3    H153709   7.632   6.217   1.923  0.5906 -1.5017 -0.0166
 9838TIP3    H253710   7.756   6.221   1.836  0.3814 -0.4936 -0.2765
 9839TIP3   OH253711   7.136   0.168   0.858 -0.4470 -0.1913  0.1435
 9839TIP3    H153712   7.210   0.225   0.877  0.0346 -0.5536 -0.6113
 9839TIP3    H253713   7.091   0.158   0.942 -0.5807  1.3384  0.2878
 9840TIP3   OH253714   6.643   7.210   9.938  0.5140  0.2778  0.1687
 9840TIP3    H153715   6.626   7.115   9.936  0.5900  0.2501  0.6081
 9840TIP3    H253716   6.632   7.238   9.848 -3.2133  0.5142  0.5671
 9841TIP3   OH253717   6.522   6.576   2.155 -0.0266 -0.1788 -0.0660
 9841TIP3    H153718   6.604   6.586   2.106  0.7345 -0.4475  1.1074
 9841TIP3    H253719   6.501   6.483   2.149  1.4658 -0.7618  2.1644
 9842TIP3   OH253720   2.112   1.098   2.897 -0.0456 -0.2829  0.3579
 9842TIP3    H153721   2.085   1.184   2.864 -0.9498 -0.5016  0.5211
 9842TIP3    H253722   2.198   1.114   2.937  1.2525 -0.0324 -2.2581
 9843TIP3   OH253723   1.017   3.353   8.227  0.0427  0.3661 -0.4299
 9843TIP3    H153724   1.015   3.286   8.296  0.4870 -0.2164 -0.9721
 9843TIP3    H253725   1.014   3.436   8.275  0.6551 -0.0243  0.3176
 9844TIP3   OH253726   0.254   2.758   2.281 -0.2182 -0.0521 -0.2163
 9844TIP3    H153727   0.332   2.773   2.227 -1.0402 -1.8665 -2.0346
 9844TIP3    H253728   0.271   2.674   2.323 -0.8940 -0.0991 -0.0333
 9845TIP3   OH253729   6.058   3.958   7.460 -0.1263  0.6216  0.3238
 9845TIP3    H153730   6.112   4.017   7.513  0.0762  0.3666  0.4058
 9845TIP3    H253731   6.120   3.894   7.426 -0.1738  1.0540 -0.6128
 9846TIP3   OH253732   7.117   7.081   2.592  0.7876 -0.3113  0.3885
 9846TIP3    H153733   7.076   7.000   2.622  1.2767 -0.6738  0.0993
 9846TIP3    H253734   7.201   7.053   2.556  0.3747  0.1381 -1.0132
 9847TIP3   OH253735   6.995   6.955   8.000 -0.1006 -0.0117 -0.4160
 9847TIP3    H153736   6.908   6.932   7.966 -0.2202 -1.0352  0.5187
 9847TIP3    H253737   6.985   6.950   8.095  0.6443  1.1992 -0.2657
 9848TIP3   OH253738   4.381   2.586   8.124 -0.4188 -0.3866 -0.3361
 9848TIP3    H153739   4.323   2.511   8.139 -2.1592  0.9281 -0.2291
 9848TIP3    H253740   4.404   2.616   8.212  1.1850 -1.4158 -0.3650
 9849TIP3   OH253741   6.982   5.158   8.610  0.4144  0.0073  0.2954
 9849TIP3    H153742   6.918   5.104   8.565  1.0503  0.9498 -1.8423
 9849TIP3    H253743   7.000   5.230   8.550  0.2784  2.1324  2.6503
 9850TIP3   OH253744   2.752   1.270   9.272 -0.2297 -0.0256  0.3501
 9850TIP3    H153745   2.829   1.280   9.328  0.9217 -0.3809 -1.1191
 9850TIP3    H253746   2.736   1.357   9.237  0.2895 -0.1989 -0.3299
 9851TIP3   OH253747   0.722   0.330   2.985  0.6016 -0.4538  0.4619
 9851TIP3    H153748   0.755   0.404   3.035 -0.1075 -0.7933  1.4573
 9851TIP3    H253749   0.754   0.253   3.031 -0.9318 -0.7790  1.0356
 9852TIP3   OH253750   6.667   3.889   7.339  0.4136 -0.8434 -0.7710
 9852TIP3    H153751   6.712   3.820   7.290  0.3355 -1.2781 -0.2256
 9852TIP3    H253752   6.608   3.843   7.398  0.8448 -0.3312  0.0715
 9853TIP3   OH253753   2.549   2.500   8.459 -0.4885  0.0430 -0.5778
 9853TIP3    H153754   2.635   2.490   8.419  0.2523 -1.5128  1.2554
 9853TIP3    H253755   2.554   2.583   8.506  1.3609 -1.5639  2.3718
 9854TIP3   OH253756   3.676   0.862   0.977  0.0907  0.0140 -0.3260
 9854TIP3    H153757   3.619   0.921   0.927 -1.5049  0.4858  1.8968
 9854TIP3    H253758   3.630   0.779   0.979  1.0240 -0.5503 -1.1112
 9855TIP3   OH253759   1.911   6.916   8.513 -0.2843 -0.0213 -0.4610
 9855TIP3    H153760   1.927   6.822   8.520 -1.3436 -0.2749 -1.1887
 9855TIP3    H253761   1.946   6.940   8.427 -1.6861 -0.1437 -1.0925
 9856TIP3   OH253762   0.976   3.033   2.267  0.0642 -0.0400  0.6716
 9856TIP3    H153763   1.007   3.090   2.196 -1.0549  1.3716  1.2648
 9856TIP3    H253764   1.009   3.073   2.347 -0.6734 -0.2622  1.1014
 9857TIP3   OH253765   0.336   1.970   2.338  0.2797 -0.1195 -0.2295
 9857TIP3    H153766   0.250   1.945   2.304  0.3841 -0.2311 -0.4138
 9857TIP3    H253767   0.352   1.910   2.410  0.6011 -0.6929 -0.7728
 9858TIP3   OH253768   0.013   7.456   0.552  0.5799  0.1475 -0.6762
 9858TIP3    H153769  -0.069   7.408   0.565  0.8930 -0.2514 -0.1510
 9858TIP3    H253770   0.052   7.462   0.640  1.2473  0.0999 -0.9618
 9859TIP3   OH253771   3.197   5.977   0.416 -0.4160 -0.0186  0.0064
 9859TIP3    H153772   3.114   5.972   0.368  1.1468 -0.6649 -2.8994
 9859TIP3    H253773   3.172   5.995   0.506 -3.6180  2.0553 -1.1031
 9860TIP3   OH253774   7.589   7.406   8.140  0.2982 -0.2336  0.4320
 9860TIP3    H153775   7.670   7.411   8.190  1.4268 -1.2687 -1.2056
 9860TIP3    H253776   7.598   7.474   8.073 -0.2112 -0.3252  0.2668
 9861TIP3   OH253777   6.693   2.298   1.393 -0.1748 -0.0817 -0.2921
 9861TIP3    H153778   6.694   2.279   1.299 -1.6951 -1.4144 -0.0766
 9861TIP3    H253779   6.749   2.231   1.432 -0.0437  0.0851 -0.1943
 9862TIP3   OH253780   2.463   4.918   8.194  0.4837 -0.1503  0.1681
 9862TIP3    H153781   2.461   4.993   8.134  1.8054  0.4514  0.8198
 9862TIP3    H253782   2.554   4.889   8.190  0.1965 -1.1264  0.6591
 9863TIP3   OH253783   1.107   4.489   1.949 -0.4621  0.0886  0.1552
 9863TIP3    H153784   1.079   4.491   1.857 -0.0606 -0.7059  0.0143
 9863TIP3    H253785   1.188   4.438   1.949 -1.3396 -1.3775  1.1871
 9864TIP3   OH253786   1.767   4.950   9.062  0.1796 -0.0617  0.1918
 9864TIP3    H153787   1.812   4.870   9.034  1.2618  0.5035  0.2403
 9864TIP3    H253788   1.685   4.919   9.100 -0.0829 -1.0374 -1.0943
 9865TIP3   OH253789   6.951   6.098   2.173  0.0938  0.2349 -0.6124
 9865TIP3    H153790   7.000   6.045   2.111 -2.4413 -0.4120 -2.2417
 9865TIP3    H253791   6.879   6.041   2.201  0.7022  0.7734  2.4308
 9866TIP3   OH253792   1.648   5.535   1.601 -0.2250  0.3329  0.2075
 9866TIP3    H153793   1.659   5.441   1.618  0.1229  0.2511 -0.4349
 9866TIP3    H253794   1.667   5.577   1.685 -1.2425 -0.2252  0.7305
 9867TIP3   OH253795   2.221   6.789   8.926  0.4130 -0.3974  0.8133
 9867TIP3    H153796   2.150   6.726   8.924  0.5095 -0.4934  0.4017
 9867TIP3    H253797   2.235   6.814   8.835  1.0394 -0.5304  0.8652
 9868TIP3   OH253798   0.723   4.969   0.602  0.0296  0.4584  0.1210
 9868TIP3    H153799   0.696   4.968   0.510  2.0077  0.1547 -0.4919
 9868TIP3    H253800   0.743   5.061   0.620  1.3831  0.2661 -0.3162
 9869TIP3   OH253801   5.884   0.275   7.166  0.0534 -0.1956 -0.0682
 9869TIP3    H153802   5.955   0.227   7.208 -0.0622 -0.0694  0.2810
 9869TIP3    H253803   5.924   0.318   7.091  0.3478 -0.1219  0.1297
 9870TIP3   OH253804   1.048   0.925   8.603 -0.6930  0.2513 -0.6422
 9870TIP3    H153805   1.088   0.840   8.619  0.6282  1.0582  0.4901
 9870TIP3    H253806   1.100   0.964   8.533 -1.5428  0.0053 -1.4433
 9871TIP3   OH253807   0.632   4.759   2.598  0.5432 -0.0338 -0.0132
 9871TIP3    H153808   0.569   4.714   2.654 -0.1961 -1.0897 -1.6051
 9871TIP3    H253809   0.688   4.689   2.565  0.5977  0.4699 -1.0178
 9872TIP3   OH253810   7.515   7.604   1.843 -0.1412 -0.3381 -0.1197
 9872TIP3    H153811   7.523   7.516   1.880  2.4597 -0.2268 -0.2223
 9872TIP3    H253812   7.422   7.625   1.850 -1.0497 -3.5307 -1.1374
 9873TIP3   OH253813   1.203   2.630   9.688 -0.2078  0.5954 -0.0235
 9873TIP3    H153814   1.191   2.542   9.724 -1.1444  0.4245 -0.7141
 9873TIP3    H253815   1.180   2.689   9.760 -0.6861  0.2635  0.0967
 9874TIP3   OH253816   0.044   3.675   0.670 -0.7662 -0.2641  0.2392
 9874TIP3    H153817   0.081   3.595   0.708 -0.3396 -0.0978  0.1893
 9874TIP3    H253818   0.026   3.652   0.579 -4.1197 -1.4345  1.0598
 9875TIP3   OH253819   2.163   5.614   7.416 -0.3613 -0.2769 -0.0589
 9875TIP3    H153820   2.109   5.626   7.338 -2.3394 -3.2709  0.6940
 9875TIP3    H253821   2.100   5.610   7.488  1.3524  1.5947  1.6862
 9876TIP3   OH253822   4.235   1.792   1.454  0.5988  0.4904  0.6665
 9876TIP3    H153823   4.271   1.875   1.423  2.9253 -0.6577  0.0693
 9876TIP3    H253824   4.311   1.742   1.483 -0.1551 -2.7691 -2.2811
 9877TIP3   OH253825   1.374   1.299   1.644 -0.2111 -0.4933 -0.4489
 9877TIP3    H153826   1.439   1.368   1.659  0.3964 -0.8913 -1.1845
 9877TIP3    H253827   1.420   1.218   1.667 -0.9525 -0.6616  0.5095
 9878TIP3   OH253828   3.946   7.605   7.799  0.0090 -0.0103 -0.4797
 9878TIP3    H153829   4.025   7.658   7.795  0.0348 -0.0608 -0.6664
 9878TIP3    H253830   3.977   7.517   7.818 -0.1838  0.4048  2.2036
 9879TIP3   OH253831   5.956   1.930   7.754 -0.1542  0.5542 -0.2807
 9879TIP3    H153832   5.927   1.985   7.680  0.6253 -0.2137 -1.1894
 9879TIP3    H253833   6.017   1.868   7.714 -2.2412 -2.1093  0.3611
 9880TIP3   OH253834   4.921   3.247   8.640  0.1150 -0.5463 -0.1217
 9880TIP3    H153835   5.016   3.259   8.642  0.0244  0.5236 -1.0748
 9880TIP3    H253836   4.887   3.323   8.687 -0.2606 -1.3891  1.0080
 9881TIP3   OH253837   3.123   0.432   9.618 -0.2284 -0.4756 -0.4812
 9881TIP3    H153838   3.142   0.404   9.707  0.0220  0.7413 -0.1416
 9881TIP3    H253839   3.167   0.366   9.563  2.3520  0.4804  0.2990
 9882TIP3   OH253840   2.608   1.049   7.335 -0.2134 -0.8124  0.0115
 9882TIP3    H153841   2.618   1.030   7.242 -0.7422 -2.9051  0.3119
 9882TIP3    H253842   2.518   1.082   7.343  0.5736  1.6135 -0.4711
 9883TIP3   OH253843   7.371   5.088   8.265  0.0523 -0.7129 -0.1614
 9883TIP3    H153844   7.364   5.114   8.173  0.0694  0.7049  0.2105
 9883TIP3    H253845   7.304   5.139   8.310 -0.1143 -1.5626  0.5938
 9884TIP3   OH253846   3.075   1.676   0.919  0.1202 -0.5175 -0.3582
 9884TIP3    H153847   3.169   1.654   0.921  0.1346 -0.3911  0.3407
 9884TIP3    H253848   3.035   1.600   0.877  0.6507 -0.1234 -1.6402
 9885TIP3   OH253849   5.021   0.879   9.713  0.0818 -0.1462  1.0179
 9885TIP3    H153850   4.954   0.902   9.778  0.6584 -0.0319  1.5749
 9885TIP3    H253851   5.061   0.963   9.690  0.8238 -0.3393  1.5610
 9886TIP3   OH253852   5.825   2.308   8.112  0.0120  0.3532 -0.4071
 9886TIP3    H153853   5.876   2.245   8.061 -0.0385  0.8043 -1.0356
 9886TIP3    H253854   5.884   2.334   8.183  1.4968  2.3712 -2.2297
 9887TIP3   OH253855   6.045   3.581   6.829  0.3503 -0.2383  0.4263
 9887TIP3    H153856   5.978   3.514   6.839  0.1462 -0.0207  0.5435
 9887TIP3    H253857   6.083   3.564   6.743 -1.5755  1.1365 -0.7791
 9888TIP3   OH253858   2.656   6.146   7.728 -0.4424  0.5710  0.1942
 9888TIP3    H153859   2.589   6.188   7.782  0.9285  2.5237  0.4634
 9888TIP3    H253860   2.693   6.217   7.676  2.0721 -0.2521  0.7464
 9889TIP3   OH253861   2.820   4.139   9.896  0.2745  0.0762 -0.1239
 9889TIP3    H153862   2.788   4.122   9.807 -0.4571 -0.3779  0.2205
 9889TIP3    H253863   2.914   4.155   9.884  0.1170  0.4004 -1.0228
 9890TIP3   OH253864   0.894   2.666   1.158  0.1001 -0.3291 -0.2212
 9890TIP3    H153865   0.867   2.579   1.186 -0.8708  0.4297  1.3698
 9890TIP3    H253866   0.866   2.724   1.229  0.6662  1.2945 -1.2548
 9891TIP3   OH253867   4.700   5.459   7.524 -0.0359  0.1708  0.1662
 9891TIP3    H153868   4.728   5.372   7.494  0.8023  0.3007  0.5316
 9891TIP3    H253869   4.782   5.504   7.543 -0.5077  0.1366  2.5076
 9892TIP3   OH253870   2.820   4.919   8.285 -0.3602 -0.4184 -0.2492
 9892TIP3    H153871   2.815   4.835   8.240 -0.3856 -0.5724  0.0355
 9892TIP3    H253872   2.860   4.898   8.370 -0.5799 -0.1804 -0.0845
 9893TIP3   OH253873   4.911   3.735   9.789  0.2481  0.0293 -0.9054
 9893TIP3    H153874   4.861   3.672   9.841 -0.0103  1.3000  0.4374
 9893TIP3    H253875   4.934   3.687   9.709  0.5942 -1.9708  0.3129
 9894TIP3   OH253876   2.669   1.068   2.236  0.4199 -0.0173 -0.0215
 9894TIP3    H153877   2.750   1.018   2.246 -0.0390 -1.3404 -2.1434
 9894TIP3    H253878   2.686   1.127   2.162  0.3216  1.7146  1.2690
 9895TIP3   OH253879   5.988   6.604   1.593 -0.5112 -0.3697 -0.4526
 9895TIP3    H153880   5.900   6.577   1.620 -0.2944 -0.2802  0.3641
 9895TIP3    H253881   5.997   6.693   1.628 -0.5029  0.0413 -1.4768
 9896TIP3   OH253882   2.654   1.869   2.188 -0.0267 -0.3843  0.6202
 9896TIP3    H153883   2.646   1.911   2.273  0.0632 -0.4905  0.6816
 9896TIP3    H253884   2.578   1.901   2.138  0.2168  0.0925  0.5578
 9897TIP3   OH253885   0.756   1.503   8.650  0.0636  0.0579 -0.0176
 9897TIP3    H153886   0.765   1.407   8.656  0.4411  0.1591  1.5175
 9897TIP3    H253887   0.846   1.535   8.643  0.1051  0.3912  1.6838
 9898TIP3   OH253888   1.770   6.523   8.350  0.0779 -0.2234  0.7671
 9898TIP3    H153889   1.688   6.573   8.345 -1.0555 -2.0512  0.2781
 9898TIP3    H253890   1.742   6.433   8.365  1.9690 -1.0816 -0.5391
 9899TIP3   OH253891   6.109   3.631   9.865  0.0282  0.0848 -0.0772
 9899TIP3    H153892   6.099   3.610   9.957 -1.3184 -2.7569 -0.7605
 9899TIP3    H253893   6.024   3.609   9.826  0.7444  0.6686 -2.0932
 9900TIP3   OH253894   5.205   2.250   1.153 -0.3544  0.2085  0.2715
 9900TIP3    H153895   5.259   2.329   1.148  0.3627 -0.2631  0.3416
 9900TIP3    H253896   5.224   2.203   1.072  0.5631 -0.7085  0.9855
 9901TIP3   OH253897   0.786   1.179   7.521 -0.1129 -0.5781  0.1446
 9901TIP3    H153898   0.870   1.208   7.558 -0.5144 -0.6961  1.1884
 9901TIP3    H253899   0.780   1.087   7.546 -0.1595 -0.8075 -0.6855
 9902TIP3   OH253900   0.073   4.736  -0.072  0.2318  0.2218 -0.7283
 9902TIP3    H153901   0.045   4.814  -0.025  1.4468 -0.1668  0.7358
 9902TIP3    H253902   0.139   4.767  -0.134 -0.3425  0.5352 -1.1956
 9903TIP3   OH253903   2.034   3.958   9.237  0.1015 -0.0486  0.1364
 9903TIP3    H153904   1.957   3.937   9.290 -0.8787 -1.1485 -1.6357
 9903TIP3    H253905   2.023   4.050   9.214 -1.3003 -0.4677 -0.9938
 9904TIP3   OH253906   0.996   4.400   9.165 -0.2583 -0.1954 -0.6508
 9904TIP3    H153907   1.088   4.374   9.171 -0.4360 -0.6497  0.3508
 9904TIP3    H253908   0.985   4.429   9.074  1.3256  1.6322 -0.3104
 9905TIP3   OH253909   3.909   4.275   9.748 -0.2830  0.7767 -0.3360
 9905TIP3    H153910   3.850   4.326   9.693 -1.6279 -0.4998 -0.1219
 9905TIP3    H253911   3.987   4.263   9.694 -0.7470  1.3393 -1.1495
 9906TIP3   OH253912   4.126   3.863   8.566 -0.1271  0.4458  0.5103
 9906TIP3    H153913   4.069   3.939   8.554  0.0379  0.8700  2.1872
 9906TIP3    H253914   4.077   3.790   8.528  0.2062  1.5003 -2.2514
 9907TIP3   OH253915   5.093   1.753   9.048  0.1816 -0.0293  0.4930
 9907TIP3    H153916   5.102   1.742   9.143  0.0027 -0.2481  0.4864
 9907TIP3    H253917   5.037   1.680   9.021  2.3438 -1.5513 -0.1417
 9908TIP3   OH253918   7.015   3.599   7.702  0.3841 -0.4370 -0.0679
 9908TIP3    H153919   7.045   3.678   7.748  1.3194 -1.5449  1.3119
 9908TIP3    H253920   7.055   3.604   7.616 -0.2388  0.9791 -0.3035
 9909TIP3   OH253921   2.669   4.506   7.570 -0.2110 -0.0561  0.5835
 9909TIP3    H153922   2.586   4.533   7.533  0.7461  1.9965 -0.1930
 9909TIP3    H253923   2.715   4.587   7.589  1.8448 -1.1290  0.4821
 9910TIP3   OH253924   7.207   2.243   8.702 -0.2586 -0.5880 -0.1246
 9910TIP3    H153925   7.232   2.157   8.735 -1.1742 -0.4790  0.9266
 9910TIP3    H253926   7.257   2.305   8.755  1.5522 -0.4637 -1.8907
 9911TIP3   OH253927   2.778   0.524   1.586 -0.9047 -0.5206 -0.0864
 9911TIP3    H153928   2.854   0.548   1.532 -0.3266 -0.7155  0.6238
 9911TIP3    H253929   2.718   0.598   1.577 -0.6734 -0.4031 -0.7271
 9912TIP3   OH253930   3.828   2.927   7.859  0.1132 -0.1987  0.0121
 9912TIP3    H153931   3.762   2.959   7.797  0.3426  0.8400  0.2959
 9912TIP3    H253932   3.892   2.881   7.804 -0.6867 -0.9710 -0.2998
 9913TIP3   OH253933   5.380   1.098   7.611 -0.3753  1.0377 -0.2329
 9913TIP3    H153934   5.312   1.063   7.669 -1.1363 -0.1720 -1.7705
 9913TIP3    H253935   5.424   1.166   7.663 -1.2634  0.2840  1.5933
 9914TIP3   OH253936   1.315   0.643   1.795  0.1757 -0.2608 -0.0354
 9914TIP3    H153937   1.390   0.700   1.780 -0.8851  1.7389  1.7506
 9914TIP3    H253938   1.247   0.675   1.735  0.6320 -1.9809 -1.5555
 9915TIP3   OH253939   3.739   4.208   7.557 -0.5965 -0.3421 -0.6159
 9915TIP3    H153940   3.703   4.296   7.567 -2.6024 -1.1648  0.0202
 9915TIP3    H253941   3.756   4.178   7.646 -1.3418 -1.1074 -0.7137
 9916TIP3   OH253942   0.750   4.340   9.382 -0.1372 -0.3714 -0.9720
 9916TIP3    H153943   0.725   4.398   9.310  0.8864  0.6338 -0.5498
 9916TIP3    H253944   0.738   4.252   9.347  0.0410  0.0902 -2.2699
 9917TIP3   OH253945   7.228  -0.014   2.043 -0.6952 -0.5528 -0.4541
 9917TIP3    H153946   7.316  -0.019   2.080 -0.7769 -0.4574 -0.2442
 9917TIP3    H253947   7.206   0.079   2.047 -1.2961 -0.7162  0.6712
 9918TIP3   OH253948   6.757   6.890   7.856 -0.2323  0.6594  0.8105
 9918TIP3    H153949   6.709   6.942   7.921 -0.6114  2.6564 -0.9837
 9918TIP3    H253950   6.698   6.885   7.781  1.3406  0.9867 -0.5000
 9919TIP3   OH253951   6.085   1.701   9.369  0.0501 -0.2369 -0.0632
 9919TIP3    H153952   6.002   1.654   9.367 -0.8054  1.1403 -2.5654
 9919TIP3    H253953   6.062   1.792   9.347  2.3315 -0.2098 -3.1725
 9920TIP3   OH253954   0.165   2.867   9.403 -0.0745 -0.3209 -0.2443
 9920TIP3    H153955   0.202   2.789   9.360 -0.8464 -1.0680  0.4122
 9920TIP3    H253956   0.077   2.875   9.365 -0.0028  0.2369 -0.3004
 9921TIP3   OH253957   1.344   1.309   0.604 -0.2130  0.2390 -0.1791
 9921TIP3    H153958   1.249   1.295   0.609 -0.4714  2.0115  0.9226
 9921TIP3    H253959   1.375   1.289   0.692 -0.1283  2.8487  0.4763
 9922TIP3   OH253960   6.484   7.545   1.344 -0.1717 -0.3945 -0.2772
 9922TIP3    H153961   6.561   7.595   1.371  0.2271 -0.8588 -0.5369
 9922TIP3    H253962   6.515   7.491   1.271  0.0976 -2.8561  1.5146
 9923TIP3   OH253963   2.010   4.036   0.649 -0.4492  0.4447 -0.3229
 9923TIP3    H153964   1.920   4.019   0.678 -1.2033  2.6352 -1.1367
 9923TIP3    H253965   2.002   4.049   0.555  0.8643 -0.0237 -0.5165
 9924TIP3   OH253966   1.657   2.944   9.793  0.0061  0.1159  0.0625
 9924TIP3    H153967   1.674   2.859   9.834 -0.2738  0.5442  1.0984
 9924TIP3    H253968   1.643   2.924   9.701  1.5665 -0.7768 -0.0168
 9925TIP3   OH253969   2.221   3.359   9.506 -0.4452 -0.0493 -0.4915
 9925TIP3    H153970   2.209   3.305   9.428 -0.9740 -3.4107  1.7183
 9925TIP3    H253971   2.149   3.334   9.564  0.6789  1.2768  1.6031
 9926TIP3   OH253972   0.950   6.526   2.425  0.9146 -0.5353 -0.0568
 9926TIP3    H153973   0.893   6.601   2.411 -0.9132 -1.3825  2.1643
 9926TIP3    H253974   1.027   6.543   2.370 -0.8897  1.2821 -2.2008
 9927TIP3   OH253975   3.807   2.548   9.464  0.0818  0.0631 -0.8267
 9927TIP3    H153976   3.872   2.478   9.472  0.8088  0.8941  1.0778
 9927TIP3    H253977   3.723   2.502   9.458  0.1064 -1.1878  3.9459
 9928TIP3   OH253978   6.766   7.298   0.895 -0.7193 -0.2499 -0.3112
 9928TIP3    H153979   6.706   7.306   0.969  0.5842 -0.5837  0.8296
 9928TIP3    H253980   6.709   7.298   0.818 -2.0760  0.8195  0.6291
 9929TIP3   OH253981   1.648   0.355   8.388  0.3355  0.0951  0.4621
 9929TIP3    H153982   1.650   0.404   8.471 -0.1230 -1.3000  1.3317
 9929TIP3    H253983   1.686   0.270   8.410  0.2052 -0.2917 -0.7690
 9930TIP3   OH253984   6.109   6.590   9.175 -0.0661 -0.3472  0.3440
 9930TIP3    H153985   6.076   6.595   9.264 -1.4863 -3.1637  0.1170
 9930TIP3    H253986   6.139   6.499   9.166  3.4775  0.7910 -0.9904
 9931TIP3   OH253987   2.029   0.748   9.640 -0.0327 -0.0826  0.2714
 9931TIP3    H153988   1.988   0.830   9.670  0.2437 -0.1681  0.9140
 9931TIP3    H253989   2.077   0.773   9.561 -0.3308  0.2821  0.2037
 9932TIP3   OH253990   0.716   6.394   0.476 -0.0866  0.0053 -0.0723
 9932TIP3    H153991   0.713   6.475   0.426  0.0417  1.8289  2.6727
 9932TIP3    H253992   0.626   6.383   0.507  0.1958 -0.0984  0.7276
 9933TIP3   OH253993   2.587   3.341   8.140  0.6063 -0.0207 -0.1109
 9933TIP3    H153994   2.562   3.395   8.065  1.0184  0.6601  0.2396
 9933TIP3    H253995   2.529   3.369   8.210 -2.1580 -2.9476 -0.9643
 9934TIP3   OH253996   3.763   3.887   8.887  0.5419  0.0681  0.0545
 9934TIP3    H153997   3.806   3.824   8.945 -0.5311 -1.4826 -0.7748
 9934TIP3    H253998   3.706   3.834   8.831  0.6056  1.6346 -1.5991
 9935TIP3   OH253999   6.617   4.225   8.317  0.1780 -0.3090 -0.9418
 9935TIP3    H154000   6.684   4.187   8.261  0.8234  1.0691 -1.1519
 9935TIP3    H254001   6.663   4.293   8.366 -1.0349  0.5559 -0.9765
 9936TIP3   OH254002   1.567   7.033   3.642  0.1413 -0.1080 -0.3182
 9936TIP3    H154003   1.560   7.048   3.548  1.0698  1.2356 -0.2026
 9936TIP3    H254004   1.611   7.111   3.675 -1.7945  0.2807  1.5180
 9937TIP3   OH254005   7.609   1.657   8.425  0.1008  0.4202 -0.1173
 9937TIP3    H154006   7.603   1.582   8.366 -0.1088  2.0381 -2.2905
 9937TIP3    H254007   7.676   1.713   8.386  0.5294  1.2007  1.6479
 9938TIP3   OH254008   4.157   0.662   2.168  0.2993  0.2225 -0.4599
 9938TIP3    H154009   4.121   0.681   2.082 -1.8044 -2.0840 -0.1951
 9938TIP3    H254010   4.150   0.566   2.177 -1.8153  0.5318  3.1650
 9939TIP3   OH254011   3.207   5.202   7.051  0.1714  0.0728 -0.1750
 9939TIP3    H154012   3.175   5.265   6.987  3.4145  0.0919 -2.0156
 9939TIP3    H254013   3.198   5.117   7.008 -0.4900 -0.3087  0.6754
 9940TIP3   OH254014   6.303   4.311   1.137  0.0627  0.3446 -0.3612
 9940TIP3    H154015   6.304   4.403   1.113 -1.1122  1.1231  2.2514
 9940TIP3    H254016   6.389   4.295   1.176  0.6802 -0.0144 -1.7979
 9941TIP3   OH254017   3.056   2.032   2.344  0.1614 -0.1857 -0.1459
 9941TIP3    H154018   3.013   2.117   2.357  1.4431  0.3450  0.8189
 9941TIP3    H254019   3.003   1.970   2.394 -0.0908  0.2639  0.1511
 9942TIP3   OH254020   3.076   1.322   0.425  0.2718  0.2395  0.3982
 9942TIP3    H154021   3.062   1.392   0.489 -0.6458 -0.1426  0.6279
 9942TIP3    H254022   3.167   1.332   0.399  0.6115  0.5117  1.6319
 9943TIP3   OH254023   5.263   6.067   7.174  0.2659  0.1750 -0.4976
 9943TIP3    H154024   5.229   6.146   7.216 -1.1133 -0.3378 -0.5641
 9943TIP3    H254025   5.350   6.090   7.144  1.3500  0.5892  2.6418
 9944TIP3   OH254026   6.303   5.051   8.175  0.3763  0.1866 -0.2602
 9944TIP3    H154027   6.319   5.030   8.267 -1.3791  1.8758  0.4888
 9944TIP3    H254028   6.228   4.997   8.150 -1.1644  1.9839  0.2899
 9945TIP3   OH254029   4.436   7.100   2.332 -0.2786  0.0705  0.2658
 9945TIP3    H154030   4.346   7.093   2.299 -0.0941  0.7655 -0.4258
 9945TIP3    H254031   4.491   7.079   2.256  0.1455  0.2571  0.5168
 9946TIP3   OH254032   4.965   4.401   9.941 -0.3749 -0.3687 -0.5089
 9946TIP3    H154033   4.912   4.454  10.000  0.2792  0.4786 -0.6713
 9946TIP3    H254034   4.989   4.324   9.993  1.6966  1.1999  0.9867
 9947TIP3   OH254035   1.651   2.864   8.175  0.1010 -0.2459 -0.3831
 9947TIP3    H154036   1.628   2.887   8.265 -0.7197 -0.5877 -0.4891
 9947TIP3    H254037   1.604   2.927   8.121 -0.1355 -0.5941 -0.5915
 9948TIP3   OH254038   2.376   5.967   2.604 -0.5078 -0.5991 -0.0393
 9948TIP3    H154039   2.423   5.912   2.667 -0.5002 -0.4706  0.0686
 9948TIP3    H254040   2.425   6.049   2.603 -1.3314 -0.0692  0.8843
 9949TIP3   OH254041   5.985   7.204   0.262 -0.6396  0.0406 -0.3110
 9949TIP3    H154042   6.014   7.251   0.184  1.1132  2.0497  1.4360
 9949TIP3    H254043   6.041   7.126   0.266 -1.5196 -0.6958 -1.6075
 9950TIP3   OH254044   1.996   5.284   9.877  0.3861  0.6187  0.3913
 9950TIP3    H154045   2.002   5.278   9.972  0.9249  0.9334  0.3800
 9950TIP3    H254046   1.911   5.245   9.856  0.4984  0.0578  0.9528
 9951TIP3   OH254047   5.944   4.300   7.610  0.1032  0.2656  0.4141
 9951TIP3    H154048   5.949   4.382   7.659 -2.5129  0.4032  0.5570
 9951TIP3    H254049   5.982   4.234   7.668  1.7416  1.2294  0.5080
 9952TIP3   OH254050   6.054   3.337   9.565  0.6577 -0.4630 -0.5742
 9952TIP3    H154051   6.083   3.370   9.479 -0.5589 -0.4301 -0.9947
 9952TIP3    H254052   6.001   3.260   9.544 -0.3110  0.0094  0.0873
 9953TIP3   OH254053   1.389   4.115   8.613 -0.2891  0.0219 -0.2690
 9953TIP3    H154054   1.454   4.137   8.680  2.4012 -0.6150 -2.4784
 9953TIP3    H254055   1.335   4.194   8.605  0.1271  0.5677  1.6853
 9954TIP3   OH254056   6.794   4.910   7.673 -0.7772  0.1623  0.2425
 9954TIP3    H154057   6.777   4.817   7.655  0.8723 -0.3488  1.1196
 9954TIP3    H254058   6.856   4.937   7.606 -0.1163  0.2164  0.8707
 9955TIP3   OH254059   2.678   3.716   8.465 -0.2009 -0.4625  0.1883
 9955TIP3    H154060   2.723   3.785   8.514  1.6818 -0.2205 -1.7565
 9955TIP3    H254061   2.602   3.760   8.426  0.4837  0.3154 -0.3023
 9956TIP3   OH254062   2.151   7.352   9.813  0.1181 -0.2738 -0.3661
 9956TIP3    H154063   2.239   7.365   9.847  0.7764 -2.4896 -1.0455
 9956TIP3    H254064   2.122   7.439   9.786  1.3259  0.8005  1.5925
 9957TIP3   OH254065   6.892   3.765   8.844  0.4987 -0.3834  0.2603
 9957TIP3    H154066   6.924   3.835   8.901  0.6131  0.1893 -0.4814
 9957TIP3    H254067   6.907   3.799   8.756  1.4071 -1.7392 -0.1286
 9958TIP3   OH254068   5.135   2.276   0.826  0.0704 -0.4011 -0.2214
 9958TIP3    H154069   5.129   2.195   0.775  2.0274 -1.9261  1.7899
 9958TIP3    H254070   5.045   2.294   0.853 -0.4781 -1.6154 -1.1504
 9959TIP3   OH254071   5.190   1.710   8.592 -0.9936  0.5366 -0.5856
 9959TIP3    H154072   5.254   1.751   8.534 -0.4508  0.7980  0.1778
 9959TIP3    H254073   5.240   1.685   8.670 -1.1149 -2.3336 -1.3039
 9960TIP3   OH254074   6.881   7.327   7.986  0.0382  0.0872  0.4168
 9960TIP3    H154075   6.884   7.312   7.891  0.1483 -0.3648  0.4896
 9960TIP3    H254076   6.966   7.366   8.007 -0.2287  0.7756  0.2334
 9961TIP3   OH254077   6.938   1.744   1.196 -0.0313  0.2419  0.8893
 9961TIP3    H154078   6.919   1.736   1.102 -2.2541  0.9332  1.2228
 9961TIP3    H254079   6.961   1.836   1.208 -1.2982  0.5264  1.2418
 9962TIP3   OH254080   6.839   2.395   1.067  0.1325  0.0494  0.0432
 9962TIP3    H154081   6.819   2.476   1.115 -2.0147 -0.6497  0.4466
 9962TIP3    H254082   6.771   2.390   1.000  1.2204 -0.6099 -1.0510
 9963TIP3   OH254083   6.980   6.008   2.688  0.1524 -0.4615 -0.4327
 9963TIP3    H154084   6.933   5.946   2.744  0.4119  1.5653  2.2304
 9963TIP3    H254085   6.912   6.045   2.632 -0.5895 -0.8998  0.1470
 9964TIP3   OH254086   4.474   6.287   9.880  0.0500  0.0179  0.3129
 9964TIP3    H154087   4.436   6.262   9.795 -0.2259  2.6338 -0.4526
 9964TIP3    H254088   4.554   6.335   9.857 -1.0231  2.4735  1.3108
 9965TIP3   OH254089   2.697   4.454   8.137 -0.4265 -0.1310  0.2053
 9965TIP3    H154090   2.758   4.523   8.110  0.1246 -0.8857 -0.5238
 9965TIP3    H254091   2.621   4.466   8.081 -0.4630  0.0874  0.3018
 9966TIP3   OH254092   6.907   6.444   9.741  0.1482  0.5798 -0.3108
 9966TIP3    H154093   6.843   6.515   9.730 -0.9371 -0.3212 -0.0628
 9966TIP3    H254094   6.979   6.483   9.789 -1.7200  0.8460  2.5303
 9967TIP3   OH254095   2.794   0.960   0.460  0.1494 -0.0532 -0.3281
 9967TIP3    H154096   2.721   1.022   0.461 -0.2397 -0.5065  0.0932
 9967TIP3    H254097   2.759   0.882   0.419  0.5174 -0.1413 -0.4784
 9968TIP3   OH254098   6.862   2.663   9.349  0.0367  0.0659 -0.4496
 9968TIP3    H154099   6.907   2.709   9.420  0.9086  0.2556 -1.1055
 9968TIP3    H254100   6.791   2.722   9.324  0.4590  0.5497 -0.5305
 9969TIP3   OH254101   3.885   4.879   9.068  0.0663 -0.1116 -0.5556
 9969TIP3    H154102   3.970   4.843   9.093 -0.5221 -1.2256 -0.0892
 9969TIP3    H254103   3.821   4.820   9.108 -0.9717  1.9370  1.0213
 9970TIP3   OH254104   0.060   4.154   1.822 -0.1959  0.1528  0.0100
 9970TIP3    H154105   0.127   4.216   1.793  0.6491 -1.2027 -1.0446
 9970TIP3    H254106   0.107   4.071   1.834 -0.9926  0.0103  2.8865
 9971TIP3   OH254107   1.952   5.378   2.604 -0.4921 -0.3032  0.2438
 9971TIP3    H154108   1.910   5.332   2.531 -0.3828 -0.2112  0.1235
 9971TIP3    H254109   1.928   5.470   2.591  1.1400  0.0063 -0.7879
 9972TIP3   OH254110   5.696   5.560   7.667  0.3031  0.0754  0.1861
 9972TIP3    H154111   5.637   5.613   7.720  1.1558  2.2930 -0.9672
 9972TIP3    H254112   5.640   5.493   7.628 -0.5557 -0.8252  2.7629
 9973TIP3   OH254113   3.213   6.776   8.653  1.0588 -0.0836  0.1024
 9973TIP3    H154114   3.135   6.745   8.699  0.9540  0.5975  0.3958
 9973TIP3    H254115   3.215   6.725   8.573  0.1782  0.0535 -0.0198
 9974TIP3   OH254116   7.497   2.926   9.908  0.7551 -0.3273  0.1863
 9974TIP3    H154117   7.451   2.848   9.878 -2.0017  0.9719  0.7472
 9974TIP3    H254118   7.428   2.988   9.931  2.6106  0.4344  4.8904
 9975TIP3   OH254119   6.876   7.184   8.984 -0.2094  0.3078 -0.1842
 9975TIP3    H154120   6.817   7.255   9.009  0.1186  1.2024 -1.8094
 9975TIP3    H254121   6.827   7.104   9.002 -1.5986  1.0137 -0.6869
 9976TIP3   OH254122   4.080   4.233   9.129 -0.6175  0.5665  0.1506
 9976TIP3    H154123   4.032   4.177   9.067 -0.8576  0.4837  0.4085
 9976TIP3    H254124   4.133   4.290   9.074 -1.4007  1.0063 -0.1577
 9977TIP3   OH254125   4.649   0.305   2.025  0.6500 -0.2456  0.0972
 9977TIP3    H154126   4.620   0.232   2.080 -0.8418  0.4887  0.3200
 9977TIP3    H254127   4.617   0.284   1.937  0.4336  0.0307  0.1107
 9978TIP3   OH254128   1.030   7.067   8.433  0.2039 -0.3056  0.3704
 9978TIP3    H154129   0.981   6.985   8.443 -2.0922  0.9574  0.3879
 9978TIP3    H254130   1.026   7.109   8.519  1.5211 -0.2291  0.4143
 9979TIP3   OH254131   6.602   2.444   7.474  0.1414  0.1738 -0.4206
 9979TIP3    H154132   6.558   2.368   7.436 -0.1080  0.0788  0.0610
 9979TIP3    H254133   6.680   2.456   7.419  0.5233 -0.8246 -0.1094
 9980TIP3   OH254134   3.649   6.538   0.472  0.0227  0.5380  0.5437
 9980TIP3    H154135   3.661   6.633   0.479 -0.4092  0.6158  0.2552
 9980TIP3    H254136   3.559   6.524   0.501  0.1947  0.1764  0.9053
 9981TIP3   OH254137   3.586   1.690   1.034  0.2113 -0.0928 -0.4765
 9981TIP3    H154138   3.544   1.605   1.020  1.5374 -0.7518 -0.6546
 9981TIP3    H254139   3.642   1.675   1.111 -1.0913  1.2309  0.7911
 9982TIP3   OH254140   5.218   1.070   1.637 -0.0748 -0.3962 -0.0228
 9982TIP3    H154141   5.141   1.022   1.667 -0.2263 -1.5190 -2.0694
 9982TIP3    H254142   5.184   1.140   1.581  0.3552 -0.6910 -0.6671
 9983TIP3   OH254143   7.515   5.348   9.590  0.4028 -0.3832  0.1277
 9983TIP3    H154144   7.454   5.289   9.545 -0.9165  0.4568  0.7459
 9983TIP3    H254145   7.490   5.343   9.682  0.2193  1.1694  0.1885
 9984TIP3   OH254146   5.798   1.948   0.477  0.4034 -0.6977  0.0241
 9984TIP3    H154147   5.724   1.955   0.537  0.6908 -1.4405  0.4896
 9984TIP3    H254148   5.861   2.013   0.508  0.5969 -1.1570  0.6159
 9985TIP3   OH254149   2.913   0.567   7.638  0.4455  0.1005 -0.2074
 9985TIP3    H154150   2.914   0.481   7.596 -0.3051 -0.5348  1.0139
 9985TIP3    H254151   2.841   0.562   7.700  0.6082  1.5100  0.1190
 9986TIP3   OH254152   6.961   0.849   1.875  0.1262  0.0660  0.3152
 9986TIP3    H154153   7.003   0.924   1.917  1.8229 -1.4399  1.4622
 9986TIP3    H254154   6.972   0.864   1.781 -0.5821  1.7577  0.4555
 9987TIP3   OH254155   6.672   0.423   0.299  0.5446 -0.4936  0.3350
 9987TIP3    H154156   6.654   0.332   0.274 -0.9186 -0.3641  0.8445
 9987TIP3    H254157   6.764   0.436   0.275  0.4250 -1.7090 -0.9363
 9988TIP3   OH254158   1.769   4.153   1.776 -0.3088  0.6889  0.3635
 9988TIP3    H154159   1.792   4.245   1.768  1.4908  0.1971 -0.6710
 9988TIP3    H254160   1.824   4.119   1.846 -0.6866  0.3124  0.4896
 9989TIP3   OH254161   5.052   6.858   0.400 -0.2071  0.4682  0.5180
 9989TIP3    H154162   5.020   6.861   0.310 -0.4927 -1.9482  0.4596
 9989TIP3    H254163   5.052   6.949   0.429 -0.9666  1.2115 -1.6131
 9990TIP3   OH254164   0.479   4.112   2.818  0.2285 -0.2059 -0.2741
 9990TIP3    H154165   0.507   4.195   2.778  1.2503 -0.2465  0.3196
 9990TIP3    H254166   0.411   4.137   2.881  0.9788  0.2848  0.3672
 9991TIP3   OH254167   4.714   6.468   0.686 -0.0661 -0.1861 -0.9217
 9991TIP3    H154168   4.676   6.416   0.615 -0.3114  1.4796 -2.0606
 9991TIP3    H254169   4.789   6.512   0.646 -1.1664  2.0569 -0.6298
 9992TIP3   OH254170   0.741   6.860   3.065  0.0901  0.2546 -0.2270
 9992TIP3    H154171   0.669   6.904   3.109 -0.6226  0.9386 -1.9891
 9992TIP3    H254172   0.723   6.767   3.077  0.1029  0.4124  1.1608
 9993TIP3   OH254173   5.981   6.554   7.805  0.2969 -0.0913  0.4292
 9993TIP3    H154174   6.020   6.551   7.718 -0.7874 -2.6688 -0.0512
 9993TIP3    H254175   6.045   6.512   7.862  0.4459  0.4398  0.6661
 9994TIP3   OH254176   3.310   4.724   6.997  0.0183 -0.0490 -0.3598
 9994TIP3    H154177   3.303   4.659   7.067  1.5289  0.7215  0.5602
 9994TIP3    H254178   3.222   4.730   6.961 -0.7037 -0.7848  1.1739
 9995TIP3   OH254179   4.787   4.851   8.795 -0.4929  0.7017  0.3558
 9995TIP3    H154180   4.775   4.931   8.846 -0.7612  0.0541  1.3575
 9995TIP3    H254181   4.727   4.788   8.836  1.0392 -0.5276  0.8112
 9996TIP3   OH254182   3.504   6.001   9.518 -0.0734  0.2427  1.0052
 9996TIP3    H154183   3.412   6.030   9.518 -1.0513 -2.5614 -0.3996
 9996TIP3    H254184   3.535   6.018   9.429  0.6998  0.8841  1.3854
 9997TIP3   OH254185   1.445   3.344   1.840  0.0714  0.2225  0.1546
 9997TIP3    H154186   1.519   3.378   1.791 -0.1616  0.4495 -0.0458
 9997TIP3    H254187   1.462   3.371   1.931  0.6668 -0.4865  0.2636
 9998TIP3   OH254188   4.012   1.136   9.998  0.2438  0.8445  0.2275
 9998TIP3    H154189   3.949   1.081  10.044  0.6154  0.3386  0.1336
 9998TIP3    H254190   4.009   1.106   9.907  1.1847  0.2823  0.3695
 9999TIP3   OH254191   0.642   3.203   1.247  0.9061  0.2849 -0.0675
 9999TIP3    H154192   0.651   3.243   1.334  3.2528 -1.4609  0.5776
 9999TIP3    H254193   0.679   3.268   1.187  1.9597  0.3226  0.6038
10000TIP3   OH254194   5.587   5.093   8.822 -0.5024 -0.7024  0.1136
10000TIP3    H154195   5.560   5.034   8.752  1.2377  0.8392 -1.9757
10000TIP3    H254196   5.662   5.050   8.863 -0.7343 -1.0179  0.2097
10001TIP3   OH254197   6.809   3.243   0.207 -0.0925  0.1117 -0.0828
10001TIP3    H154198   6.738   3.203   0.158 -0.0922 -0.5486  0.4360
10001TIP3    H254199   6.778   3.246   0.297  0.4641 -0.0214  0.1213
10002TIP3   OH254200   4.947   6.713   1.351  0.3794  0.0470 -0.1007
10002TIP3    H154201   4.992   6.770   1.289  1.5830 -0.1523  0.5696
10002TIP3    H254202   4.898   6.773   1.407  0.3470  0.3092 -0.4043
10003TIP3   OH254203   7.699   1.174   2.615  0.5565 -0.1847  0.2076
10003TIP3    H154204   7.633   1.177   2.546  1.2653 -0.7151 -0.5161
10003TIP3    H254205   7.688   1.256   2.663  0.9517  0.8284 -1.3788
10004TIP3   OH254206   4.698   1.736   8.918  0.2119  0.4085 -0.1494
10004TIP3    H154207   4.699   1.679   8.842 -1.1560 -1.7057  1.2920
10004TIP3    H254208   4.656   1.683   8.987  0.9228  2.3732  1.9241
10005TIP3   OH254209   6.730   4.645   7.473 -0.2252  0.3672  0.6760
10005TIP3    H154210   6.780   4.662   7.393 -0.7929  1.8263  0.6112
10005TIP3    H254211   6.639   4.638   7.443 -0.3456  0.0737  1.0969
10006TIP3   OH254212   7.403   1.715   8.607  0.0969 -0.3321  0.4116
10006TIP3    H154213   7.345   1.661   8.553 -1.0721 -0.6676  1.9301
10006TIP3    H254214   7.487   1.714   8.562 -1.0751  0.2279 -1.9147
10007TIP3   OH254215   5.209   2.507   0.425  0.2258  0.3159 -0.2467
10007TIP3    H154216   5.172   2.456   0.352  0.3537 -0.0131 -0.0833
10007TIP3    H254217   5.253   2.581   0.383  2.1717 -1.0156 -0.6587
10008TIP3   OH254218   7.473   4.324   1.229 -0.1758  0.8524  0.4073
10008TIP3    H154219   7.488   4.404   1.178 -2.2110  1.9962  1.4529
10008TIP3    H254220   7.552   4.314   1.282  0.3162  1.8810 -0.0945
10009TIP3   OH254221   6.434   3.906   7.664  0.7558  0.9380 -0.3878
10009TIP3    H154222   6.505   3.970   7.666  0.1406  1.6212  1.1134
10009TIP3    H254223   6.421   3.882   7.756 -2.0033  2.0638 -0.4074
10010TIP3   OH254224   1.299   3.479   7.758  0.1818  0.1513  0.0497
10010TIP3    H154225   1.349   3.455   7.680  1.8375  0.9426  0.8134
10010TIP3    H254226   1.317   3.572   7.770  2.6752 -0.5619  3.1492
10011TIP3   OH254227   6.048   3.652   0.141 -0.0259 -0.5049  0.4257
10011TIP3    H154228   6.000   3.676   0.220  1.3094 -0.3878  1.2255
10011TIP3    H254229   6.110   3.724   0.127 -2.1547  1.0023 -2.4520
10012TIP3   OH254230   1.389   6.273   2.581 -0.6424  0.1177  0.1550
10012TIP3    H154231   1.391   6.343   2.647  0.8406 -0.5381  0.8559
10012TIP3    H254232   1.326   6.210   2.615  0.8353 -0.6938  1.5156
10013TIP3   OH254233   6.460   5.936   0.561  0.0049 -0.4697 -0.1575
10013TIP3    H154234   6.508   5.949   0.479  1.0298  2.1423  0.7495
10013TIP3    H254235   6.519   5.885   0.616  0.2610 -0.3056 -0.2797
10014TIP3   OH254236   2.254   3.815   1.090 -0.3224  0.3050  0.6356
10014TIP3    H154237   2.313   3.884   1.061 -0.5157  0.2336  0.0666
10014TIP3    H254238   2.272   3.741   1.031 -0.3685 -0.0117  1.0108
10015TIP3   OH254239   7.073   6.034   8.184 -0.2897  0.1344  0.3288
10015TIP3    H154240   6.989   6.076   8.167 -0.6775 -1.5061 -2.4712
10015TIP3    H254241   7.136   6.086   8.134  0.3967  1.1893  2.1885
10016TIP3   OH254242   6.224   6.657   2.084  0.2327 -0.2759  0.5382
10016TIP3    H154243   6.205   6.727   2.022  0.1614 -1.3571 -0.6924
10016TIP3    H254244   6.297   6.691   2.136  1.5089 -0.0250 -1.3182
10017TIP3   OH254245   5.647   0.381   2.635 -0.0264 -0.1460 -0.5082
10017TIP3    H154246   5.576   0.316   2.633  0.6711 -1.0946  2.0943
10017TIP3    H254247   5.687   0.370   2.721  0.3822  3.5197 -0.1057
10018TIP3   OH254248   7.506   0.443   2.491  0.1341  0.1249  0.4659
10018TIP3    H154249   7.498   0.360   2.444 -0.3117  0.6443 -0.3865
10018TIP3    H254250   7.583   0.431   2.547  0.2525 -0.7543  0.1292
10019TIP3   OH254251   2.298   1.295   2.399 -0.2952  0.4891  0.4970
10019TIP3    H154252   2.302   1.200   2.413 -1.2856  0.2374 -0.7464
10019TIP3    H254253   2.241   1.327   2.469  1.1642  0.4052  1.7941
10020TIP3   OH254254   0.512   2.587   9.523 -0.1411 -0.0917 -0.4467
10020TIP3    H154255   0.490   2.679   9.538  1.2383  0.4765 -1.7309
10020TIP3    H254256   0.607   2.586   9.513  0.0023 -1.8259  0.5612
10021TIP3   OH254257   1.968   7.527   9.350  0.4194 -0.4169 -0.1642
10021TIP3    H154258   1.952   7.436   9.377 -0.6241  0.1342  1.1578
10021TIP3    H254259   1.930   7.533   9.263 -0.7955 -0.8845  0.3185
10022TIP3   OH254260   2.995   0.601   1.419 -0.5077  0.5592 -0.6606
10022TIP3    H154261   3.021   0.525   1.367 -1.1069  0.2503 -0.5290
10022TIP3    H254262   2.985   0.672   1.356  0.2615  0.5865 -0.7584
10023TIP3   OH254263   5.181   5.140   9.541  0.0750  0.1724  0.5883
10023TIP3    H154264   5.101   5.192   9.530  1.5746  2.1660 -1.8287
10023TIP3    H254265   5.227   5.183   9.613  0.0312  0.4155  0.4705
10024TIP3   OH254266   5.937   6.170   9.612  0.2252  0.3895 -0.0109
10024TIP3    H154267   5.929   6.118   9.532 -2.1926  1.5411 -0.5843
10024TIP3    H254268   5.923   6.106   9.683  1.7889 -0.5246 -0.4784
10025TIP3   OH254269   7.166   0.929   7.951 -0.4760 -0.6542 -0.4492
10025TIP3    H154270   7.122   0.882   8.023  1.2916 -3.0510 -0.7986
10025TIP3    H254271   7.170   1.020   7.981 -1.0536 -1.3142  1.8502
10026TIP3   OH254272   2.135   4.725   8.034  0.6353 -0.3280 -0.2103
10026TIP3    H154273   2.162   4.794   7.973 -0.2516  1.5992  1.4685
10026TIP3    H254274   2.041   4.736   8.043  0.6506 -1.0109  0.9565
10027TIP3   OH254275   7.012   3.123   2.507 -0.7565  0.1827  0.0126
10027TIP3    H154276   6.983   3.082   2.589 -2.2622  2.3586  0.6624
10027TIP3    H254277   6.935   3.119   2.450 -0.2952  0.3519 -0.6318
10028TIP3   OH254278   0.643   2.291   9.652 -0.4178  0.0540 -0.0851
10028TIP3    H154279   0.713   2.352   9.678  0.4451  0.8301 -3.7062
10028TIP3    H254280   0.585   2.289   9.728  1.4232  2.5280  1.5815
10029TIP3   OH254281   3.494   5.049   0.025 -0.0970 -0.5817  0.2798
10029TIP3    H154282   3.540   5.088  -0.050  0.8432 -1.8053  0.1903
10029TIP3    H254283   3.553   4.980   0.056  0.2581  0.8433  3.0953
10030TIP3   OH254284   2.796   7.474   1.163 -0.1685 -0.1518 -0.1713
10030TIP3    H154285   2.705   7.446   1.164 -0.4286  0.7046  0.2580
10030TIP3    H254286   2.830   7.441   1.079 -0.3205 -2.1399  0.4878
10031TIP3   OH254287   0.739   5.148   8.639  0.1149 -0.2486  0.3994
10031TIP3    H154288   0.760   5.055   8.637  0.7960 -0.1833  2.3807
10031TIP3    H254289   0.824   5.192   8.650 -0.0383  0.7327 -1.7492
10032TIP3   OH254290   5.022   4.074   9.604 -0.6630 -0.1870  0.0646
10032TIP3    H154291   5.050   3.986   9.579 -1.2598 -0.0631 -1.0870
10032TIP3    H254292   4.942   4.060   9.655  0.4538 -0.4262  1.8375
10033TIP3   OH254293   5.234   2.040   1.628  0.5740  0.3683 -0.2403
10033TIP3    H154294   5.278   2.093   1.562  0.2608  0.6330 -0.2369
10033TIP3    H254295   5.158   2.091   1.654  1.1210  0.6365  0.9019
10034TIP3   OH254296   2.865   5.608   8.615  0.2596 -0.0717  0.0862
10034TIP3    H154297   2.954   5.610   8.649  0.9590  0.5825 -1.6403
10034TIP3    H254298   2.812   5.651   8.682  1.1121 -1.0022  1.4058
10035TIP3   OH254299   0.932   2.102   7.744 -0.4418  0.2042 -0.3079
10035TIP3    H154300   0.988   2.168   7.787 -0.8628  0.8184 -0.6889
10035TIP3    H254301   0.991   2.053   7.687  0.5034 -1.7686  2.1759
10036TIP3   OH254302   3.300   7.453   0.966  0.3233  0.2645  0.2401
10036TIP3    H154303   3.382   7.489   1.000 -0.7756  2.3796  0.8534
10036TIP3    H254304   3.256   7.418   1.042  0.5961 -0.8168 -0.0808
10037TIP3   OH254305   6.401   1.640   1.846  0.2169  0.5629 -1.0677
10037TIP3    H154306   6.456   1.574   1.888 -0.1927  2.9434  3.9040
10037TIP3    H254307   6.312   1.608   1.857  0.1890 -0.0208 -2.7309
10038TIP3   OH254308   7.032   5.870   1.466  0.3634  0.1763 -0.0442
10038TIP3    H154309   7.039   5.843   1.375  0.7897  0.0387  0.0261
10038TIP3    H254310   6.983   5.952   1.464 -0.3223 -0.2340 -0.3249
10039TIP3   OH254311   2.342   1.456   3.048  0.3861  0.1810 -0.4493
10039TIP3    H154312   2.433   1.429   3.058  0.1991 -0.4630 -0.4419
10039TIP3    H254313   2.344   1.552   3.056  1.2297  0.2935 -1.7878
10040TIP3   OH254314   7.384   2.129   9.035 -0.0353  0.3746 -0.1346
10040TIP3    H154315   7.355   2.219   9.021 -1.0464  0.1465  0.4212
10040TIP3    H254316   7.339   2.079   8.967 -0.3683  0.1305  0.2611
10041TIP3   OH254317   2.631   1.984   2.432  0.2524 -0.0393 -0.4430
10041TIP3    H154318   2.684   2.044   2.485  0.5736  1.5114 -2.4035
10041TIP3    H254319   2.631   1.902   2.482 -0.2615  1.5523  2.3989
10042TIP3   OH254320   5.619   6.689   7.350 -0.3395  0.1835 -0.3698
10042TIP3    H154321   5.606   6.598   7.376 -0.6352  0.2979 -0.1117
10042TIP3    H254322   5.713   6.703   7.358 -0.5719  0.7605  2.4859
10043TIP3   OH254323   4.773   3.481   9.927 -0.3793  0.3723  0.0349
10043TIP3    H154324   4.819   3.488  10.011  0.1600 -1.2746 -0.0888
10043TIP3    H254325   4.681   3.472   9.950 -0.2474  0.0659  0.4444
10044TIP3   OH254326   1.491   1.952   0.178 -0.5783 -0.5011  0.2571
10044TIP3    H154327   1.459   2.010   0.248 -3.3240 -0.6011 -0.8007
10044TIP3    H254328   1.522   1.874   0.225  0.9939  0.8113  1.5425
10045TIP3   OH254329   5.879   0.351   8.486  0.4451 -0.1806 -0.2344
10045TIP3    H154330   5.821   0.421   8.516  0.9013 -0.1491  0.5931
10045TIP3    H254331   5.937   0.335   8.560  3.0211  1.3608 -1.7790
10046TIP3   OH254332   3.841   7.603   1.977 -0.0683  0.3005  0.2080
10046TIP3    H154333   3.871   7.688   2.009 -3.1764  0.8485  2.1158
10046TIP3    H254334   3.880   7.540   2.037  2.8766  0.1396 -1.6659
10047TIP3   OH254335   2.296   4.240   8.797 -0.4067  0.2330 -0.4237
10047TIP3    H154336   2.364   4.254   8.732  0.2357  0.0812  0.2085
10047TIP3    H254337   2.271   4.148   8.786 -1.5532  0.6512 -1.6298
10048TIP3   OH254338   7.621   0.908   7.275 -0.2621  0.3674  0.0752
10048TIP3    H154339   7.553   0.860   7.227  0.9702 -1.5511  0.1626
10048TIP3    H254340   7.670   0.955   7.207 -0.0730 -0.3289 -0.2746
10049TIP3   OH254341   6.930   1.538   2.225 -0.0894  0.4257  0.4325
10049TIP3    H154342   6.877   1.595   2.279 -0.4211 -0.2919  0.8814
10049TIP3    H254343   7.005   1.591   2.199 -0.5806  1.1711  0.5257
10050TIP3   OH254344   1.944   4.966   9.961 -0.1127  0.5396  0.2442
10050TIP3    H154345   2.001   5.010   9.898 -1.4752  2.1180  0.0397
10050TIP3    H254346   1.991   4.887   9.986  1.1723  0.6978 -1.5471
10051TIP3   OH254347   1.752   2.899   8.519 -0.6180  0.4812  0.8591
10051TIP3    H154348   1.663   2.863   8.518 -0.4512 -0.0837  2.5661
10051TIP3    H254349   1.750   2.971   8.457 -1.9926 -0.1559  0.1218
10052TIP3   OH254350   7.367   3.679   8.357  0.2190 -0.2342  0.7021
10052TIP3    H154351   7.373   3.766   8.396  1.3223 -0.3355  0.7724
10052TIP3    H254352   7.400   3.690   8.268 -0.6361 -0.3733  0.3549
10053TIP3   OH254353   3.198   1.789   8.397 -0.3587 -0.5723 -0.0255
10053TIP3    H154354   3.288   1.757   8.394  0.0033  0.3572  0.5478
10053TIP3    H254355   3.195   1.857   8.330 -0.0786  0.7340  1.2514
10054TIP3   OH254356   5.785   6.323   1.523 -0.5767 -0.9188  0.1389
10054TIP3    H154357   5.800   6.399   1.467 -1.4288 -0.8006  0.0584
10054TIP3    H254358   5.864   6.270   1.513  0.9339  0.8745  1.7385
10055TIP3   OH254359   0.830   5.456   2.364 -0.1788 -0.0379  0.3177
10055TIP3    H154360   0.760   5.520   2.376  1.2331  1.3615  1.5814
10055TIP3    H254361   0.813   5.389   2.431 -2.0376 -1.4231 -1.4430
10056TIP3   OH254362   3.735   2.616   0.708 -0.2392 -0.2191 -0.0206
10056TIP3    H154363   3.720   2.691   0.766 -1.5243 -1.0629  0.7928
10056TIP3    H254364   3.762   2.546   0.767  0.0942 -0.6272 -0.6568
10057TIP3   OH254365   0.063   5.527   2.228  0.3601 -0.2847  0.8468
10057TIP3    H154366  -0.033   5.528   2.232  0.3417 -0.0691  0.4244
10057TIP3    H254367   0.084   5.449   2.177  0.2484  1.6435 -2.3969
10058TIP3   OH254368   0.395   3.042   0.007  0.2426 -0.6283 -0.2573
10058TIP3    H154369   0.406   2.971  -0.056  1.7741  0.2139 -1.0008
10058TIP3    H254370   0.442   3.012   0.085 -1.1161 -1.4035  0.2824
10059TIP3   OH254371   6.063   6.674   0.300 -0.2549 -0.6281  0.3256
10059TIP3    H154372   6.142   6.637   0.260  0.7025  1.1788  0.4091
10059TIP3    H254373   6.065   6.643   0.391  1.6899  1.1815  1.0027
10060TIP3   OH254374   7.241   1.528   2.314 -0.0601 -0.0406  0.5554
10060TIP3    H154375   7.286   1.462   2.262 -0.6606  0.1840 -0.2704
10060TIP3    H254376   7.233   1.604   2.255 -0.6144  0.2729  1.0231
10061TIP3   OH254377   0.073   1.240   0.523 -0.4676  0.0275 -0.4277
10061TIP3    H154378   0.145   1.211   0.468 -1.0257 -1.3086 -0.5035
10061TIP3    H254379   0.055   1.330   0.495  1.8864  0.8309  0.3841
10062TIP3   OH254380   1.890   3.631   2.752  0.3045  0.0282 -0.4104
10062TIP3    H154381   1.910   3.724   2.758  1.9014 -0.1010 -2.3985
10062TIP3    H254382   1.969   3.587   2.784 -0.9050 -0.7077  1.7153
10063TIP3   OH254383   3.567   7.549   1.397  0.2081 -0.3131 -0.0411
10063TIP3    H154384   3.540   7.500   1.474 -0.0939 -2.1050 -1.2494
10063TIP3    H254385   3.653   7.585   1.421 -0.4509  0.2740  1.5761
10064TIP3   OH254386   2.777   0.691   9.694  0.3545 -0.1841 -0.4638
10064TIP3    H154387   2.692   0.717   9.657 -0.2663 -0.8311  0.4586
10064TIP3    H254388   2.775   0.723   9.784  0.7816 -0.8432 -0.2094
10065TIP3   OH254389   3.158   6.617   8.432 -0.4397 -0.3956 -0.0610
10065TIP3    H154390   3.178   6.534   8.474  0.1799  0.0244  0.4940
10065TIP3    H254391   3.170   6.600   8.338 -2.5911 -1.5409 -0.1862
10066TIP3   OH254392   5.485   0.511   9.805 -0.4727 -0.4500 -1.0243
10066TIP3    H154393   5.472   0.604   9.786 -0.7113 -0.2661 -0.0093
10066TIP3    H254394   5.487   0.469   9.718  1.2028  0.6852 -1.5709
10067TIP3   OH254395   0.335   6.545   0.234  0.2312 -0.1328 -0.3642
10067TIP3    H154396   0.372   6.475   0.287 -0.6791 -1.1437 -1.0385
10067TIP3    H254397   0.408   6.576   0.180  0.7051 -0.3404  0.1504
10068TIP3   OH254398   2.740   4.148   7.346 -0.3431 -0.6184  0.3814
10068TIP3    H154399   2.803   4.164   7.276 -0.2138 -1.6177  0.2564
10068TIP3    H254400   2.682   4.224   7.344 -0.6242 -0.8460 -1.1110
10069TIP3   OH254401   1.061   5.517   9.815  0.5490  0.6216 -0.8563
10069TIP3    H154402   0.997   5.579   9.850  0.9145  1.1347 -1.0779
10069TIP3    H254403   1.039   5.509   9.723  0.2850  0.1398 -0.7566
10070TIP3   OH254404   5.119   1.841   8.324 -0.0236  0.8335  0.2091
10070TIP3    H154405   5.204   1.814   8.358 -0.3376  0.4030  0.6699
10070TIP3    H254406   5.059   1.771   8.351 -0.2911  0.4770 -1.2281
10071TIP3   OH254407   0.253   0.827   2.875 -0.8292 -0.3892  0.0346
10071TIP3    H154408   0.243   0.802   2.967  0.0982 -0.7039  0.0583
10071TIP3    H254409   0.274   0.920   2.877 -0.4860 -0.4668  0.1697
10072TIP3   OH254410   2.030   5.009   2.217  0.0645 -0.1177 -0.5157
10072TIP3    H154411   2.108   5.002   2.273  0.8549  0.2265 -1.5401
10072TIP3    H254412   2.023   5.103   2.197  0.7735 -0.4095 -2.3009
10073TIP3   OH254413   2.096   6.008   7.362  0.1498  0.2597 -0.0895
10073TIP3    H154414   2.142   5.991   7.445 -0.7640  1.2187  0.6370
10073TIP3    H254415   2.076   5.921   7.328  2.3140 -0.1996 -0.3503
10074TIP3   OH254416   2.632   2.033   0.673 -0.2888 -0.2330  0.6140
10074TIP3    H154417   2.622   1.939   0.688 -2.9918 -0.2545 -0.7897
10074TIP3    H254418   2.707   2.040   0.614 -0.6091 -1.6106  0.0067
10075TIP3   OH254419   7.527   0.382   0.096 -0.4787  0.5462  0.0696
10075TIP3    H154420   7.555   0.374   0.187 -2.5769  1.4345  0.8594
10075TIP3    H254421   7.536   0.475   0.075  2.0641  0.0818 -1.4492
10076TIP3   OH254422   2.771   6.385   7.593  0.3846 -0.6442  0.2831
10076TIP3    H154423   2.733   6.462   7.550  1.5931 -0.3859 -0.3776
10076TIP3    H254424   2.782   6.411   7.684  1.8792  0.4365 -0.1662
10077TIP3   OH254425   5.353   6.248   8.451  0.0088  0.1673  0.3841
10077TIP3    H154426   5.372   6.239   8.357 -1.4466  1.5792 -0.0677
10077TIP3    H254427   5.400   6.327   8.477  1.7666 -1.1031  1.2756
10078TIP3   OH254428   5.384   6.798   0.200  0.3719  0.2778  0.1837
10078TIP3    H154429   5.345   6.886   0.198 -0.2119  0.0443  0.9447
10078TIP3    H254430   5.381   6.773   0.292  1.7201 -0.0317  0.1498
10079TIP3   OH254431   5.272   2.578   8.168 -0.2048  0.1014 -0.2297
10079TIP3    H154432   5.341   2.533   8.217  1.0704 -0.7516 -2.6093
10079TIP3    H254433   5.193   2.567   8.221  0.8191 -1.8419  0.9983
10080TIP3   OH254434   1.554   6.696   8.414  0.4906 -0.5479 -0.2082
10080TIP3    H154435   1.597   6.781   8.411 -0.7867  0.1144 -0.0504
10080TIP3    H254436   1.518   6.690   8.502 -0.5767 -0.6624 -0.6395
10081TIP3   OH254437   6.551   0.376   8.942  0.1004  0.1753 -0.3445
10081TIP3    H154438   6.465   0.339   8.965 -0.2378  0.5485 -0.9896
10081TIP3    H254439   6.601   0.302   8.908 -0.2802  0.1405 -0.8279
10082TIP3   OH254440   2.087   6.962   9.275  0.1539  0.0422  0.3115
10082TIP3    H154441   2.060   7.008   9.196 -0.1702 -1.2793 -0.3566
10082TIP3    H254442   2.006   6.951   9.325 -0.6366 -3.4766 -1.4657
10083TIP3   OH254443   2.336   2.845   2.102  0.3574 -0.1229 -0.1571
10083TIP3    H154444   2.391   2.768   2.088  0.6060  0.3461 -2.0384
10083TIP3    H254445   2.349   2.867   2.194  0.7047 -1.9803  0.2849
10084TIP3   OH254446   0.601   1.242   6.660  0.6971 -0.3771  0.1572
10084TIP3    H154447   0.522   1.294   6.646  1.3969  0.6068 -0.3009
10084TIP3    H254448   0.625   1.212   6.572  0.7161 -0.8679  0.3251
10085TIP3   OH254449   3.041   6.979   1.167 -0.4454 -0.4220  0.4064
10085TIP3    H154450   2.953   7.013   1.149 -0.3643 -0.3284  0.1832
10085TIP3    H254451   3.085   6.982   1.082 -0.2718 -0.6018  0.4919
10086TIP3   OH254452   3.134   6.763   7.942 -0.2359 -0.3667  0.2555
10086TIP3    H154453   3.056   6.787   7.892  0.1102 -1.2349 -0.7521
10086TIP3    H254454   3.190   6.717   7.878  1.9005  1.7598  0.4826
10087TIP3   OH254455   4.495   4.818   9.962 -0.0378 -0.2726  0.7280
10087TIP3    H154456   4.406   4.831   9.996 -0.7636 -0.6572 -0.8975
10087TIP3    H254457   4.497   4.725   9.937 -0.0230  0.2301 -1.3872
10088TIP3   OH254458   6.372   6.331   9.721  0.4114 -0.5113 -0.3495
10088TIP3    H154459   6.326   6.415   9.719  3.6746  1.4630 -0.0714
10088TIP3    H254460   6.352   6.296   9.808 -0.4266  0.3095 -0.1857
10089TIP3   OH254461   3.410   4.017   8.746  0.7078 -0.1299 -0.0498
10089TIP3    H154462   3.367   3.943   8.702  0.8382 -1.8827  2.5644
10089TIP3    H254463   3.340   4.060   8.795  0.3492  2.4562 -2.5469
10090TIP3   OH254464   1.684   1.624   9.649 -0.5957 -0.1621 -0.1800
10090TIP3    H154465   1.644   1.694   9.701 -0.5689 -1.4831  1.7298
10090TIP3    H254466   1.610   1.569   9.622 -0.4045 -0.8534  0.6465
10091TIP3   OH254467   6.249   4.080   0.300  0.1219 -0.2371  0.6262
10091TIP3    H154468   6.322   4.034   0.258 -1.2030 -1.4222 -0.4914
10091TIP3    H254469   6.271   4.173   0.293  0.8912 -0.5104 -0.9341
10092TIP3   OH254470   7.177   1.297   9.636 -0.1423  0.0215  0.0908
10092TIP3    H154471   7.204   1.206   9.618  0.1053  0.1846 -0.3802
10092TIP3    H254472   7.252   1.350   9.608 -0.6264  0.4258 -0.4685
10093TIP3   OH254473   1.535   3.173   6.937  0.2442 -0.1684 -0.6982
10093TIP3    H154474   1.444   3.175   6.905  0.2516  0.0960 -0.7029
10093TIP3    H254475   1.561   3.081   6.928 -0.2788 -0.4009  0.0086
10094TIP3   OH254476   2.372   4.456   0.978 -0.0085 -0.0035  0.2238
10094TIP3    H154477   2.393   4.521   1.045  1.7740  0.8970 -1.0914
10094TIP3    H254478   2.434   4.385   0.993  0.9516  0.5615 -0.8927
10095TIP3   OH254479   5.552   0.908   7.438 -0.4440  0.3035  0.2194
10095TIP3    H154480   5.481   0.956   7.479 -0.0094  1.6239 -0.4985
10095TIP3    H254481   5.631   0.957   7.462  0.1119 -0.5478  0.1696
10096TIP3   OH254482   3.736   4.899   7.351  0.4077  0.7828 -0.0616
10096TIP3    H154483   3.826   4.919   7.325  0.7980 -2.0499 -1.2580
10096TIP3    H254484   3.682   4.934   7.280  0.7529  0.8683 -0.2849
10097TIP3   OH254485   3.344   3.508   8.908 -0.3416 -0.5211 -0.1366
10097TIP3    H154486   3.333   3.528   9.001 -0.5317 -0.6767 -0.1269
10097TIP3    H254487   3.261   3.468   8.881  0.1065 -1.4997 -0.1112
10098TIP3   OH254488   4.631   0.688   0.041 -0.4098 -0.2243  0.0434
10098TIP3    H154489   4.640   0.780   0.066 -1.7266 -0.3877  1.2309
10098TIP3    H254490   4.568   0.652   0.103  0.9320 -2.2324  0.3502
10099TIP3   OH254491   1.523   6.890   2.113 -0.1931 -0.4400  0.6485
10099TIP3    H154492   1.439   6.931   2.092 -0.4263 -1.5635 -0.8681
10099TIP3    H254493   1.586   6.934   2.056 -0.1879 -1.1192  0.1056
10100TIP3   OH254494   0.808   4.660   9.038  0.4222 -0.3184 -0.5154
10100TIP3    H154495   0.719   4.628   9.031  0.6573 -0.7273 -1.9278
10100TIP3    H254496   0.846   4.645   8.951  1.6554  0.4571 -0.1356
10101TIP3   OH254497   2.712   0.302   6.989 -0.0902  0.2171  0.0131
10101TIP3    H154498   2.736   0.216   6.953  0.7606  0.4363  0.0187
10101TIP3    H254499   2.617   0.307   6.979 -0.0106 -0.2120 -1.1194
10102TIP3   OH254500   6.717   6.354   2.337 -0.4000 -0.2773  0.0420
10102TIP3    H154501   6.745   6.423   2.398 -0.4288 -0.4271  0.2251
10102TIP3    H254502   6.725   6.273   2.387 -0.5769 -0.3852 -0.1028
10103TIP3   OH254503   1.228   2.008   7.712  0.2028  0.4178 -0.0531
10103TIP3    H154504   1.186   1.923   7.699 -0.1001  0.8940 -2.9116
10103TIP3    H254505   1.322   1.988   7.718  0.1407 -0.1140 -0.7973
10104TIP3   OH254506   3.215   2.821   1.517 -0.1307 -0.1412  0.0149
10104TIP3    H154507   3.288   2.773   1.479 -1.7430 -1.8742 -1.0450
10104TIP3    H254508   3.226   2.911   1.485  1.4309 -0.3926 -0.2177
10105TIP3   OH254509   2.121   4.612   1.638  0.3007 -0.5131 -0.7421
10105TIP3    H154510   2.074   4.690   1.666  0.1952 -0.9384  0.3218
10105TIP3    H254511   2.127   4.620   1.543  2.6718  2.1532 -0.4992
10106TIP3   OH254512   6.873   4.670   8.949 -0.0716 -0.2580 -0.9844
10106TIP3    H154513   6.837   4.756   8.972  0.3246 -0.5325  0.8738
10106TIP3    H254514   6.955   4.690   8.903 -0.7428  0.3517 -1.9303
10107TIP3   OH254515   0.128   1.574   1.540  0.9564 -0.4153 -0.0800
10107TIP3    H154516   0.167   1.512   1.479  1.8911  1.7219 -1.7732
10107TIP3    H254517   0.193   1.643   1.549 -0.0131  0.3233  1.7885
10108TIP3   OH254518   1.853   7.036   8.951 -0.5713  0.2511 -0.1093
10108TIP3    H154519   1.874   6.964   9.011  1.6421 -0.5987 -1.7635
10108TIP3    H254520   1.800   7.096   9.004  0.0289 -1.1433  2.2406
10109TIP3   OH254521   1.348   3.192   2.513  0.4917 -0.5745 -0.2434
10109TIP3    H154522   1.344   3.244   2.433  0.0114 -1.4948 -0.8432
10109TIP3    H254523   1.437   3.204   2.546  1.0824 -1.0839 -1.5557
10110TIP3   OH254524   0.246   1.389   0.127 -0.4962 -0.3584  0.6979
10110TIP3    H154525   0.229   1.298   0.149  1.8997 -1.9348 -2.9916
10110TIP3    H254526   0.336   1.405   0.155 -0.6256  0.6327  0.6131
10111TIP3   OH254527   2.000   0.553   0.256 -0.8023 -0.3123 -0.2044
10111TIP3    H154528   2.030   0.554   0.165  1.1191  0.2999  0.4049
10111TIP3    H254529   2.071   0.512   0.305 -0.5718  1.8326  1.4122
10112TIP3   OH254530   6.556   7.575   9.353  0.3089 -0.6042  0.1872
10112TIP3    H154531   6.651   7.575   9.369  0.2101  0.0364  0.8117
10112TIP3    H254532   6.538   7.487   9.320  1.1710 -0.6344 -0.2383
10113TIP3   OH254533   4.440   3.873   9.488 -0.0197 -0.4532 -0.2049
10113TIP3    H154534   4.405   3.796   9.532 -1.0613  0.4916  0.7064
10113TIP3    H254535   4.412   3.947   9.543  0.2930  0.6345 -1.4431
10114TIP3   OH254536   5.189   2.721   8.928 -0.0218 -0.4349  0.2403
10114TIP3    H154537   5.267   2.735   8.981  1.9483 -1.8098 -2.0371
10114TIP3    H254538   5.173   2.626   8.932 -0.0327 -0.5260 -1.2593
10115TIP3   OH254539   0.067   3.761   1.701 -0.2381  0.0109  0.0269
10115TIP3    H154540  -0.009   3.815   1.723 -0.5583  0.0344 -1.0783
10115TIP3    H254541   0.125   3.820   1.652 -0.5007 -0.5694 -1.0136
10116TIP3   OH254542   1.684   7.283   2.940  0.1074 -0.5291  0.0133
10116TIP3    H154543   1.694   7.372   2.974 -0.5658 -0.0158 -1.0618
10116TIP3    H254544   1.606   7.287   2.885 -0.2356 -1.9265  0.3495
10117TIP3   OH254545   5.106   6.961   7.682 -0.1428  0.0999 -0.3593
10117TIP3    H154546   5.106   6.870   7.712 -1.8647 -0.0636 -0.7260
10117TIP3    H254547   5.097   7.013   7.761 -0.9398 -0.1569 -0.2660
10118TIP3   OH254548   0.089   4.719   1.554 -0.3365  0.2478  0.3303
10118TIP3    H154549   0.105   4.705   1.647  0.7687 -2.4416 -0.1709
10118TIP3    H254550   0.170   4.692   1.511 -0.2051  3.0280 -1.3781
10119TIP3   OH254551   3.867   0.471   8.916  0.1148  0.5511  0.6011
10119TIP3    H154552   3.800   0.449   8.851 -0.1188  1.3919  0.5489
10119TIP3    H254553   3.944   0.494   8.865  0.3616 -0.1224  0.6558
10120TIP3   OH254554   1.474   0.066   8.533 -0.7633 -0.1641 -0.0432
10120TIP3    H154555   1.549   0.126   8.542 -0.0916 -1.1432  1.2271
10120TIP3    H254556   1.460   0.060   8.438 -0.1616  1.1575 -0.2427
10121TIP3   OH254557   7.686   4.628   9.102  0.4843 -0.6590  0.2744
10121TIP3    H154558   7.614   4.611   9.163  0.0169  0.7646  0.1526
10121TIP3    H254559   7.765   4.623   9.156 -0.0516  3.4110  1.7635
10122TIP3   OH254560   5.271   2.023   8.623 -0.3979 -0.5759  0.3062
10122TIP3    H154561   5.296   2.086   8.691  0.5652 -0.6903  0.0750
10122TIP3    H254562   5.350   1.970   8.610 -0.4287 -0.2818 -1.2154
10123TIP3   OH254563   3.257   6.339   0.021  0.0690 -0.2571 -0.0590
10123TIP3    H154564   3.182   6.334  -0.038  0.0916 -0.4892 -0.0655
10123TIP3    H254565   3.302   6.420  -0.004 -1.9558  1.6690  2.0474
10124TIP3   OH254566   6.232   3.118   7.966 -0.3666 -0.5726 -0.4673
10124TIP3    H154567   6.265   3.122   8.056 -0.8193 -2.1754 -0.2126
10124TIP3    H254568   6.157   3.178   7.966 -0.1565 -0.2995  0.1172
10125TIP3   OH254569   6.478   0.259   8.566  0.0835  0.0766  0.0296
10125TIP3    H154570   6.546   0.307   8.519  1.2857 -0.9249  0.6693
10125TIP3    H254571   6.485   0.170   8.534 -1.0742 -0.0091 -0.0161
10126TIP3   OH254572   0.610   3.465   9.026  0.1178 -0.4923 -0.3953
10126TIP3    H154573   0.595   3.532   9.092  0.9850  0.7130 -1.3899
10126TIP3    H254574   0.562   3.495   8.949  0.7851 -0.8391 -0.9608
10127TIP3   OH254575   3.683   0.291   6.470  0.6564 -0.1071  0.5388
10127TIP3    H154576   3.656   0.364   6.525  0.1340  0.6644 -0.6943
10127TIP3    H254577   3.768   0.264   6.506  0.0414 -0.0376  2.0736
10128TIP3   OH254578   5.422   7.334   8.762 -0.4072  0.0724 -0.1003
10128TIP3    H154579   5.338   7.289   8.756  0.3725 -1.2828 -1.3386
10128TIP3    H254580   5.477   7.294   8.695  0.8177  1.8785 -0.2727
10129TIP3   OH254581   7.575   0.116   9.628  0.2055 -0.0615 -0.4425
10129TIP3    H154582   7.615   0.182   9.685  2.8891 -1.6810 -0.2813
10129TIP3    H254583   7.544   0.166   9.552  0.6236  1.5655  0.4170
10130TIP3   OH254584   2.543   5.344   9.133  0.3494  0.6420  0.4242
10130TIP3    H154585   2.475   5.277   9.141 -0.0171  0.7545 -1.2624
10130TIP3    H254586   2.499   5.419   9.092  1.1262  1.3037  0.7556
10131TIP3   OH254587   0.426   7.029   1.978 -0.4973  0.2728  0.1287
10131TIP3    H154588   0.367   6.954   1.964 -0.5439  0.4102 -0.4522
10131TIP3    H254589   0.514   6.991   1.972 -0.4862  0.4821 -1.6693
10132TIP3   OH254590   7.779   7.127   0.587  0.4439 -0.2400 -0.0774
10132TIP3    H154591   7.704   7.080   0.551  1.1650 -3.1570  1.8932
10132TIP3    H254592   7.741   7.199   0.637 -0.8691 -0.1693 -1.1359
10133TIP3   OH254593   7.156   1.044   9.153 -0.4962 -0.6201 -0.1748
10133TIP3    H154594   7.236   1.091   9.128 -1.5673  0.5617 -1.5900
10133TIP3    H254595   7.175   0.952   9.133 -0.2122 -0.0993 -2.6238
10134TIP3   OH254596   1.633   3.995   9.418 -0.0728 -0.5001  0.3952
10134TIP3    H154597   1.560   3.988   9.356  1.1648  0.2613 -1.2326
10134TIP3    H254598   1.616   3.927   9.483 -1.3748 -1.4258 -0.8452
10135TIP3   OH254599   4.277   3.184   0.246 -0.2413  0.6472  0.2352
10135TIP3    H154600   4.312   3.095   0.254 -0.2414  0.6324  0.0738
10135TIP3    H254601   4.337   3.238   0.298 -0.9150  0.3814  1.3223
10136TIP3   OH254602   4.212   7.404   1.406 -0.4539 -0.5889  0.1631
10136TIP3    H154603   4.226   7.476   1.344  1.6908 -0.7101  0.4215
10136TIP3    H254604   4.188   7.329   1.351 -0.4542 -0.2206 -0.3464
10137TIP3   OH254605   2.522   0.104   8.313 -0.2525  0.5280 -0.3387
10137TIP3    H154606   2.482   0.043   8.252 -0.4220 -0.4894  0.7428
10137TIP3    H254607   2.483   0.189   8.292 -0.7448  0.0861 -1.2406
10138TIP3   OH254608   7.076   7.529   0.356  0.6670  0.4897  0.1936
10138TIP3    H154609   6.981   7.534   0.370  0.5190  1.3018 -0.9916
10138TIP3    H254610   7.113   7.596   0.414  0.5695 -0.0924  0.9499
10139TIP3   OH254611   0.799   2.641   6.960  0.0805 -0.1632 -0.3628
10139TIP3    H154612   0.708   2.636   6.990  0.0344 -1.7968 -0.7060
10139TIP3    H254613   0.835   2.716   7.007 -1.5462  0.7776 -0.5365
10140TIP3   OH254614   6.373   3.353   9.684  0.0663  0.4243  0.5342
10140TIP3    H154615   6.335   3.266   9.693 -0.0748  0.5615  1.4029
10140TIP3    H254616   6.303   3.406   9.644  0.1944  0.1185 -0.1024
10141TIP3   OH254617   0.689   3.560   9.385  0.8712  0.4412 -0.3032
10141TIP3    H154618   0.640   3.490   9.427  0.0024  1.2867  0.1324
10141TIP3    H254619   0.765   3.516   9.346  0.7361 -0.6237  0.5789
10142TIP3   OH254620   5.500   3.398   9.187  0.1650 -0.5236  0.2160
10142TIP3    H154621   5.411   3.431   9.192  0.0629 -0.8265  0.4806
10142TIP3    H254622   5.527   3.388   9.279  1.0969  1.1921  0.1603
10143TIP3   OH254623   6.783   0.628   7.629 -0.1659  0.1419  0.2288
10143TIP3    H154624   6.761   0.582   7.710 -1.4634  0.8358  0.2993
10143TIP3    H254625   6.700   0.633   7.581  0.4579  0.2728 -0.8684
10144TIP3   OH254626   0.479   6.841   6.787 -0.4992 -0.5589  0.0127
10144TIP3    H154627   0.476   6.795   6.871 -0.3489 -0.7963 -0.1121
10144TIP3    H254628   0.415   6.912   6.797  0.5921  0.3665  0.8840
10145TIP3   OH254629   4.944   7.227   2.198 -0.1339 -0.1129 -0.3214
10145TIP3    H154630   4.999   7.276   2.259 -0.9666  0.8778 -0.3312
10145TIP3    H254631   4.856   7.234   2.236 -0.4699 -0.4998 -1.0160
10146TIP3   OH254632   3.037   1.187   8.787 -0.1909  0.3585  0.4390
10146TIP3    H154633   3.013   1.277   8.810  0.2862  0.0076  2.4352
10146TIP3    H254634   2.956   1.138   8.795 -0.1626  0.3602  0.7562
10147TIP3   OH254635   3.562   0.580   1.693 -0.0061 -0.1557  0.3483
10147TIP3    H154636   3.506   0.596   1.769 -0.7307  1.2196 -0.4237
10147TIP3    H254637   3.573   0.666   1.653  1.1327 -0.7078 -0.5850
10148TIP3   OH254638   7.670   6.317   0.539  0.1334 -0.6061 -0.2692
10148TIP3    H154639   7.658   6.226   0.565 -0.4791 -0.9353 -1.5694
10148TIP3    H254640   7.686   6.313   0.444 -1.2938  0.7153 -0.6107
10149TIP3   OH254641   5.063   7.572   9.381  0.1303 -0.1019 -0.3688
10149TIP3    H154642   5.143   7.624   9.374  0.3013 -0.5792 -2.4584
10149TIP3    H254643   5.063   7.517   9.303 -0.7367 -2.2985  1.1141
10150TIP3   OH254644   2.836   4.240   0.585  0.1480 -1.0953 -0.2083
10150TIP3    H154645   2.873   4.178   0.522 -1.5545 -0.8728 -1.5318
10150TIP3    H254646   2.808   4.187   0.659  2.5685 -1.3140  0.6288
10151TIP3   OH254647   3.076   4.936   8.939  0.4456  0.1044 -0.4027
10151TIP3    H154648   3.043   4.997   9.005  1.1964 -1.1200  1.1775
10151TIP3    H254649   3.155   4.978   8.905  0.8034  0.1598  0.4657
10152TIP3   OH254650   7.572   1.879   8.743 -0.4639 -0.1734  0.1664
10152TIP3    H154651   7.593   1.811   8.807 -0.1107 -1.2928 -1.1019
10152TIP3    H254652   7.504   1.841   8.688  1.9175 -0.8758 -2.5643
10153TIP3   OH254653   0.728   6.671   2.267 -0.1564 -0.3217 -0.4283
10153TIP3    H154654   0.673   6.618   2.210 -2.8565 -0.4921  2.1185
10153TIP3    H254655   0.672   6.742   2.298  1.7093  0.7922  0.6565
10154TIP3   OH254656   7.044   6.452   7.354  0.1275 -0.3646 -0.4088
10154TIP3    H154657   7.089   6.409   7.427  1.1964  0.4710 -0.5634
10154TIP3    H254658   6.955   6.468   7.387  0.1738 -1.2541  0.1977
10155TIP3   OH254659   5.870   6.415   9.712  0.2969  0.0805 -0.1871
10155TIP3    H154660   5.919   6.333   9.706  1.9775  1.0567 -0.6555
10155TIP3    H254661   5.887   6.459   9.629 -1.6520  0.3626 -0.4853
10156TIP3   OH254662   5.429   3.871   6.757  0.4807  0.3211  0.7345
10156TIP3    H154663   5.519   3.866   6.725  0.7676 -0.4665  1.6104
10156TIP3    H254664   5.416   3.790   6.806 -1.7502 -1.1609 -1.9927
10157TIP3   OH254665   5.601   7.522   2.102  0.0051  0.2988 -0.1035
10157TIP3    H154666   5.646   7.606   2.114  0.6886  0.0741 -0.9383
10157TIP3    H254667   5.582   7.519   2.008  1.5148 -1.2072 -0.3999
10158TIP3   OH254668   5.409   6.733   7.027  0.0376 -0.1512 -0.9347
10158TIP3    H154669   5.373   6.795   6.963  0.7376  0.6635 -0.5619
10158TIP3    H254670   5.470   6.786   7.080  1.0276 -1.2602 -0.9227
10159TIP3   OH254671   7.249   4.596   2.160  0.0115  0.2019  0.2444
10159TIP3    H154672   7.175   4.551   2.201  1.1720 -1.2636  0.8282
10159TIP3    H254673   7.209   4.655   2.096 -1.6425 -1.2688 -0.1575
10160TIP3   OH254674   1.509   4.489   1.717  0.2311  0.2184 -0.0483
10160TIP3    H154675   1.524   4.584   1.715  2.0718 -0.0373  0.1088
10160TIP3    H254676   1.561   4.456   1.643 -1.7016 -0.5361 -1.1422
10161TIP3   OH254677   7.560   2.069   8.457  0.1553 -0.0043  0.2309
10161TIP3    H154678   7.587   2.022   8.378 -0.8878  1.6780 -1.2033
10161TIP3    H254679   7.621   2.039   8.524  1.1155 -1.4662 -1.2041
10162TIP3   OH254680   2.842   0.817   8.997  0.1431  0.1561  0.9104
10162TIP3    H154681   2.863   0.905   9.028  0.6962  0.3075  0.1435
10162TIP3    H254682   2.755   0.800   9.031 -0.1201  1.1526  0.7701
10163TIP3   OH254683   7.319   0.049   7.752  0.1737 -0.2028 -0.0089
10163TIP3    H154684   7.269   0.034   7.833 -3.6107  2.8081 -1.4794
10163TIP3    H254685   7.380   0.119   7.774 -1.4477  1.2277  0.1784
10164TIP3   OH254686   2.104   0.289   1.581 -0.5747 -0.6628  0.1839
10164TIP3    H154687   2.029   0.307   1.638  0.2767 -1.6232  1.6847
10164TIP3    H254688   2.067   0.243   1.506 -1.5337 -0.8068  0.7279
10165TIP3   OH254689   1.159   1.975   7.007 -0.8683 -0.1220 -0.4362
10165TIP3    H154690   1.085   2.034   6.992  0.7970  1.8148 -1.6044
10165TIP3    H254691   1.199   1.964   6.921  0.3489 -0.9440  0.2022
10166TIP3   OH254692   3.981   7.529   0.640 -0.2094  0.5568 -0.2408
10166TIP3    H154693   3.926   7.496   0.568 -1.4122 -0.3134  1.0272
10166TIP3    H254694   3.945   7.615   0.660 -0.3963  0.4510 -0.1283
10167TIP3   OH254695   1.895   4.817   7.957 -0.0142  0.2657 -0.2847
10167TIP3    H154696   1.864   4.856   7.875 -0.6259  0.8526  0.2108
10167TIP3    H254697   1.816   4.805   8.009  0.3954  0.0918  0.3038
10168TIP3   OH254698   7.233   2.950   2.381 -0.2059 -0.4901  0.0675
10168TIP3    H154699   7.165   2.903   2.430 -0.7406 -0.0172 -0.2061
10168TIP3    H254700   7.294   2.881   2.354 -0.6894 -0.9577  0.1361
10169TIP3   OH254701   6.095   1.049   9.793 -0.7890 -0.7005 -0.5017
10169TIP3    H154702   6.165   1.044   9.728  0.9440  0.5966  1.1102
10169TIP3    H254703   6.129   1.000   9.868 -1.0506  0.9389  0.7408
10170TIP3   OH254704   0.003   0.096   8.907  0.1430  0.0757 -0.0676
10170TIP3    H154705  -0.035   0.064   8.825  1.0358  0.1621 -0.5265
10170TIP3    H254706   0.084   0.141   8.880  0.4860  0.0352  0.8650
10171TIP3   OH254707   5.519   6.865   8.554 -0.3756 -0.0583 -0.3612
10171TIP3    H154708   5.489   6.918   8.628  1.3602  0.1095  0.2648
10171TIP3    H254709   5.534   6.778   8.591  1.2051  0.2102 -0.3007
10172TIP3   OH254710   1.473   0.706   9.745  0.0976 -0.5178  0.4940
10172TIP3    H154711   1.463   0.631   9.686  0.3082 -1.2901  1.4228
10172TIP3    H254712   1.543   0.681   9.805  0.0818  0.3697  0.9005
10173TIP3   OH254713   1.499   3.641   1.003  0.5511  0.1790 -0.3005
10173TIP3    H154714   1.511   3.735   1.019  1.8197 -0.1345  0.7988
10173TIP3    H254715   1.584   3.611   0.972  0.1943 -0.6278 -0.5214
10174TIP3   OH254716   6.358   3.306   9.080 -0.3778 -0.5022 -0.2593
10174TIP3    H154717   6.401   3.373   9.027  2.2548 -1.2340  0.8255
10174TIP3    H254718   6.327   3.241   9.017  0.1037  0.0423 -1.0670
10175TIP3   OH254719   0.067   7.198   8.709 -0.7828  0.0917  0.2389
10175TIP3    H154720   0.127   7.151   8.767  0.5977 -0.9648 -1.9057
10175TIP3    H254721   0.111   7.280   8.688 -1.5162  0.7150  1.0418
10176TIP3   OH254722   7.309   3.317   7.404 -0.5471 -0.0832 -0.1832
10176TIP3    H154723   7.304   3.323   7.309 -1.4787  0.7460 -0.0994
10176TIP3    H254724   7.327   3.407   7.433  0.2061 -0.4045  0.4147
10177TIP3   OH254725   3.245   7.485   8.538 -0.0751 -0.3850 -0.1355
10177TIP3    H154726   3.202   7.571   8.541  0.1859 -0.2820  1.8574
10177TIP3    H254727   3.229   7.454   8.449 -2.2825  0.6658 -0.1886
10178TIP3   OH254728   3.263   7.458   2.234 -0.3751  0.1695  0.4402
10178TIP3    H154729   3.191   7.510   2.199 -1.1815  0.3612  2.2529
10178TIP3    H254730   3.336   7.519   2.241  0.7130 -0.4631 -3.2638
10179TIP3   OH254731   7.109   2.405   1.127  0.5176  0.0680  0.4484
10179TIP3    H154732   7.019   2.389   1.096  0.7033 -0.7182  0.2848
10179TIP3    H254733   7.163   2.354   1.066  1.0399  0.1955  0.8095
10180TIP3   OH254734   7.702   4.168   7.751 -0.0414 -0.4081 -0.1030
10180TIP3    H154735   7.693   4.237   7.817  0.4602 -1.8717  1.5909
10180TIP3    H254736   7.780   4.193   7.702 -0.5387  0.8264 -0.3118
10181TIP3   OH254737   2.466   4.578   1.217 -0.5162 -0.4269 -0.3511
10181TIP3    H154738   2.469   4.658   1.269  3.1407  0.8969 -2.2609
10181TIP3    H254739   2.494   4.509   1.277  0.0000  0.4058  0.3946
10182TIP3   OH254740   0.538   0.445   7.865 -0.3774  0.2150  0.1624
10182TIP3    H154741   0.474   0.482   7.925 -1.4500  0.3877 -1.0292
10182TIP3    H254742   0.615   0.427   7.919 -1.6519 -0.6610  1.7991
10183TIP3   OH254743   2.953   3.830   9.918  0.0023  0.3179 -0.3047
10183TIP3    H154744   2.906   3.865   9.842 -1.7373  0.5303  0.8061
10183TIP3    H254745   2.909   3.747   9.936 -0.8780  1.1373  1.5489
10184TIP3   OH254746   2.390   0.082   8.843  0.1558 -0.0576 -0.3870
10184TIP3    H154747   2.307   0.049   8.876  0.6231 -0.1990  0.7116
10184TIP3    H254748   2.367   0.155   8.786 -0.6483  1.5350  1.8275
10185TIP3   OH254749   6.899   3.854   7.604 -0.0971  0.5312 -0.5591
10185TIP3    H154750   6.898   3.892   7.517 -0.6248 -1.8975 -1.6768
10185TIP3    H254751   6.895   3.760   7.590 -3.3946  0.0743  2.1219
10186TIP3   OH254752   3.738   3.476   8.593 -0.0384 -0.1883 -0.1178
10186TIP3    H154753   3.684   3.472   8.514 -1.9583  2.0305  0.9847
10186TIP3    H254754   3.696   3.416   8.654  0.4851 -0.6690 -0.2248
10187TIP3   OH254755   2.086   4.293   7.307  0.4611  0.5762 -0.1380
10187TIP3    H154756   2.050   4.378   7.332  0.5428  0.5108  0.1957
10187TIP3    H254757   2.162   4.281   7.363 -0.2703 -0.2813  0.6955
10188TIP3   OH254758   4.484   7.551   9.078  0.1541  0.0826  0.1833
10188TIP3    H154759   4.529   7.513   9.154 -1.1722 -1.0761  0.4326
10188TIP3    H254760   4.409   7.597   9.115 -0.3231 -0.2140 -0.3919
10189TIP3   OH254761   3.436   3.700   0.633  0.2686 -0.3780  0.2720
10189TIP3    H154762   3.495   3.774   0.639 -0.4973  0.3528 -0.8621
10189TIP3    H254763   3.359   3.734   0.588  0.7651 -2.3410 -2.3087
10190TIP3   OH254764   5.381   3.565   9.421  0.0999  0.5602 -0.0402
10190TIP3    H154765   5.391   3.615   9.339  2.6409  1.0613  0.5164
10190TIP3    H254766   5.395   3.630   9.490  0.0537 -0.2822  0.7705
10191TIP3   OH254767   6.138   1.799   7.275  0.2762  0.4501 -0.6440
10191TIP3    H154768   6.202   1.823   7.208 -0.0533  0.9492 -0.7842
10191TIP3    H254769   6.132   1.704   7.269 -0.2115  0.5362 -1.7530
10192TIP3   OH254770   4.750   2.292   9.154 -0.2143 -0.4069 -0.0733
10192TIP3    H154771   4.656   2.293   9.172  0.1630  0.2561  2.0890
10192TIP3    H254772   4.763   2.212   9.103 -1.7086 -1.5376  1.2105
10193TIP3   OH254773   7.332   3.386   0.744 -0.1182  0.4951  0.2302
10193TIP3    H154774   7.362   3.459   0.691 -1.7295  0.1026 -1.3074
10193TIP3    H254775   7.242   3.408   0.768 -0.5936 -0.8795 -0.1511
10194TIP3   OH254776   0.720   6.492   1.770 -0.5533  0.0745 -0.3288
10194TIP3    H154777   0.751   6.536   1.691  1.9731  0.0870  0.5677
10194TIP3    H254778   0.743   6.400   1.758  1.7374  0.3701  1.1239
10195TIP3   OH254779   4.795   5.485   7.869 -0.3810 -0.5489 -0.0463
10195TIP3    H154780   4.848   5.454   7.797  1.1042 -1.0786  1.2214
10195TIP3    H254781   4.723   5.422   7.876  0.0855 -1.1127 -0.3516
10196TIP3   OH254782   1.514   1.461   0.468  0.2834  0.0636  0.1257
10196TIP3    H154783   1.477   1.545   0.440  0.8843  0.2887  0.0060
10196TIP3    H254784   1.441   1.416   0.512 -0.4508  0.0505 -1.0626
10197TIP3   OH254785   7.276   6.588   7.977  0.0707 -0.0566  0.0387
10197TIP3    H154786   7.207   6.562   8.038 -0.0366  0.0087 -0.0564
10197TIP3    H254787   7.357   6.580   8.029  0.3101 -2.7138 -0.5922
10198TIP3   OH254788   3.215   4.287   6.920 -0.4521  0.6497  0.0603
10198TIP3    H154789   3.172   4.220   6.866 -0.1182  0.4442  0.0380
10198TIP3    H254790   3.257   4.237   6.990 -0.5064  0.8730  0.2492
10199TIP3   OH254791   5.333   7.056   0.142  0.0796 -0.5760 -0.2389
10199TIP3    H154792   5.345   7.140   0.186  2.4118 -0.5934 -0.7131
10199TIP3    H254793   5.246   7.061   0.103 -0.6509  0.7926  1.4487
10200TIP3   OH254794   6.532   1.240   9.782 -0.0990  0.4571 -0.1095
10200TIP3    H154795   6.514   1.333   9.771 -0.6003  0.1531 -2.1272
10200TIP3    H254796   6.499   1.220   9.870 -1.3941  1.8485 -0.2387
10201TIP3   OH254797   2.721   0.800   2.640 -0.4179 -0.2309  0.6359
10201TIP3    H154798   2.800   0.836   2.600 -1.1996 -2.2348 -3.1953
10201TIP3    H254799   2.753   0.732   2.699  0.7367  1.2968  1.8569
10202TIP3   OH254800   2.282   4.756   7.611 -0.3620 -0.4054  0.6430
10202TIP3    H154801   2.279   4.850   7.627  0.4439 -0.2570 -0.0134
10202TIP3    H254802   2.202   4.722   7.650 -2.1648  0.9256 -1.6505
10203TIP3   OH254803   0.293   1.239   2.715 -0.2086 -0.2583 -0.2780
10203TIP3    H154804   0.295   1.164   2.773 -0.8832 -0.5398 -0.6024
10203TIP3    H254805   0.253   1.206   2.634 -0.9757  0.5523 -0.2525
10204TIP3   OH254806   2.496   0.815   2.090  0.1731  0.0990  0.3828
10204TIP3    H154807   2.510   0.853   2.003 -0.1778 -0.8150 -0.0931
10204TIP3    H254808   2.494   0.890   2.149 -0.4858  0.8214 -0.5166
10205TIP3   OH254809   4.344   4.563   9.260 -0.3732 -0.2634 -0.5039
10205TIP3    H154810   4.431   4.599   9.273 -0.3440 -0.2500 -0.7287
10205TIP3    H254811   4.354   4.469   9.276 -0.7450 -0.0033  1.4808
10206TIP3   OH254812   4.451   2.448   0.939 -0.0724  0.0999 -0.2524
10206TIP3    H154813   4.517   2.381   0.960 -1.0885 -1.2184 -1.1209
10206TIP3    H254814   4.462   2.463   0.845 -1.8773 -1.1587 -0.7094
10207TIP3   OH254815   7.499   5.317   9.860 -0.4258 -0.3047  0.4639
10207TIP3    H154816   7.467   5.281   9.942 -2.1583  0.7046  0.2806
10207TIP3    H254817   7.471   5.408   9.861  1.1947  0.2454 -0.4197
10208TIP3   OH254818   5.917   5.965   8.171 -0.9229 -0.6026  0.3536
10208TIP3    H154819   5.833   6.010   8.169  0.2834  1.8302 -1.6858
10208TIP3    H254820   5.937   5.947   8.078  1.9131  1.3045  0.4616
10209TIP3   OH254821   6.526   0.810   8.846 -0.1107  0.2632  0.2973
10209TIP3    H154822   6.478   0.727   8.850 -0.0471  0.2641  3.2552
10209TIP3    H254823   6.463   0.875   8.878  1.2243  0.5322  2.5778
10210TIP3   OH254824   3.144   0.889   7.843  0.9118  0.1850  0.2289
10210TIP3    H154825   3.122   0.830   7.915  0.8556  1.3521  1.1960
10210TIP3    H254826   3.074   0.875   7.780 -0.8772  1.4521  1.8208
10211TIP3   OH254827   0.965   0.491   9.317 -0.2627  0.4965 -0.2029
10211TIP3    H154828   0.970   0.443   9.400 -1.6034  0.2894 -0.2233
10211TIP3    H254829   1.003   0.577   9.336  0.7551 -0.0343  0.2346
10212TIP3   OH254830   6.437   2.719   8.386  0.0629 -0.0482  0.1692
10212TIP3    H154831   6.478   2.799   8.418  0.2542  0.0776 -0.3809
10212TIP3    H254832   6.446   2.723   8.290  0.8218 -1.1152  0.1727
10213TIP3   OH254833   0.226   6.671   9.550  0.2075  0.1636 -0.5328
10213TIP3    H154834   0.246   6.577   9.548  1.6773  0.4745 -2.2431
10213TIP3    H254835   0.138   6.675   9.587 -1.4792 -2.2073 -3.7454
10214TIP3   OH254836   5.932   5.437   7.609 -0.0252  0.6089  0.6907
10214TIP3    H154837   5.848   5.481   7.622  0.2807  1.6079 -0.5019
10214TIP3    H254838   5.996   5.508   7.604  0.2431  0.2857 -3.2234
10215TIP3   OH254839   5.071   6.543   6.878  0.2817 -0.3412 -0.0413
10215TIP3    H154840   4.992   6.595   6.884  0.0518 -0.6686 -0.2054
10215TIP3    H254841   5.093   6.542   6.785  0.3424 -0.4536 -0.0267
10216TIP3   OH254842   1.033   1.454   8.583  0.3071 -0.2953 -0.6838
10216TIP3    H154843   1.126   1.447   8.560  0.4670 -0.5482 -0.0158
10216TIP3    H254844   0.988   1.398   8.520  0.6575 -0.5032 -0.7538
10217TIP3   OH254845   3.062   3.518   1.319  0.1241  0.2547  0.4748
10217TIP3    H154846   2.968   3.536   1.327 -0.0732 -0.9794  1.1828
10217TIP3    H254847   3.088   3.562   1.238 -1.4709 -0.9128 -0.7524
10218TIP3   OH254848   4.857   1.048   0.074  0.5121  0.9750 -0.3432
10218TIP3    H154849   4.772   1.004   0.079  0.7428  0.6284  1.1980
10218TIP3    H254850   4.845   1.128   0.124  1.2959  0.5300  0.5946
10219TIP3   OH254851   3.088   4.239   9.940 -0.1456 -0.9058  0.7691
10219TIP3    H154852   3.127   4.238  10.027  0.6465 -1.4614  0.4216
10219TIP3    H254853   3.162   4.227   9.880 -0.3445  1.6462 -0.1221
10220TIP3   OH254854   5.343   6.089   9.221  0.4687  0.2533  0.3144
10220TIP3    H154855   5.249   6.106   9.213  0.5091  0.2829 -0.1317
10220TIP3    H254856   5.367   6.049   9.137  0.3481 -2.1283  1.3378
10221TIP3   OH254857   6.172   6.663   0.564  0.4415 -0.1605  0.2512
10221TIP3    H154858   6.190   6.596   0.630  1.4253  0.3555  0.5245
10221TIP3    H254859   6.258   6.696   0.540  0.0174  0.3806 -0.5410
10222TIP3   OH254860   3.833   3.760   0.583 -0.5267  0.5155 -0.2071
10222TIP3    H154861   3.833   3.738   0.490 -0.9895 -0.6964  0.0588
10222TIP3    H254862   3.746   3.795   0.599  0.3932  3.3169 -0.7558
10223TIP3   OH254863   7.053   7.129   7.048 -0.4714 -0.4034  0.8791
10223TIP3    H154864   7.092   7.062   7.104 -1.3688 -1.3492  0.3986
10223TIP3    H254865   6.983   7.084   7.002  1.8837 -0.4529 -3.1165
10224TIP3   OH254866   4.954   4.620   8.728  0.2865  0.1600  0.1083
10224TIP3    H154867   4.941   4.709   8.760 -0.2253  0.2861 -0.4284
10224TIP3    H254868   4.945   4.564   8.805 -1.5348  0.4046  0.1028
10225TIP3   OH254869   2.905   5.091   8.585  0.8728  0.2384  0.0758
10225TIP3    H154870   2.897   5.148   8.662 -0.7211 -0.3221  0.3613
10225TIP3    H254871   2.957   5.017   8.615  0.2584  0.0232  0.6381
10226TIP3   OH254872   0.406   1.974   7.812 -0.0636 -0.0876  0.3545
10226TIP3    H154873   0.437   1.974   7.722 -2.0996 -0.3919 -0.4032
10226TIP3    H254874   0.321   2.018   7.808  0.5330  1.3911  2.4348
10227TIP3   OH254875   6.179   6.795   8.937  0.3088  0.1709 -0.4864
10227TIP3    H154876   6.168   6.881   8.976 -1.2217 -0.2896  0.1984
10227TIP3    H254877   6.242   6.750   8.993 -0.8812 -0.0286  0.7401
10228TIP3   OH254878   3.346   3.078   1.419 -0.1561 -0.3568  0.1153
10228TIP3    H154879   3.279   3.147   1.426 -0.9268 -1.1395  0.7463
10228TIP3    H254880   3.429   3.124   1.431 -0.5794  0.6182 -0.5429
10229TIP3   OH254881   6.281   4.601   7.836 -0.4425  0.0312 -0.3885
10229TIP3    H154882   6.288   4.693   7.858  0.9006  0.5071 -2.5091
10229TIP3    H254883   6.359   4.560   7.873 -1.9479 -0.7187  2.2107
10230TIP3   OH254884   1.589   1.035   9.832 -0.3048  0.0711  0.7342
10230TIP3    H154885   1.582   1.126   9.860 -1.4340  0.5532 -0.9468
10230TIP3    H254886   1.513   0.992   9.872 -0.1557  0.0313  0.9723
10231TIP3   OH254887   0.747   1.704   1.715 -0.5640 -0.0380 -0.6242
10231TIP3    H154888   0.698   1.666   1.642  0.0345 -0.1818 -0.9488
10231TIP3    H254889   0.794   1.778   1.678  1.5451 -1.4519 -0.9114
10232TIP3   OH254890   5.747   7.733   0.679  0.2729  0.3071 -0.2646
10232TIP3    H154891   5.741   7.663   0.615  0.3974  0.3703 -0.3457
10232TIP3    H254892   5.836   7.728   0.712 -0.0555 -0.2942  0.5521
10233TIP3   OH254893   7.470   5.128   0.571 -0.2491  0.4839 -0.0119
10233TIP3    H154894   7.523   5.094   0.644  1.9678  0.8337 -1.3669
10233TIP3    H254895   7.382   5.138   0.608 -0.3370 -3.5801  1.3997
10234TIP3   OH254896   2.211   2.085   1.815  0.4386 -0.4525 -0.4918
10234TIP3    H154897   2.273   2.015   1.796 -1.1218 -2.2283  0.6488
10234TIP3    H254898   2.251   2.134   1.887  0.8280 -1.1698 -0.2074
10235TIP3   OH254899   5.815   2.641   9.800 -0.0026  0.7246  0.0100
10235TIP3    H154900   5.744   2.604   9.747  1.6096 -0.3108 -1.5526
10235TIP3    H254901   5.774   2.712   9.850 -2.2241 -0.1824 -0.4131
10236TIP3   OH254902   7.466   1.784   0.681 -0.3307 -0.3790  0.2893
10236TIP3    H154903   7.432   1.707   0.636 -3.2438 -0.3154  2.1255
10236TIP3    H254904   7.433   1.858   0.629  0.5833 -0.3255 -0.2312
10237TIP3   OH254905   2.786   2.292   0.715  0.2996 -0.2008  0.0553
10237TIP3    H154906   2.697   2.272   0.687 -0.1574  0.5818  0.8906
10237TIP3    H254907   2.781   2.297   0.810  1.4037 -0.9094  0.1689
10238TIP3   OH254908   5.578   1.921   9.692  0.2548  0.3229  0.2624
10238TIP3    H154909   5.641   1.912   9.620 -0.8914 -1.9304 -0.5656
10238TIP3    H254910   5.621   1.877   9.766  0.3519  0.2809  0.1829
10239TIP3   OH254911   6.217   2.004   8.467  0.1139  0.4232 -0.3376
10239TIP3    H154912   6.238   1.927   8.520  0.1037  0.2466 -0.5877
10239TIP3    H254913   6.163   1.970   8.395  0.8701  0.5099 -0.9636
10240TIP3   OH254914   4.251   1.070   7.826  0.1130  0.5348 -0.7362
10240TIP3    H154915   4.256   1.163   7.804  1.4521  1.3342  2.4204
10240TIP3    H254916   4.342   1.041   7.828 -0.1925 -0.4289 -0.0634
10241TIP3   OH254917   2.292   6.842   8.671 -0.2079 -0.4567  0.3106
10241TIP3    H154918   2.372   6.796   8.648 -0.8847 -1.8294  0.5625
10241TIP3    H254919   2.230   6.817   8.602 -0.1792  1.3775 -0.4440
10242TIP3   OH254920   5.431   5.200   9.402  0.4555 -0.2057 -0.4673
10242TIP3    H154921   5.394   5.254   9.333  0.6498 -0.5684 -0.8601
10242TIP3    H254922   5.356   5.167   9.451  0.3008 -0.1963 -0.6975
10243TIP3   OH254923   0.699   2.298   8.501 -0.6760  0.3889  0.3731
10243TIP3    H154924   0.664   2.350   8.429 -1.9441 -1.0977 -0.1273
10243TIP3    H254925   0.742   2.224   8.459 -1.1080 -0.2993  1.1177
10244TIP3   OH254926   3.325   1.422   0.361 -0.1057  0.0941 -0.3535
10244TIP3    H154927   3.324   1.454   0.271  2.3269 -2.5474 -1.4935
10244TIP3    H254928   3.348   1.498   0.414 -0.3006  1.4392 -2.1227
10245TIP3   OH254929   0.670   4.514   1.995  0.0158  0.0901 -0.0146
10245TIP3    H154930   0.733   4.562   1.941  1.7093 -1.4712  0.4568
10245TIP3    H254931   0.660   4.430   1.950  0.5131 -0.7651  1.4204
10246TIP3   OH254932   3.179   2.418   0.853  0.1059 -0.0972 -0.1196
10246TIP3    H154933   3.171   2.333   0.809  2.0053 -0.1096 -0.5418
10246TIP3    H254934   3.178   2.397   0.946  1.8286 -0.7938 -0.2128
10247TIP3   OH254935   5.737   4.070   9.117 -0.3350 -0.0441 -0.0568
10247TIP3    H154936   5.672   4.000   9.104  0.0286 -0.3808 -0.0876
10247TIP3    H254937   5.808   4.048   9.057  0.7161 -0.8180  1.3982
10248TIP3   OH254938   1.045   3.332   1.823 -0.2864  0.5421 -0.4911
10248TIP3    H154939   1.012   3.293   1.742  0.7884 -0.3718 -0.5092
10248TIP3    H254940   1.031   3.265   1.890 -0.9399  1.1963  0.0401
10249TIP3   OH254941   6.674   0.380   9.850  0.3823 -0.4391  0.0957
10249TIP3    H154942   6.581   0.399   9.835  0.3101 -0.6886  0.2320
10249TIP3    H254943   6.718   0.416   9.772  0.1530 -0.4905 -0.0587
10250TIP3   OH254944   6.217   1.720   9.640 -0.3678  0.0361 -0.0732
10250TIP3    H154945   6.201   1.710   9.547 -0.2245 -1.6651  0.0395
10250TIP3    H254946   6.309   1.696   9.651 -0.7756 -1.3100  0.6732
10251TIP3   OH254947   5.567   6.870   9.545  0.1603 -0.1797  0.2581
10251TIP3    H154948   5.472   6.865   9.547  0.0799  0.5964 -0.8032
10251TIP3    H254949   5.586   6.964   9.552  0.7201 -0.0405 -2.2266
10252TIP3   OH254950   1.390   3.141  10.018 -0.6214 -0.5966  0.1433
10252TIP3    H154951   1.349   3.107   9.938  0.8202 -0.2043 -0.7928
10252TIP3    H254952   1.438   3.218   9.990  0.3308 -0.7357  1.2997
10253TIP3   OH254953   1.178   0.382   1.252  0.1686  0.0676  0.7155
10253TIP3    H154954   1.247   0.426   1.303  0.2435 -0.7534  1.3657
10253TIP3    H254955   1.166   0.437   1.175  2.8904 -0.6908 -0.3879
10254TIP3   OH254956   0.539   1.144   8.832  0.1975  0.2736  0.0051
10254TIP3    H154957   0.509   1.060   8.866  0.9405  0.0806  0.2112
10254TIP3    H254958   0.501   1.209   8.891 -0.4818  0.0884 -0.2307
10255TIP3   OH254959   6.826   1.200   1.073  0.4089  0.3712 -0.0911
10255TIP3    H154960   6.763   1.238   1.012  0.7803 -0.3511 -0.9511
10255TIP3    H254961   6.773   1.164   1.144 -0.2158 -0.7708 -1.1025
10256TIP3   OH254962   7.033   6.234   8.815  0.4569 -0.3933 -0.2543
10256TIP3    H154963   7.106   6.194   8.862  1.2091  2.2183  1.0190
10256TIP3    H254964   7.066   6.320   8.788 -1.4362 -0.0373 -1.6647
10257TIP3   OH254965   2.209   0.344   0.954  0.0646 -0.3017 -0.1582
10257TIP3    H154966   2.218   0.433   0.987  1.7024 -0.9287  1.1975
10257TIP3    H254967   2.117   0.338   0.926 -0.0620  1.7884 -0.3071
10258TIP3   OH254968   3.386   1.243   1.406  0.1029 -0.0664  0.2742
10258TIP3    H154969   3.389   1.321   1.461 -1.0171 -0.4215  0.8511
10258TIP3    H254970   3.466   1.249   1.353 -0.0160  1.5257  0.2181
10259TIP3   OH254971   4.068   5.587   8.366 -0.1180 -0.6895  0.1463
10259TIP3    H154972   4.006   5.540   8.423 -0.5790 -0.1613  0.0851
10259TIP3    H254973   4.150   5.540   8.378 -0.3738 -1.0132  0.7192
10260TIP3   OH254974   4.991   6.854   9.288  0.0766 -0.0902 -0.0044
10260TIP3    H154975   5.085   6.848   9.305  0.1314  0.8302  0.0564
10260TIP3    H254976   4.951   6.827   9.371  0.3073  0.7096  0.3788
10261TIP3   OH254977   7.199   0.790   0.285  0.2952  0.1153 -0.1778
10261TIP3    H154978   7.181   0.842   0.363  1.5039  2.5571 -1.4370
10261TIP3    H254979   7.141   0.826   0.218  0.2740 -1.0158 -0.8044
10262TIP3   OH254980   4.915   3.078   9.788  0.1656  0.1762  0.3112
10262TIP3    H154981   5.004   3.072   9.754  0.1044 -0.6860  0.2706
10262TIP3    H254982   4.863   3.109   9.713  0.1077 -1.2763 -0.2876
10263TIP3   OH254983   6.440   6.707   9.550  0.1058  0.4245  0.5245
10263TIP3    H154984   6.351   6.671   9.551 -0.4821  1.8479  0.9756
10263TIP3    H254985   6.473   6.691   9.638 -0.5852  1.9806  1.0896
10264TIP3   OH254986   4.661   1.364   1.080  0.0140 -0.3534  0.2217
10264TIP3    H154987   4.625   1.413   1.154  0.6354  1.6236 -0.7137
10264TIP3    H254988   4.586   1.319   1.042 -1.2069  2.0640 -0.4639
10265TIP3   OH254989   4.750   0.898   2.541 -0.5680 -0.2630 -0.1479
10265TIP3    H154990   4.784   0.987   2.549 -1.5054  0.2622 -1.4813
10265TIP3    H254991   4.657   0.906   2.563 -0.7569 -0.8187 -0.7007
10266TIP3   OH254992   7.111   2.812   2.067 -0.4861 -0.4404 -0.0084
10266TIP3    H154993   7.146   2.785   2.152  1.5898  1.4496 -0.1761
10266TIP3    H254994   7.188   2.841   2.017 -1.9020  0.5355 -1.7528
10267TIP3   OH254995   5.897   7.069   2.375 -0.2744  0.3009  0.0267
10267TIP3    H154996   5.820   7.027   2.412 -1.4450  1.7393 -0.6580
10267TIP3    H254997   5.877   7.163   2.379  1.2813  0.6884 -0.5199
10268TIP3   OH254998   2.045   3.402   0.648  0.7840 -0.2248 -0.2040
10268TIP3    H154999   1.998   3.459   0.588  0.6908 -0.4460 -0.3420
10268TIP3    H255000   2.020   3.313   0.623  0.4737 -0.3084  0.3806
10269TIP3   OH255001   4.355   4.158   8.750 -0.1406 -0.1186 -0.4123
10269TIP3    H155002   4.443   4.147   8.786 -0.7657 -0.0090  1.1992
10269TIP3    H255003   4.346   4.086   8.687  0.6713 -0.8386  0.2700
10270TIP3   OH255004   4.105   6.963  -0.015  0.3455 -0.2473 -1.0487
10270TIP3    H155005   4.047   6.948   0.060  1.3667 -1.4462 -0.4703
10270TIP3    H255006   4.056   6.932  -0.091 -0.3739  0.2137 -0.7846
10271TIP3   OH255007   2.416   1.975   1.000  0.3100 -0.0886 -0.9198
10271TIP3    H155008   2.468   1.914   1.052 -1.9823 -1.1030  0.3498
10271TIP3    H255009   2.392   1.926   0.922  0.5539  0.0845 -1.1051
10272TIP3   OH255010   6.288   2.966   8.201 -0.3500  0.1946 -0.5109
10272TIP3    H155011   6.213   2.906   8.200  0.2519 -0.7533  2.1448
10272TIP3    H255012   6.362   2.912   8.175 -0.1582  0.3942 -0.3797
10273TIP3   OH255013   4.561   1.277   7.366  0.1143  0.3402 -0.1974
10273TIP3    H155014   4.554   1.357   7.313  3.1239 -0.0450 -1.3608
10273TIP3    H255015   4.606   1.214   7.309 -0.3216 -1.5172  1.4087
10274TIP3   OH255016   6.210   5.309   8.226  0.0391  0.6241 -0.2967
10274TIP3    H155017   6.249   5.223   8.213 -0.4852  0.2515  0.5178
10274TIP3    H255018   6.182   5.336   8.138  0.2372 -0.0204 -0.5668
10275TIP3   OH255019   5.353   3.132   7.094 -0.2446 -0.7473 -0.2898
10275TIP3    H155020   5.267   3.119   7.133 -0.0558  0.2746  0.5055
10275TIP3    H255021   5.346   3.216   7.047  0.6683  0.0233  0.8837
10276TIP3   OH255022   7.189   4.687   9.314 -0.6594  0.6029  0.0531
10276TIP3    H155023   7.128   4.748   9.274 -0.3293  0.9585  0.0875
10276TIP3    H255024   7.167   4.602   9.276 -0.1061  0.9874 -1.1608
10277TIP3   OH255025   2.431   6.808   9.443  0.8878  0.4417  0.1182
10277TIP3    H155026   2.481   6.730   9.468 -1.1934 -0.8938  0.4161
10277TIP3    H255027   2.422   6.801   9.348 -1.1738 -1.0229  0.3298
10278TIP3   OH255028   5.604   2.212   9.715 -0.3776  0.2024  0.0472
10278TIP3    H155029   5.549   2.143   9.680 -2.8281  2.3632 -0.7048
10278TIP3    H255030   5.552   2.252   9.785  0.6567  1.6950  0.0217
10279TIP3   OH255031   3.085   3.846   0.979  0.0515  0.3897 -0.0281
10279TIP3    H155032   3.125   3.829   0.894 -0.1650 -1.5915  0.2076
10279TIP3    H255033   3.108   3.936   0.999  2.4972  0.0411 -0.9027
10280TIP3   OH255034   0.340   7.201   1.745 -0.3424 -0.7205  0.0023
10280TIP3    H155035   0.382   7.216   1.660 -0.5418 -0.0357  0.0142
10280TIP3    H255036   0.401   7.144   1.792 -0.4681 -1.5189 -0.7820
10281TIP3   OH255037   1.898   4.070   7.620 -0.1601 -0.3204 -0.0013
10281TIP3    H155038   1.901   3.975   7.621  0.0632 -0.3168 -0.1120
10281TIP3    H255039   1.823   4.093   7.674  0.9954 -0.5070  1.7837
10282TIP3   OH255040   5.735   3.159   7.825 -0.2320  0.0557 -0.1912
10282TIP3    H155041   5.760   3.068   7.836 -2.3792 -0.2926  2.8793
10282TIP3    H255042   5.640   3.157   7.810 -0.4621  1.7882  0.7397
10283TIP3   OH255043   1.585   2.500   1.552 -0.0999 -0.0306 -0.6141
10283TIP3    H155044   1.506   2.542   1.516  0.2970  1.1814 -0.1274
10283TIP3    H255045   1.565   2.407   1.550 -1.6263  0.2583 -0.3189
10284TIP3   OH255046   0.123   4.183   7.453 -0.1896  0.1760 -0.0441
10284TIP3    H155047   0.090   4.269   7.425  0.3233  0.0081 -1.2280
10284TIP3    H255048   0.046   4.127   7.451  0.0344 -0.1872 -2.6940
10285TIP3   OH255049   6.758   7.534   1.244 -0.3730 -0.2683  0.0701
10285TIP3    H155050   6.839   7.504   1.201 -0.2644 -2.1380  1.4409
10285TIP3    H255051   6.688   7.505   1.185 -0.1139 -0.5684 -0.0957
10286TIP3   OH255052   6.285   7.419   7.640  0.5242 -0.2397 -0.0101
10286TIP3    H155053   6.287   7.512   7.659  0.3786 -0.7533  3.0368
10286TIP3    H255054   6.220   7.383   7.700 -0.5793 -2.1524 -2.1663
10287TIP3   OH255055   1.694   6.013   9.155  0.3020  0.1879  0.6444
10287TIP3    H155056   1.641   5.935   9.172  0.2250  0.5334  2.0798
10287TIP3    H255057   1.630   6.080   9.132  0.2631  0.1792  0.7287
10288TIP3   OH255058   5.230   1.381   8.629 -0.2482  0.0030 -0.5203
10288TIP3    H155059   5.143   1.411   8.601 -1.1861 -1.5929  0.5380
10288TIP3    H255060   5.231   1.396   8.723  1.9845  3.1336 -0.8838
10289TIP3   OH255061   1.614   3.323   7.149 -0.5311  0.4301  0.0477
10289TIP3    H155062   1.663   3.377   7.087 -2.4336  2.1803 -0.0413
10289TIP3    H255063   1.590   3.245   7.100  3.8608 -1.6727  0.6996
10290TIP3   OH255064   5.388   1.613   2.403 -0.0383  0.8546 -0.4297
10290TIP3    H155065   5.420   1.698   2.432  1.4058  0.0270  0.4953
10290TIP3    H255066   5.444   1.549   2.447 -1.1118 -0.5919 -1.0671
10291TIP3   OH255067   1.475   4.590   0.126  0.0278  0.6426  0.2603
10291TIP3    H155068   1.562   4.564   0.154  0.3193 -0.0860 -1.2433
10291TIP3    H255069   1.482   4.684   0.108  0.5945  0.5237 -0.1579
10292TIP3   OH255070   1.727   4.549   6.843  0.0130 -0.1531 -0.0987
10292TIP3    H155071   1.727   4.513   6.755 -1.1496 -0.2600 -0.0716
10292TIP3    H255072   1.700   4.476   6.899 -1.8188  0.5672  0.0203
10293TIP3   OH255073   5.904   0.814   8.974  0.2149 -0.7801 -0.6942
10293TIP3    H155074   5.910   0.865   9.055 -0.3789 -1.5404 -0.1469
10293TIP3    H255075   5.994   0.800   8.947  0.4000 -0.0259 -0.4826
10294TIP3   OH255076   7.525   0.437   9.698  0.1845 -0.4605 -0.3142
10294TIP3    H155077   7.581   0.367   9.732  2.1184  0.9910 -0.3109
10294TIP3    H255078   7.563   0.459   9.613  0.8611  1.8384  0.5031
10295TIP3   OH255079   6.560   4.354   9.813  0.1261  0.3385  0.1832
10295TIP3    H155080   6.573   4.259   9.809 -0.2039  0.2555  0.9923
10295TIP3    H255081   6.493   4.371   9.747 -1.9546 -0.4009  1.9749
10296TIP3   OH255082   0.890   7.604   8.082 -0.2289 -0.1715 -0.0077
10296TIP3    H155083   0.866   7.514   8.104  0.4572 -0.4503 -0.3644
10296TIP3    H255084   0.959   7.595   8.016 -1.4203  0.6142 -1.4364
10297TIP3   OH255085   6.910   3.693   7.359  0.1638  0.3645 -0.4591
10297TIP3    H155086   6.986   3.647   7.394  0.2590  0.4478 -0.5570
10297TIP3    H255087   6.880   3.637   7.286  0.4896  0.6311 -0.8029
10298TIP3   OH255088   5.822   2.678   1.531 -0.0432 -0.1623  0.9948
10298TIP3    H155089   5.910   2.690   1.565 -0.0674 -1.0661  1.4118
10298TIP3    H255090   5.770   2.745   1.575  0.4381  0.4145  0.6994
10299TIP3   OH255091   2.817   5.863   0.704 -0.1215 -0.5785 -0.0251
10299TIP3    H155092   2.841   5.779   0.743 -0.4500 -0.2631  0.8748
10299TIP3    H255093   2.774   5.911   0.775  0.6276  0.5944 -0.3480
10300TIP3   OH255094   0.348   2.267   1.539 -0.0692 -0.1064 -0.7244
10300TIP3    H155095   0.400   2.189   1.518 -0.7693 -0.3399 -1.6199
10300TIP3    H255096   0.395   2.307   1.612  2.5365  0.7655 -2.7229
10301TIP3   OH255097   7.592   2.636   1.242  0.4631 -0.3545  0.1171
10301TIP3    H155098   7.498   2.655   1.235  0.4979 -0.0469  0.4258
10301TIP3    H255099   7.601   2.546   1.210 -0.5010 -1.7822  3.3535
10302TIP3   OH255100   1.398   6.428   0.757  0.0480  0.3268  0.0835
10302TIP3    H155101   1.358   6.414   0.671  1.6124  0.8756 -0.7670
10302TIP3    H255102   1.490   6.407   0.744  0.0132 -1.4097  2.1214
10303TIP3   OH255103   6.876   1.739   9.682  0.0386  0.1655 -0.0734
10303TIP3    H155104   6.852   1.829   9.702  0.7226  0.2382  0.4240
10303TIP3    H255105   6.908   1.703   9.764  1.0712 -0.1075 -0.5742
10304TIP3   OH255106   4.015   5.084   9.529  0.4198 -0.4085 -0.5112
10304TIP3    H155107   4.088   5.026   9.507  0.8858 -0.5451  1.3032
10304TIP3    H255108   3.944   5.055   9.472  1.8897  0.0910 -2.7392
10305TIP3   OH255109   1.996   2.593   9.320 -0.0865 -0.0434 -0.2796
10305TIP3    H155110   2.058   2.534   9.364  0.1227  0.0578 -0.4418
10305TIP3    H255111   2.045   2.631   9.248 -0.1685  0.4752 -0.0628
10306TIP3   OH255112   2.542   2.888   0.656  0.4289 -0.4324  0.4968
10306TIP3    H155113   2.613   2.824   0.647  1.2743  0.2829  1.8383
10306TIP3    H255114   2.580   2.970   0.626 -1.1473 -0.7294 -2.8700
10307TIP3   OH255115   3.095   6.019   8.234 -0.2745  0.5674  0.3378
10307TIP3    H155116   3.011   6.064   8.244 -1.1365 -0.8496 -0.1220
10307TIP3    H255117   3.159   6.089   8.224 -1.3131  1.7080  1.2929
10308TIP3   OH255118   2.523   3.052   2.051 -0.0792 -0.0909  0.1730
10308TIP3    H155119   2.528   2.968   2.004 -2.2442 -0.9656  1.3550
10308TIP3    H255120   2.540   3.029   2.142  2.4327  1.3294  0.1518
10309TIP3   OH255121   7.288   0.885   2.611  0.0112 -0.3035  0.1653
10309TIP3    H155122   7.325   0.819   2.668 -0.6960 -0.3031  0.6395
10309TIP3    H255123   7.193   0.876   2.622 -0.1068  0.4078 -0.1906
10310TIP3   OH255124   1.843   4.926   9.702  0.0856  0.4026  0.0916
10310TIP3    H155125   1.818   4.911   9.794 -0.6806  0.2148 -0.1409
10310TIP3    H255126   1.933   4.957   9.707 -0.1913  1.1517  0.9797
10311TIP3   OH255127   1.813   4.685   9.570 -0.2648  0.0990  0.4450
10311TIP3    H155128   1.853   4.772   9.576 -0.2747  0.0399  1.7385
10311TIP3    H255129   1.764   4.676   9.652 -0.3708 -1.0834  0.2678
10312TIP3   OH255130   2.182   6.313   1.376  0.0233  0.2926 -0.1732
10312TIP3    H155131   2.255   6.256   1.352 -1.3744 -2.4222  1.4838
10312TIP3    H255132   2.109   6.253   1.389 -1.5459  2.4904  1.8638
10313TIP3   OH255133   1.355   2.275   9.873  0.4557 -0.5143 -0.0566
10313TIP3    H155134   1.303   2.350   9.903  1.4543 -0.0439  0.5630
10313TIP3    H255135   1.294   2.222   9.822 -0.7150 -0.1423  0.8988
10314TIP3   OH255136   5.704   7.359   1.699 -0.2557  0.2227  0.1829
10314TIP3    H155137   5.640   7.308   1.749 -0.6741  0.6905  0.1266
10314TIP3    H255138   5.736   7.425   1.760 -0.9948  0.9931 -0.2387
10315TIP3   OH255139   6.732   6.053   8.425 -0.0940 -0.1221 -0.3303
10315TIP3    H155140   6.807   6.075   8.479 -0.9592 -0.4091  1.0202
10315TIP3    H255141   6.678   5.996   8.479 -1.5431  0.4774 -1.0711
10316TIP3   OH255142   6.336   5.686   8.573  0.0898  0.1328 -0.2238
10316TIP3    H155143   6.428   5.666   8.590 -0.4238 -0.1562  2.5929
10316TIP3    H255144   6.310   5.621   8.507  1.5280 -0.7663  0.0508
10317TIP3   OH255145   1.901   1.493   1.826 -0.0748 -0.2436 -0.0567
10317TIP3    H155146   1.996   1.493   1.841 -0.2055  3.0018  1.5818
10317TIP3    H255147   1.885   1.573   1.777 -2.0183 -0.7866 -0.3740
10318TIP3   OH255148   0.247   6.610   7.839  0.1310 -0.4271 -0.7585
10318TIP3    H155149   0.200   6.669   7.780 -1.6118 -2.5552 -1.6170
10318TIP3    H255150   0.259   6.662   7.919 -2.7803  0.6388 -0.8695
10319TIP3   OH255151   1.313   3.136   1.710 -0.2647 -0.0026  0.1156
10319TIP3    H155152   1.228   3.179   1.701 -1.3607 -1.8912  0.8742
10319TIP3    H255153   1.365   3.196   1.764 -0.5314  1.8937 -1.6205
10320TIP3   OH255154   5.683   6.528   8.315 -0.4043  0.2376  0.7335
10320TIP3    H155155   5.659   6.436   8.305  0.6050 -0.1566  1.7976
10320TIP3    H255156   5.748   6.529   8.385  1.6886  1.4216 -1.1065
10321TIP3   OH255157   4.168   4.538   8.768 -0.9438  0.5791 -0.3807
10321TIP3    H155158   4.078   4.530   8.799 -0.5232  1.6867  1.2577
10321TIP3    H255159   4.215   4.466   8.811 -0.9476  0.2941 -0.8504
10322TIP3   OH255160   1.110   4.215   7.896 -0.0485 -0.7375 -0.7821
10322TIP3    H155161   1.157   4.193   7.815  0.3330 -0.2902 -0.6886
10322TIP3    H255162   1.177   4.248   7.955 -0.5298  0.3600 -0.8075
10323TIP3   OH255163   4.318   0.600   0.775  0.7858  0.1848  0.3663
10323TIP3    H155164   4.346   0.682   0.814 -0.0604  1.6579 -1.9157
10323TIP3    H255165   4.227   0.616   0.748  1.4377 -0.4993 -2.5531
10324TIP3   OH255166   0.931   1.539   2.530 -0.0387 -0.4720 -0.0411
10324TIP3    H155167   0.920   1.634   2.534 -1.2558 -0.4260 -2.6436
10324TIP3    H255168   1.024   1.527   2.508  0.9226 -0.1001  3.2866
10325TIP3   OH255169   3.915   2.447   1.667 -0.1793  0.1750 -0.3755
10325TIP3    H155170   3.883   2.492   1.745 -0.4255 -0.4941 -0.0780
10325TIP3    H255171   3.913   2.513   1.598 -0.1696  0.7173  0.1343
10326TIP3   OH255172   5.236   2.643   8.595 -0.1724  0.0050  0.4866
10326TIP3    H155173   5.161   2.659   8.653  0.9504 -0.0621  2.0071
10326TIP3    H255174   5.251   2.728   8.552 -1.0676  0.0330  0.2050
10327TIP3   OH255175   6.168   5.726   9.801 -0.0149 -0.1096  0.6517
10327TIP3    H155176   6.080   5.713   9.835  0.3242  0.2208  1.7027
10327TIP3    H255177   6.217   5.650   9.831 -0.4597 -1.4939 -1.9011
10328TIP3   OH255178   0.977   1.857   7.628  0.2360 -0.8157  0.4854
10328TIP3    H155179   1.029   1.801   7.685 -1.2114 -1.5187  1.1812
10328TIP3    H255180   0.926   1.796   7.575  1.1796 -0.1651 -1.2393
10329TIP3   OH255181   6.379   3.585   1.478  0.0488  0.0178  0.1268
10329TIP3    H155182   6.286   3.564   1.477  0.1467 -0.6752 -2.8250
10329TIP3    H255183   6.386   3.662   1.535 -2.4498  0.6504 -0.3170
10330TIP3   OH255184   4.370   5.563   8.356  0.3622 -0.1668  0.0497
10330TIP3    H155185   4.350   5.654   8.336  0.5704 -0.3921 -1.2508
10330TIP3    H255186   4.381   5.521   8.271  1.2649 -1.1895  0.6410
10331TIP3   OH255187   3.089   4.577   8.581 -0.0113 -0.3795  0.1387
10331TIP3    H155188   3.050   4.518   8.645 -1.1088 -1.1806 -1.2120
10331TIP3    H255189   3.173   4.537   8.559  0.9999  0.5946  1.9969
10332TIP3   OH255190   2.871   4.971   9.794  0.0853 -0.8544  0.4313
10332TIP3    H155191   2.860   5.063   9.820 -1.4023 -0.4776 -1.3088
10332TIP3    H255192   2.806   4.924   9.845 -0.3687 -0.6617  0.0359
10333TIP3   OH255193   0.694   4.005   8.517 -0.2381  0.4364 -0.1785
10333TIP3    H155194   0.702   3.978   8.425  0.1830 -0.7833  0.1975
10333TIP3    H255195   0.654   4.092   8.513  0.8680  0.9096 -1.5594
10334TIP3   OH255196   4.405   2.137   7.937  0.3609  0.3532 -0.6353
10334TIP3    H155197   4.418   2.047   7.907  1.5253  0.6262 -1.0340
10334TIP3    H255198   4.491   2.178   7.927 -0.3662  1.7876 -1.3992
10335TIP3   OH255199   6.998   4.227   9.069  0.1733  0.1273  0.2877
10335TIP3    H155200   6.989   4.233   8.974 -1.0949  0.2637  0.3962
10335TIP3    H255201   6.916   4.263   9.103  1.0541  1.1170  1.4644
10336TIP3   OH255202   1.159   2.632   0.753  0.6961 -0.0404 -0.1606
10336TIP3    H155203   1.178   2.684   0.831  0.9973  1.2955 -1.0863
10336TIP3    H255204   1.098   2.565   0.783  0.4197  0.7427  1.1149
10337TIP3   OH255205   1.274   3.688   0.182  0.8541 -0.5734  0.5834
10337TIP3    H155206   1.241   3.722   0.098  1.3847 -1.9228 -0.2063
10337TIP3    H255207   1.249   3.596   0.182  2.0052 -0.9057  1.3161
10338TIP3   OH255208   7.548   5.383   7.956  0.7521  0.2306  0.2268
10338TIP3    H155209   7.589   5.457   7.911  2.1461 -0.7147 -0.1200
10338TIP3    H255210   7.621   5.333   7.991 -0.2539  0.3186  2.6065
10339TIP3   OH255211   0.204   0.106   0.288 -0.0484  0.4406  0.6055
10339TIP3    H155212   0.258   0.128   0.213  0.3328 -0.6420  0.5548
10339TIP3    H255213   0.133   0.171   0.286 -1.2013 -0.7416 -1.8709
10340TIP3   OH255214   2.120   7.386   0.128 -0.1405 -0.0714  0.2272
10340TIP3    H155215   2.030   7.364   0.152 -0.6618  0.2296 -1.3713
10340TIP3    H255216   2.126   7.366   0.035  0.6878  2.2661 -0.2981
10341TIP3   OH255217   2.563   7.223   9.743 -0.6016  0.4748 -0.3734
10341TIP3    H155218   2.516   7.268   9.672 -0.8167  0.0413 -0.5099
10341TIP3    H255219   2.555   7.130   9.721 -0.4254  0.3546  0.0719
10342TIP3   OH255220   2.442   3.240   0.659 -0.1612 -0.4818  0.1268
10342TIP3    H155221   2.483   3.176   0.602  0.1682 -0.4066  0.2725
10342TIP3    H255222   2.365   3.196   0.695 -0.1504 -0.6604 -0.0722
10343TIP3   OH255223   7.029   1.065   1.188 -0.0085  0.0268 -0.3169
10343TIP3    H155224   7.013   1.132   1.255  1.7320  1.6813 -1.4262
10343TIP3    H255225   6.973   1.090   1.115  1.7887  1.3467 -1.3432
10344TIP3   OH255226  -0.043   6.674   1.280 -0.8458 -0.1507 -0.0772
10344TIP3    H155227  -0.123   6.630   1.250 -0.7638  0.3315 -1.0439
10344TIP3    H255228  -0.072   6.729   1.354 -1.2128 -0.7312  0.2183
10345TIP3   OH255229   0.324   6.825   0.289  0.1080  0.7330 -0.5704
10345TIP3    H155230   0.345   6.890   0.223  4.5702  0.7724  0.5749
10345TIP3    H255231   0.327   6.741   0.243  0.5024  0.9233 -0.8877
10346TIP3   OH255232   6.897   5.815   2.390  0.5927 -0.3502  0.2171
10346TIP3    H155233   6.844   5.851   2.318 -0.1457  1.9364  1.7790
10346TIP3    H255234   6.987   5.837   2.367  0.4740 -0.5968 -0.5083
10347TIP3   OH255235   3.079   7.500   8.756 -0.3624  0.1211 -0.0238
10347TIP3    H155236   2.992   7.514   8.717  0.7304  0.6568 -2.4592
10347TIP3    H255237   3.139   7.499   8.681  1.5292 -2.3956  1.3607
10348TIP3   OH255238   2.682   6.865   7.140  0.3706 -0.5962 -0.4497
10348TIP3    H155239   2.678   6.960   7.144 -0.9487 -0.6526  0.7996
10348TIP3    H255240   2.628   6.842   7.064  0.6923 -0.3465 -0.7540
10349TIP3   OH255241   1.691   4.304   8.436  0.6713 -0.5021 -0.1900
10349TIP3    H155242   1.667   4.373   8.498  0.8136 -0.9802  0.4077
10349TIP3    H255243   1.664   4.223   8.479  0.3416 -0.8093 -0.9623
10350TIP3   OH255244   4.681   7.101   9.570  0.7046  0.4235 -0.6213
10350TIP3    H155245   4.628   7.129   9.644  1.2270 -2.0072  0.7902
10350TIP3    H255246   4.710   7.183   9.529  1.0561  1.9520  2.3494
10351TIP3   OH255247   7.544   5.134   8.787  0.4424  0.5818 -0.0337
10351TIP3    H155248   7.499   5.087   8.857  1.7197 -0.0831  0.3851
10351TIP3    H255249   7.493   5.213   8.774 -0.7018 -0.0266  0.5669
10352TIP3   OH255250   0.316   1.573   2.313  0.3237  0.2984  0.0456
10352TIP3    H155251   0.253   1.617   2.369  0.4580  2.0927 -1.1541
10352TIP3    H255252   0.272   1.493   2.285 -1.0512  1.0529 -0.0007
10353TIP3   OH255253   2.211   6.906   3.178 -0.2095  0.5466 -0.1127
10353TIP3    H155254   2.223   6.956   3.097 -0.9805  1.7842  0.5227
10353TIP3    H255255   2.290   6.852   3.184 -0.2730  0.1989 -1.8405
10354TIP3   OH255256   0.809   2.957   8.821  0.3034 -0.0210  0.2806
10354TIP3    H155257   0.725   2.917   8.799  0.8050 -0.5211 -0.8258
10354TIP3    H255258   0.862   2.885   8.854  0.8098 -0.0275 -0.5351
10355TIP3   OH255259   1.936   4.963   2.560  0.6396  0.3797 -0.1892
10355TIP3    H155260   2.016   5.003   2.593  1.6163 -1.4793 -0.1273
10355TIP3    H255261   1.886   4.941   2.638  0.3193  1.0440 -0.2045
10356TIP3   OH255262   7.024   0.929   8.804  0.2434  0.5259 -0.1384
10356TIP3    H155263   6.958   0.925   8.873 -0.8920  2.0154 -1.0935
10356TIP3    H255264   7.079   1.004   8.826 -0.1858  1.0733 -0.8780
10357TIP3   OH255265   0.173   0.454   0.959  0.1119 -0.4611  0.2393
10357TIP3    H155266   0.089   0.470   1.002  0.0244 -2.7070  1.0038
10357TIP3    H255267   0.167   0.503   0.877 -1.3621  0.5583  0.8980
10358TIP3   OH255268   6.174   1.608   0.210 -0.1588  0.9575 -0.2481
10358TIP3    H155269   6.151   1.681   0.267  0.0966 -0.1787  1.3907
10358TIP3    H255270   6.090   1.579   0.174 -0.3036  1.8012 -0.6149
10359TIP3   OH255271   3.370   6.524   1.033  0.3244  0.2240 -0.0334
10359TIP3    H155272   3.319   6.459   1.081 -1.4993  1.7531  0.2352
10359TIP3    H255273   3.392   6.590   1.098 -0.4104  1.2989 -0.8329
10360TIP3   OH255274   0.809   0.366   9.595  0.0153  0.3481 -0.0851
10360TIP3    H155275   0.824   0.296   9.532  2.0933  1.3937 -0.8294
10360TIP3    H255276   0.729   0.409   9.565  0.3960  0.1732 -1.4086
10361TIP3   OH255277   1.250   6.834   0.914 -0.2519  0.2888 -0.6710
10361TIP3    H155278   1.290   6.910   0.957 -1.2616  0.0083  0.8386
10361TIP3    H255279   1.174   6.813   0.969 -0.9099 -0.8363 -1.9586
10362TIP3   OH255280   1.692   0.137   1.394 -0.0182  0.4249 -0.4322
10362TIP3    H155281   1.622   0.108   1.453 -1.0687  0.7994 -1.4853
10362TIP3    H255282   1.666   0.105   1.308  0.5992  1.4341 -1.0069
10363TIP3   OH255283   1.754   0.994   0.369 -0.1897 -0.6567 -0.2205
10363TIP3    H155284   1.795   1.031   0.447 -1.2836  0.8159 -0.2904
10363TIP3    H255285   1.827   0.978   0.309  0.5362 -0.5871  0.6180
10364TIP3   OH255286   4.846   0.298   8.745 -1.5436  0.3318 -0.5855
10364TIP3    H155287   4.868   0.257   8.661 -0.8215 -0.1225 -0.1904
10364TIP3    H255288   4.918   0.359   8.761 -1.1648 -0.2722  0.1364
10365TIP3   OH255289   5.318   5.815   7.349  0.5256  0.2769 -0.8035
10365TIP3    H155290   5.312   5.887   7.287 -1.9481  0.1991 -0.7663
10365TIP3    H255291   5.228   5.805   7.383  1.0600 -1.9609  0.1596
10366TIP3   OH255292   5.283   6.936   2.330  0.7035  0.4464 -0.3896
10366TIP3    H155293   5.254   6.963   2.418 -2.5733 -0.4114 -1.0661
10366TIP3    H255294   5.329   6.853   2.345 -0.5308 -0.1183  0.4938
10367TIP3   OH255295   6.651   0.354   7.681  0.2419 -0.2955 -0.2053
10367TIP3    H155296   6.724   0.297   7.706 -1.5252 -3.0800 -0.9038
10367TIP3    H255297   6.659   0.364   7.586 -0.0418 -0.2777 -0.2296
10368TIP3   OH255298   4.013   7.668   8.705 -0.3928 -0.0558 -0.4866
10368TIP3    H155299   4.039   7.758   8.683 -1.2285  0.3975  0.3321
10368TIP3    H255300   3.918   7.666   8.689 -0.4089 -0.7451 -0.3247
10369TIP3   OH255301   7.102   7.271   2.352 -0.3309 -0.2558  0.6559
10369TIP3    H155302   7.120   7.206   2.421  0.3462  0.3369  1.0540
10369TIP3    H255303   7.188   7.307   2.331 -0.6984  0.5110  0.4385
10370TIP3   OH255304   6.069   2.452   9.586 -0.2684  0.2973  0.1008
10370TIP3    H155305   6.151   2.409   9.560 -0.1794  0.5604 -0.0492
10370TIP3    H255306   6.056   2.425   9.677 -1.6185 -2.2859 -0.7392
10371TIP3   OH255307   0.267   4.346   6.843 -0.0219  0.0831  0.4195
10371TIP3    H155308   0.273   4.389   6.758 -1.3954  0.0590  0.2825
10371TIP3    H255309   0.260   4.253   6.822  0.4348  0.0005  0.6083
10372TIP3   OH255310   6.948   4.833   0.890  0.2913  0.1932  0.0363
10372TIP3    H155311   6.915   4.920   0.913  0.5446  0.3225 -0.0857
10372TIP3    H255312   6.877   4.793   0.841 -0.0558  0.1091  0.5920
10373TIP3   OH255313   1.172   6.445   9.490 -0.0103 -0.3306  0.0334
10373TIP3    H155314   1.182   6.461   9.396 -1.0146 -0.2191 -0.0680
10373TIP3    H255315   1.261   6.450   9.525  0.1514  2.0081 -0.5450
10374TIP3   OH255316   2.180   1.332   7.294 -0.0115  0.2851 -0.5495
10374TIP3    H155317   2.271   1.303   7.291 -0.5327 -1.6708  0.5235
10374TIP3    H255318   2.138   1.288   7.220 -0.4451 -0.3649  0.0611
10375TIP3   OH255319   6.380   7.411   7.944 -0.7384  0.1256  0.4242
10375TIP3    H155320   6.377   7.333   8.000  0.1289 -0.5030 -0.3612
10375TIP3    H255321   6.303   7.403   7.887  0.4015 -1.2686 -1.0227
10376TIP3   OH255322   2.047   4.829   6.783 -0.1409 -0.5052 -0.7042
10376TIP3    H155323   2.054   4.902   6.720 -2.5159  1.0346  0.6367
10376TIP3    H255324   2.137   4.806   6.804  0.7891  3.1152 -0.0650
10377TIP3   OH255325   1.605   6.606   0.160 -0.8792 -0.3529  0.1536
10377TIP3    H155326   1.615   6.557   0.079 -1.0680  1.3544 -0.9409
10377TIP3    H255327   1.512   6.628   0.164 -0.6293  0.7620  0.0979
10378TIP3   OH255328   6.294   6.611   0.161  0.1857 -0.0778  0.4184
10378TIP3    H155329   6.308   6.529   0.207  0.9449  0.4696  1.1940
10378TIP3    H255330   6.380   6.652   0.158 -0.5265  1.6539  1.9091
10379TIP3   OH255331   1.466   2.313   0.649 -0.2218  0.1438 -0.1445
10379TIP3    H155332   1.492   2.329   0.740 -0.3819 -1.3245  0.1839
10379TIP3    H255333   1.370   2.310   0.653 -0.2839  1.1741 -0.5738
10380TIP3   OH255334   5.934   4.940   7.231  0.3403 -0.0185 -0.1741
10380TIP3    H155335   5.913   5.019   7.282 -1.3196  0.0386 -0.8866
10380TIP3    H255336   5.871   4.875   7.262  1.0185 -0.7614 -0.3339
10381TIP3   OH255337   5.283   6.302   0.154  0.0053 -0.3347 -0.1318
10381TIP3    H155338   5.321   6.383   0.120 -2.1723  0.8989  0.2171
10381TIP3    H255339   5.291   6.239   0.082 -1.1342  1.1274 -1.5977
10382TIP3   OH255340   0.114   4.200   1.112  0.4137 -0.4379 -0.4815
10382TIP3    H155341   0.144   4.110   1.126  0.7150 -0.2755 -0.0607
10382TIP3    H255342   0.092   4.232   1.200 -0.9126 -0.5158 -0.7557
10383TIP3   OH255343   0.814   2.628   1.835 -0.3969 -0.1020  0.5276
10383TIP3    H155344   0.884   2.681   1.873 -0.0262 -1.0944  1.2923
10383TIP3    H255345   0.761   2.690   1.784 -0.5182  1.1733  2.1085
10384TIP3   OH255346   1.786   1.405   0.322  0.2869  0.2199 -0.4544
10384TIP3    H155347   1.823   1.481   0.276  1.7036  0.1239  0.4803
10384TIP3    H255348   1.697   1.431   0.342  1.6005  3.0047  2.6435
10385TIP3   OH255349   1.755   5.629   7.849 -0.5509 -0.5818  0.1924
10385TIP3    H155350   1.824   5.567   7.826  0.0802  0.0458  0.3656
10385TIP3    H255351   1.710   5.588   7.923  1.0402 -0.0136  1.5309
10386TIP3   OH255352   0.670   1.090   6.882 -0.2145  0.7094 -0.6725
10386TIP3    H155353   0.644   1.164   6.827 -2.1758  0.7111  0.1705
10386TIP3    H255354   0.749   1.055   6.840 -0.1716  2.2720 -1.9930
10387TIP3   OH255355   1.480   4.142   1.886  0.3638  0.0704 -0.0799
10387TIP3    H155356   1.536   4.175   1.816 -0.2342  0.7049 -0.2710
10387TIP3    H255357   1.534   4.078   1.932  1.3408  0.8715 -0.0832
10388TIP3   OH255358   7.218   1.958   8.117 -0.4944  0.4844 -0.2477
10388TIP3    H155359   7.296   1.904   8.127 -1.3069 -0.9157 -1.0540
10388TIP3    H255360   7.207   2.003   8.201  1.9258  1.8171 -0.5636
10389TIP3   OH255361   7.590   0.508   8.769 -0.2435  0.2917 -0.6030
10389TIP3    H155362   7.613   0.451   8.843 -1.6762 -0.0154 -0.3623
10389TIP3    H255363   7.497   0.525   8.780 -0.2169  1.2453 -1.6787
10390TIP3   OH255364   0.823   4.871   1.968 -0.0690  0.5649  0.2751
10390TIP3    H155365   0.842   4.880   2.062  0.7759 -0.2297  0.1969
10390TIP3    H255366   0.896   4.819   1.934 -0.9070 -0.0508 -0.6234
10391TIP3   OH255367   6.792   6.725   1.711  0.3633 -0.0604 -0.7724
10391TIP3    H155368   6.713   6.673   1.695 -0.2163  0.8446 -0.8996
10391TIP3    H255369   6.816   6.704   1.802  0.0750 -0.4583 -0.7843
10392TIP3   OH255370   2.376   3.892   0.433 -0.2228  0.2478 -0.1826
10392TIP3    H155371   2.424   3.831   0.489  0.8257 -0.3438 -1.6507
10392TIP3    H255372   2.406   3.872   0.345 -1.9079  1.0710 -0.9913
10393TIP3   OH255373   7.477   0.983   7.700  0.0573 -0.3812  0.1273
10393TIP3    H155374   7.497   0.889   7.707 -2.2788 -0.8873  0.8768
10393TIP3    H255375   7.484   1.015   7.790  4.0481  1.0065 -0.4863
10394TIP3   OH255376   1.200   5.887   8.342  0.0192 -0.4615  0.3237
10394TIP3    H155377   1.239   5.968   8.308 -0.7819 -0.5648 -0.9277
10394TIP3    H255378   1.271   5.823   8.342 -0.3216 -1.0092 -3.1384
10395TIP3   OH255379   3.673   2.265   0.548 -0.0487  0.2412 -0.4954
10395TIP3    H155380   3.698   2.354   0.575  0.1693  0.5409 -1.6220
10395TIP3    H255381   3.591   2.248   0.594  0.1897  0.8101  0.1551
10396TIP3   OH255382   0.894   0.989   0.783  0.3351 -0.4301  0.4298
10396TIP3    H155383   0.953   0.948   0.719  0.5017  2.3274 -1.3705
10396TIP3    H255384   0.813   0.938   0.776  1.0732 -1.5550 -0.3457
10397TIP3   OH255385   2.257   0.263   8.476  0.5166  0.1410  0.2888
10397TIP3    H155386   2.195   0.254   8.548  1.8655  0.9872  1.6053
10397TIP3    H255387   2.215   0.218   8.402 -1.6868  0.7745  1.0891
10398TIP3   OH255388   5.794   7.196   8.673 -0.0546 -1.0878 -0.2990
10398TIP3    H155389   5.720   7.196   8.611  0.0240 -2.0895 -0.4040
10398TIP3    H255390   5.780   7.118   8.727  0.9228 -1.2772 -0.3081
10399TIP3   OH255391   7.309   7.475   9.948 -0.1718 -0.2571  0.4104
10399TIP3    H155392   7.265   7.422  10.015 -0.5250 -0.2658  0.1720
10399TIP3    H255393   7.239   7.526   9.908  0.1112  0.1072  0.3759
10400TIP3   OH255394   2.308   1.062   2.563  0.4689  0.7184 -0.0463
10400TIP3    H155395   2.227   1.072   2.612  1.7269  1.7356  1.9427
10400TIP3    H255396   2.352   0.988   2.603  1.2445  1.1757 -0.0279
10401TIP3   OH255397   3.678   6.501   8.215 -0.4827 -0.1943  0.1292
10401TIP3    H155398   3.605   6.561   8.202 -1.2145 -1.5551 -2.7162
10401TIP3    H255399   3.651   6.420   8.174  1.9118 -1.3434  0.6209
10402TIP3   OH255400   1.990   5.357   7.042  0.1326 -0.8563 -0.0631
10402TIP3    H155401   2.035   5.372   6.959  1.8620 -1.0414  0.7964
10402TIP3    H255402   1.897   5.366   7.021  0.4949 -1.4982 -2.1273
10403TIP3   OH255403   6.706   1.287   2.674  0.1925  0.0628 -0.1247
10403TIP3    H155404   6.786   1.241   2.647  0.9325  1.1583  0.0820
10403TIP3    H255405   6.649   1.219   2.709  1.1605 -0.7140 -0.0118
10404TIP3   OH255406   6.526   0.484   1.615 -0.2958 -0.4684  0.0285
10404TIP3    H155407   6.576   0.560   1.643  0.5706 -0.7562 -0.7033
10404TIP3    H255408   6.585   0.410   1.629 -0.9483 -0.9508  0.2633
10405TIP3   OH255409   3.797   6.423   8.500  1.1369 -0.3829  0.1628
10405TIP3    H155410   3.729   6.419   8.433  0.7180  1.6544  0.3908
10405TIP3    H255411   3.825   6.332   8.511 -2.3083 -1.4989  0.9069
10406TIP3   OH255412   2.387   6.021   6.429 -0.8166 -0.2450 -0.0484
10406TIP3    H155413   2.404   6.115   6.420 -1.6384 -0.2465 -2.3004
10406TIP3    H255414   2.444   5.981   6.363 -0.4044 -1.3563  0.9640
10407TIP3   OH255415   4.548   5.304   7.827  0.5403  0.2170 -0.5606
10407TIP3    H155416   4.531   5.392   7.792  1.7150 -0.1682 -2.2051
10407TIP3    H255417   4.475   5.251   7.797  0.3168  0.4171 -0.3724
10408TIP3   OH255418   6.187   1.761   9.900 -0.0378  0.7890 -0.4861
10408TIP3    H155419   6.099   1.741   9.933  0.3909  0.6141  0.6045
10408TIP3    H255420   6.180   1.750   9.806 -0.5173 -1.9563 -0.2096
10409TIP3   OH255421   4.538   1.351   7.636  0.4910  0.0618  0.3376
10409TIP3    H155422   4.627   1.385   7.643  0.6727 -0.0844 -0.9873
10409TIP3    H255423   4.534   1.312   7.548 -0.9856  0.4232  0.2150
10410TIP3   OH255424   1.548   0.976   1.195 -0.3132  0.0580 -0.1879
10410TIP3    H155425   1.518   1.006   1.281 -2.5521 -2.0841 -0.1155
10410TIP3    H255426   1.475   0.926   1.160  1.8233 -2.1441 -1.8336
10411TIP3   OH255427   1.926   3.176   8.926 -0.1481  0.1673  0.6891
10411TIP3    H155428   1.973   3.111   8.874 -0.2051  0.3439  0.4154
10411TIP3    H255429   1.977   3.256   8.917 -0.9010  0.5723 -0.2496
10412TIP3   OH255430   6.177   0.527   0.595 -0.0934 -0.6827 -0.2403
10412TIP3    H155431   6.159   0.622   0.597  0.5155 -0.5317  2.3718
10412TIP3    H255432   6.248   0.517   0.532 -0.2607  0.6007 -0.6620
10413TIP3   OH255433   5.636   1.400   7.052 -0.1651  1.0477  0.2053
10413TIP3    H155434   5.572   1.388   7.122 -0.7795  0.8820 -0.3785
10413TIP3    H255435   5.667   1.311   7.033 -0.9345  0.9414 -0.5957
10414TIP3   OH255436   3.128   6.822   2.298  0.3825 -0.7246 -0.0051
10414TIP3    H155437   3.036   6.802   2.279  0.6527  0.7255 -3.6270
10414TIP3    H255438   3.170   6.737   2.307 -0.7446 -1.5290 -1.8294
10415TIP3   OH255439   5.745   0.955   9.180  0.1967 -0.3385 -0.3187
10415TIP3    H155440   5.681   0.969   9.110 -0.4767 -1.5362  0.0187
10415TIP3    H255441   5.804   1.030   9.174 -1.1496  0.7444 -0.7400
10416TIP3   OH255442   1.555   6.963   0.841  0.2848 -0.6543  0.1694
10416TIP3    H155443   1.492   6.995   0.905  0.7814  2.5414 -0.7516
10416TIP3    H255444   1.517   6.883   0.807 -2.3914  0.1930  0.9529
10417TIP3   OH255445   0.051   2.137   7.209  0.1062 -0.5754 -0.0947
10417TIP3    H155446   0.085   2.060   7.164 -0.3487 -1.1259  0.4872
10417TIP3    H255447   0.113   2.153   7.281 -0.7417 -1.4904  0.8758
10418TIP3   OH255448   3.734   5.443   0.110 -0.5103  0.3619 -0.0582
10418TIP3    H155449   3.730   5.384   0.186  0.9500  0.3530  0.0477
10418TIP3    H255450   3.690   5.523   0.139 -0.7288  0.0453  0.5017
10419TIP3   OH255451   7.262   4.632   7.292  0.6645  0.2507 -0.0907
10419TIP3    H155452   7.197   4.644   7.362  0.1346  1.7947 -0.7922
10419TIP3    H255453   7.346   4.654   7.332  0.3830  0.9546  0.1308
10420TIP3   OH255454   1.838   4.542   0.376  0.4424  0.0714  0.5537
10420TIP3    H155455   1.809   4.595   0.451  0.6435  1.2240 -0.1619
10420TIP3    H255456   1.933   4.552   0.376  0.2958  2.1257 -1.2845
10421TIP3   OH255457   7.387   3.524   2.292  0.8457 -0.0417 -0.4446
10421TIP3    H155458   7.398   3.500   2.384 -0.5598  1.9071  0.2952
10421TIP3    H255459   7.354   3.444   2.250  2.1679 -1.1570  0.5598
10422TIP3   OH255460   2.189   5.213   2.508 -0.1059 -0.6676  0.6704
10422TIP3    H155461   2.127   5.271   2.553  0.1616 -0.8660  1.3089
10422TIP3    H255462   2.187   5.131   2.559 -0.5868 -1.2778 -0.3024
10423TIP3   OH255463   0.456   1.221   9.641 -0.1801 -0.6591  0.1535
10423TIP3    H155464   0.386   1.183   9.695 -0.3499  0.6013  0.8833
10423TIP3    H255465   0.537   1.184   9.677 -0.2999  0.0642  1.2440
10424TIP3   OH255466   0.966   0.421   1.042  0.6576 -0.4123 -0.2568
10424TIP3    H155467   0.980   0.360   0.970 -0.1552  0.3662 -1.0971
10424TIP3    H255468   0.951   0.505   1.000 -1.2793 -0.1987  0.7494
10425TIP3   OH255469   0.603   6.866   9.781 -0.4953  0.1593  0.7773
10425TIP3    H155470   0.698   6.865   9.792 -0.4023 -0.1435  0.0399
10425TIP3    H255471   0.569   6.832   9.863  0.1057 -1.2433  0.4801
10426TIP3   OH255472   2.531   6.682   0.356 -0.3410 -0.2664  0.2575
10426TIP3    H155473   2.612   6.669   0.307  0.2970 -0.6458  1.3600
10426TIP3    H255474   2.488   6.597   0.356 -1.2561  0.1778 -1.1792
10427TIP3   OH255475   0.413   7.026   9.126 -0.2817  0.0075  0.6501
10427TIP3    H155476   0.401   7.066   9.213  0.3028 -1.0047  1.2137
10427TIP3    H255477   0.451   6.940   9.144  0.1063 -0.1102 -0.6290
10428TIP3   OH255478   2.432   2.164   9.965 -0.1569  0.1475 -0.3542
10428TIP3    H155479   2.344   2.132   9.943  0.4410 -1.4953 -0.4643
10428TIP3    H255480   2.433   2.166  10.060  0.1290 -1.2152 -0.3076
10429TIP3   OH255481   2.615   2.855   2.278  0.2497 -0.2992 -0.1365
10429TIP3    H155482   2.652   2.767   2.271 -0.5168 -0.6707  0.2652
10429TIP3    H255483   2.527   2.840   2.313  0.1880  0.6497  0.1251
10430TIP3   OH255484   0.906   0.720   1.206 -0.0150 -0.0789 -0.7410
10430TIP3    H155485   0.856   0.797   1.233 -0.1994 -0.3893 -0.1910
10430TIP3    H255486   0.839   0.655   1.183  0.1395 -0.1805 -0.9103
10431TIP3   OH255487   4.770   3.827   7.602 -0.2189 -0.5330  0.1004
10431TIP3    H155488   4.766   3.732   7.599  1.7324 -0.6630  0.0351
10431TIP3    H255489   4.679   3.856   7.596 -0.8002 -2.3674 -0.4605
10432TIP3   OH255490   0.989   4.351   2.382  0.7547  0.6410  0.8514
10432TIP3    H155491   0.950   4.264   2.372 -0.3932  0.6757  3.9622
10432TIP3    H255492   0.977   4.393   2.297 -1.2707 -1.2248  0.1420
10433TIP3   OH255493   0.756   6.063   1.819  0.1730 -0.0165  0.6729
10433TIP3    H155494   0.771   6.006   1.895  1.0989 -0.2022  0.3577
10433TIP3    H255495   0.682   6.118   1.845 -0.5199 -1.1397  1.1040
10434TIP3   OH255496   2.544   3.078   0.441  0.6291 -0.1554  0.0259
10434TIP3    H155497   2.627   3.058   0.396  1.9095 -1.3756  2.7235
10434TIP3    H255498   2.489   3.002   0.424  1.1092 -0.6149  0.4871
10435TIP3   OH255499   6.574   0.341   7.960  0.3694 -0.2280  0.6809
10435TIP3    H155500   6.603   0.357   7.870 -0.3158 -1.4836  0.2098
10435TIP3    H255501   6.490   0.295   7.950 -0.2782  0.6183  1.9735
10436TIP3   OH255502   1.050   1.272   0.585  0.7246 -0.2628  0.5774
10436TIP3    H155503   1.005   1.272   0.669 -0.0897 -0.3830  0.1537
10436TIP3    H255504   1.022   1.353   0.543  2.3169  0.5487  1.0253
10437TIP3   OH255505   0.543   4.226   0.937 -0.3928 -0.4356 -0.2609
10437TIP3    H155506   0.625   4.177   0.933  0.2071  0.3576  1.2871
10437TIP3    H255507   0.475   4.161   0.924  0.4259 -1.4845  0.5339
10438TIP3   OH255508   4.614   3.679   8.055 -0.5572  0.6245 -0.0292
10438TIP3    H155509   4.666   3.740   8.002  2.1869 -0.4969  1.1674
10438TIP3    H255510   4.591   3.609   7.994 -0.0288  0.8031 -0.4431
10439TIP3   OH255511   7.251   2.071   7.511  0.6374  0.1026 -0.5101
10439TIP3    H155512   7.197   2.055   7.434 -0.7077  1.8740 -0.0086
10439TIP3    H255513   7.189   2.073   7.584  1.6390  0.2147  0.3674
   7.68049   7.68049  10.00000
