Title
55513
    1DOPE     N    1   3.355   2.604   7.197 -0.1279  0.5015  0.0147
    1DOPE   HN1    2   3.284   2.618   7.272 -2.3087 -2.1718 -1.3572
    1DOPE   HN2    3   3.305   2.568   7.113  0.1338 -0.1231  0.1219
    1DOPE   HN3    4   3.422   2.530   7.229  0.1326 -0.2139 -2.0264
    1DOPE   C12    5   3.431   2.722   7.150  0.0151  0.8882  0.2002
    1DOPE  H12A    6   3.472   2.701   7.049  0.6670 -0.5238  0.7379
    1DOPE  H12B    7   3.518   2.731   7.218 -0.2276 -1.4702  0.9153
    1DOPE   C11    8   3.360   2.854   7.141  0.0607 -0.5156  1.2228
    1DOPE  H11A    9   3.438   2.928   7.115  1.4693 -2.1818  0.5882
    1DOPE  H11B   10   3.314   2.880   7.239 -2.3219 -3.9099  1.1835
    1DOPE     P   11   3.195   2.976   6.983  0.0240 -0.2066  0.1785
    1DOPE   O13   12   3.277   3.096   7.017 -0.0298  0.2768 -0.1694
    1DOPE   O14   13   3.053   2.977   7.020  0.4029 -0.5087 -0.3906
    1DOPE   O11   14   3.201   2.971   6.823 -0.0964  0.3264 -0.3002
    1DOPE   O12   15   3.256   2.843   7.046 -0.5497  0.0278 -0.0225
    1DOPE    C1   16   3.304   2.877   6.769  0.1688 -0.2613 -0.6087
    1DOPE    HA   17   3.289   2.770   6.795  3.1226 -1.1395 -2.0616
    1DOPE    HB   18   3.402   2.913   6.806 -0.1361  0.3658 -0.3937
    1DOPE    C2   19   3.312   2.863   6.613  0.5526 -0.3512 -0.2003
    1DOPE    HS   20   3.382   2.781   6.587  0.7628  0.0858 -1.0325
    1DOPE   O21   21   3.339   2.993   6.555 -0.3366  0.6087 -0.3315
    1DOPE   C21   22   3.464   3.009   6.521 -0.5645  1.0160  0.4413
    1DOPE   O22   23   3.555   2.924   6.540 -0.1453  0.3774 -0.0977
    1DOPE   C22   24   3.479   3.137   6.439 -0.8589  0.0781 -0.5236
    1DOPE   H2R   25   3.581   3.178   6.450 -0.2873 -1.5275  0.4664
    1DOPE   H2S   26   3.411   3.204   6.496  0.7446  0.4926  0.9810
    1DOPE    C3   27   3.181   2.811   6.551  0.4935 -0.1802  0.6253
    1DOPE    HX   28   3.100   2.865   6.604  0.1647 -1.5024  1.5134
    1DOPE    HY   29   3.178   2.705   6.584  0.0532 -1.0224 -1.8778
    1DOPE   O31   30   3.175   2.818   6.404 -0.1966  0.0397 -0.1398
    1DOPE   C31   31   3.091   2.910   6.347 -0.5670 -0.4639 -0.6436
    1DOPE   O32   32   3.017   2.988   6.411 -0.8287  0.2238  0.1411
    1DOPE   C32   33   3.098   2.904   6.189  0.3699 -0.4175 -0.2022
    1DOPE   H2X   34   3.196   2.857   6.168  1.6560  0.8888  2.4068
    1DOPE   H2Y   35   3.015   2.839   6.156  0.2210  0.5330 -1.8013
    1DOPE   C23   36   3.431   3.119   6.294  0.1352 -0.0819  0.5345
    1DOPE   H3R   37   3.422   3.222   6.253  1.0221 -0.2752 -0.1570
    1DOPE   H3S   38   3.332   3.070   6.305 -0.6793  1.6007  1.0823
    1DOPE   C24   39   3.527   3.026   6.215  0.5944 -0.0141 -0.9258
    1DOPE   H4R   40   3.541   2.936   6.278  0.8161  0.9590  0.4482
    1DOPE   H4S   41   3.624   3.071   6.186  0.4587  1.2216  0.4577
    1DOPE   C25   42   3.464   2.973   6.080 -0.3311 -0.0036 -0.6891
    1DOPE   H5R   43   3.378   2.908   6.105 -0.2719  0.0520 -0.3255
    1DOPE   H5S   44   3.540   2.904   6.038  0.4132  0.1691  0.3097
    1DOPE   C26   45   3.428   3.080   5.981  0.3620 -0.2290  0.4025
    1DOPE   H6R   46   3.334   3.134   6.005 -0.1450  0.5306 -2.7693
    1DOPE   H6S   47   3.397   3.026   5.889 -1.4346  1.8631 -0.2835
    1DOPE   C27   48   3.536   3.183   5.935 -1.2778 -0.2920 -0.0570
    1DOPE   H7R   49   3.619   3.129   5.885 -1.3405  1.4306 -2.1524
    1DOPE   H7S   50   3.580   3.227   6.028  0.1131  0.9542 -1.2558
    1DOPE   C28   51   3.476   3.300   5.865 -0.5622 -0.1869 -0.1304
    1DOPE   H8R   52   3.414   3.370   5.925  1.5265  2.0113 -0.3649
    1DOPE   H8S   53   3.423   3.262   5.775 -1.0839  1.3341 -0.5045
    1DOPE   C29   54   3.582   3.398   5.823 -0.5831  0.7818  0.5188
    1DOPE   H9R   55   3.633   3.440   5.911  0.2834  0.4765  0.1783
    1DOPE  C210   56   3.621   3.448   5.701  0.3709  0.1878  0.3772
    1DOPE  H10R   57   3.699   3.526   5.694 -1.2320  1.8236  0.0159
    1DOPE  C211   58   3.564   3.409   5.562 -0.1983  0.9577 -0.1593
    1DOPE  H11R   59   3.522   3.492   5.502  0.3664  0.6914 -0.9326
    1DOPE  H11S   60   3.480   3.336   5.565 -1.0926  1.9947  1.1958
    1DOPE  C212   61   3.674   3.353   5.470  0.7826 -0.2108  0.8012
    1DOPE  H12R   62   3.739   3.280   5.523  0.2403 -0.5211  1.0517
    1DOPE  H12S   63   3.736   3.437   5.433 -0.2677  0.0630 -0.3923
    1DOPE  C213   64   3.609   3.292   5.347 -0.2317  0.0264 -0.1644
    1DOPE  H13R   65   3.534   3.360   5.301 -0.2200 -1.1856 -2.0712
    1DOPE  H13S   66   3.538   3.212   5.380 -1.1543  0.7934 -0.2395
    1DOPE  C214   67   3.712   3.256   5.247  0.4407  0.1301  0.2630
    1DOPE  H14R   68   3.784   3.188   5.297  0.7401  1.0465  1.1091
    1DOPE  H14S   69   3.786   3.335   5.221  1.5680 -1.0313 -0.1300
    1DOPE  C215   70   3.659   3.197   5.114  0.0443  0.5290  0.3286
    1DOPE  H15R   71   3.605   3.111   5.159  2.0145 -1.5208 -1.0075
    1DOPE  H15S   72   3.747   3.167   5.053 -1.3739 -2.3224 -0.5444
    1DOPE  C216   73   3.574   3.290   5.033  0.1432  0.2332 -0.1025
    1DOPE  H16R   74   3.639   3.375   5.006  1.3258  0.1861  2.3185
    1DOPE  H16S   75   3.496   3.332   5.100  0.7412  2.5003 -0.7415
    1DOPE  C217   76   3.512   3.219   4.910 -0.9281  0.3663 -0.4990
    1DOPE  H17R   77   3.490   3.118   4.952  0.9008 -0.2883 -1.0065
    1DOPE  H17S   78   3.586   3.199   4.830 -1.1676  2.2712 -1.2384
    1DOPE  C218   79   3.397   3.289   4.850  1.1534  0.7766 -0.7313
    1DOPE  H18R   80   3.430   3.377   4.790 -0.1630  0.0166 -2.6424
    1DOPE  H18S   81   3.318   3.325   4.920  0.3611 -0.9977 -0.6518
    1DOPE  H18T   82   3.333   3.224   4.787  1.4210 -0.6486  0.4200
    1DOPE   C33   83   3.071   3.050   6.127  0.4145 -0.2966 -0.0430
    1DOPE   H3X   84   3.145   3.123   6.166  1.6319 -1.0813 -0.8247
    1DOPE   H3Y   85   2.976   3.091   6.167  0.2801  0.0822 -0.7494
    1DOPE   C34   86   3.055   3.036   5.977 -0.4039  0.1353 -0.0535
    1DOPE   H4X   87   3.150   3.001   5.933 -0.2551 -0.8347  1.0078
    1DOPE   H4Y   88   2.980   2.959   5.949 -0.8533  1.5168 -3.1027
    1DOPE   C35   89   3.006   3.162   5.905  0.1105  0.3108 -0.5765
    1DOPE   H5X   90   3.083   3.241   5.912  3.6592 -2.8490 -0.9865
    1DOPE   H5Y   91   2.911   3.192   5.954  0.0717 -0.3677 -0.2171
    1DOPE   C36   92   2.968   3.149   5.755  0.3563 -0.1055 -0.3688
    1DOPE   H6X   93   2.875   3.088   5.744  0.3977  0.0514 -1.7645
    1DOPE   H6Y   94   3.050   3.103   5.696  1.8799 -1.1410  2.4117
    1DOPE   C37   95   2.940   3.286   5.677  0.0784 -0.0045 -0.7410
    1DOPE   H7X   96   2.892   3.269   5.578 -0.8743  0.1307 -0.3141
    1DOPE   H7Y   97   2.859   3.331   5.738  1.2326  2.2879 -0.8028
    1DOPE   C38   98   3.063   3.375   5.670  0.2084 -0.2149 -0.2462
    1DOPE   H8X   99   3.093   3.381   5.777 -3.1617 -2.9044  1.0435
    1DOPE   H8Y  100   3.024   3.473   5.637  1.4710  0.0581 -0.9903
    1DOPE   C39  101   3.176   3.339   5.584  0.0784  0.3489 -0.5394
    1DOPE   H9X  102   3.258   3.286   5.635 -0.6886  0.0685  0.4171
    1DOPE  C310  103   3.178   3.348   5.454  0.4138  0.2532  0.3757
    1DOPE  H10X  104   3.253   3.293   5.395 -0.2786 -3.0571  2.3512
    1DOPE  C311  105   3.068   3.409   5.373  0.4938 -0.0878  0.2644
    1DOPE  H11X  106   3.043   3.347   5.284 -0.2936  0.4340  0.1130
    1DOPE  H11Y  107   2.971   3.431   5.421  0.1208  2.3631 -1.4243
    1DOPE  C312  108   3.104   3.553   5.309 -0.3466  0.0261 -0.4132
    1DOPE  H12X  109   3.120   3.621   5.395  0.2714 -0.4378 -0.1546
    1DOPE  H12Y  110   3.019   3.587   5.246 -1.8636 -0.0360  1.5137
    1DOPE  C313  111   3.232   3.543   5.234  0.2103 -1.1899  0.1445
    1DOPE  H13X  112   3.319   3.525   5.302  1.0531 -1.2613 -0.9261
    1DOPE  H13Y  113   3.233   3.461   5.160 -0.7866 -0.5729 -0.5829
    1DOPE  C314  114   3.278   3.674   5.170 -0.5830 -0.3271  0.4671
    1DOPE  H14X  115   3.252   3.751   5.246  0.7628 -0.4376  1.0765
    1DOPE  H14Y  116   3.224   3.707   5.079 -3.6799  1.3420  2.7360
    1DOPE  C315  117   3.431   3.690   5.144  0.4854 -0.0700  0.7315
    1DOPE  H15X  118   3.445   3.788   5.095  0.5198  1.2488  3.2344
    1DOPE  H15Y  119   3.461   3.620   5.062 -1.0630  0.0486  0.0215
    1DOPE  C316  120   3.517   3.683   5.270 -0.2287  0.1539 -0.0790
    1DOPE  H16X  121   3.511   3.581   5.315  1.8559  0.3302  0.7258
    1DOPE  H16Y  122   3.472   3.747   5.348  1.2034  0.7816  0.2644
    1DOPE  C317  123   3.666   3.709   5.266  0.9232  0.1576  0.0788
    1DOPE  H17X  124   3.727   3.667   5.349  1.6565 -0.1871 -0.6222
    1DOPE  H17Y  125   3.693   3.644   5.180 -0.4370 -1.8852  1.1036
    1DOPE  C318  126   3.691   3.858   5.225  0.3996  0.1852 -0.0777
    1DOPE  H18X  127   3.801   3.864   5.210  0.2515  0.1359 -1.3399
    1DOPE  H18Y  128   3.633   3.882   5.133  3.0918  3.4599 -1.1513
    1DOPE  H18Z  129   3.662   3.930   5.304  2.5660 -0.5846  1.5104
    2DOPE     N  130   3.908   4.332   7.012 -0.3230 -0.4567  0.4800
    2DOPE   HN1  131   3.927   4.393   7.095 -1.2825  1.0839 -0.3793
    2DOPE   HN2  132   3.934   4.236   7.043 -1.5435 -0.6475  0.9724
    2DOPE   HN3  133   3.976   4.363   6.940 -0.6444 -2.1008 -0.5680
    2DOPE   C12  134   3.768   4.331   6.963 -0.6164  0.1365 -0.5688
    2DOPE  H12A  135   3.752   4.416   6.894  3.1957  2.2637  0.8754
    2DOPE  H12B  136   3.703   4.334   7.054  1.0689  0.1054  0.6792
    2DOPE   C11  137   3.744   4.192   6.904  0.4166  0.1397 -0.2405
    2DOPE  H11A  138   3.815   4.193   6.818  1.5238 -0.2557  0.6497
    2DOPE  H11B  139   3.639   4.191   6.866 -0.4449 -1.8542  1.9890
    2DOPE     P  140   3.687   3.957   7.009  0.0562 -0.1078  0.3813
    2DOPE   O13  141   3.579   3.990   7.101 -0.4780 -0.2403 -0.4517
    2DOPE   O14  142   3.770   3.846   7.047 -0.1130  0.0916 -0.0358
    2DOPE   O11  143   3.626   3.929   6.866  0.3477 -0.1246  0.3644
    2DOPE   O12  144   3.775   4.089   6.999  0.1909  0.0276  0.9578
    2DOPE    C1  145   3.695   3.873   6.759  0.2247 -0.0636  0.0635
    2DOPE    HA  146   3.635   3.789   6.717 -0.3703 -0.5911  1.8567
    2DOPE    HB  147   3.784   3.815   6.792 -0.8686 -1.6924  0.2481
    2DOPE    C2  148   3.736   3.967   6.641 -0.0051 -1.0374  0.1670
    2DOPE    HS  149   3.806   4.046   6.677  0.5991 -0.8385 -1.3442
    2DOPE   O21  150   3.618   4.032   6.599 -0.5105 -0.6181 -0.2127
    2DOPE   C21  151   3.628   4.144   6.532  0.1620 -0.1470 -0.8499
    2DOPE   O22  152   3.726   4.211   6.511 -0.0433 -0.3907 -1.1724
    2DOPE   C22  153   3.486   4.175   6.473 -0.3207  0.3296 -0.5206
    2DOPE   H2R  154   3.430   4.231   6.551  0.1378  1.4599 -0.9805
    2DOPE   H2S  155   3.445   4.076   6.444 -0.1491 -0.1933  0.9341
    2DOPE    C3  156   3.803   3.889   6.524  0.1674  0.3800 -0.5616
    2DOPE    HX  157   3.728   3.814   6.490  1.0986 -0.3790 -0.9653
    2DOPE    HY  158   3.890   3.838   6.570 -0.6145 -0.3188  0.1697
    2DOPE   O31  159   3.834   3.969   6.415  0.2070  0.2148  0.1357
    2DOPE   C31  160   3.907   3.910   6.322 -0.0888  0.0354  0.5342
    2DOPE   O32  161   3.936   3.793   6.318 -0.3561 -0.3646 -0.3057
    2DOPE   C32  162   3.924   4.012   6.206  0.3421  0.0936 -0.3773
    2DOPE   H2X  163   3.848   3.977   6.133  1.3159 -2.7684 -0.1473
    2DOPE   H2Y  164   3.901   4.119   6.229  1.6305 -0.0100  1.6785
    2DOPE   C23  165   3.487   4.258   6.340 -0.7137  0.0578  0.5860
    2DOPE   H3R  166   3.569   4.207   6.285 -1.5464 -1.0822  0.3584
    2DOPE   H3S  167   3.506   4.365   6.362 -1.0161  0.0824  0.7274
    2DOPE   C24  168   3.354   4.253   6.257  0.0641 -0.2461 -0.6871
    2DOPE   H4R  169   3.328   4.146   6.240 -0.0961 -0.9233  2.9956
    2DOPE   H4S  170   3.375   4.312   6.165  1.2694  0.8721  0.2749
    2DOPE   C25  171   3.227   4.311   6.318  0.5843  0.0960 -0.1229
    2DOPE   H5R  172   3.207   4.256   6.412  1.3147 -0.2269 -0.1518
    2DOPE   H5S  173   3.148   4.303   6.240  0.1462  1.3055  0.1643
    2DOPE   C26  174   3.239   4.463   6.363  0.6066 -0.0205  0.2679
    2DOPE   H6R  175   3.291   4.535   6.297  0.1817  0.4936  0.4890
    2DOPE   H6S  176   3.308   4.456   6.450 -0.5322 -0.0059  1.2033
    2DOPE   C27  177   3.100   4.516   6.402  0.3868 -0.2769  0.0499
    2DOPE   H7R  178   3.053   4.452   6.479  1.9707 -2.8390 -0.9907
    2DOPE   H7S  179   3.046   4.498   6.306 -0.7924  1.6193  0.3025
    2DOPE   C28  180   3.100   4.662   6.439  0.0586 -0.0117 -0.2730
    2DOPE   H8R  181   3.156   4.730   6.370 -0.2002  0.2196 -0.2583
    2DOPE   H8S  182   3.152   4.669   6.537  1.2324  1.9577 -0.9806
    2DOPE   C29  183   2.959   4.705   6.467  0.2242  0.3783 -0.7714
    2DOPE   H9R  184   2.911   4.655   6.553 -0.6998 -1.0997 -2.0867
    2DOPE  C210  185   2.900   4.809   6.414  0.6053 -0.7958 -0.6297
    2DOPE  H10R  186   2.801   4.837   6.453  0.1818 -1.1595 -1.4225
    2DOPE  C211  187   2.961   4.901   6.308 -0.1644  0.1825 -0.3265
    2DOPE  H11R  188   3.066   4.879   6.278 -0.2596 -1.2285  0.2827
    2DOPE  H11S  189   2.954   5.005   6.345 -2.7834  0.6139 -1.8379
    2DOPE  C212  190   2.886   4.903   6.175  0.3422 -0.1564  0.4454
    2DOPE  H12R  191   2.942   4.969   6.106  2.5077 -1.8068  0.5444
    2DOPE  H12S  192   2.777   4.922   6.187 -0.3588 -2.9938 -0.6881
    2DOPE  C213  193   2.877   4.761   6.118  0.0221  0.3469  0.4025
    2DOPE  H13R  194   2.809   4.770   6.031 -0.0643 -0.2705  0.4036
    2DOPE  H13S  195   2.825   4.694   6.190  1.3041  1.5292  2.5457
    2DOPE  C214  196   3.000   4.703   6.055 -0.4511 -0.7597  0.1973
    2DOPE  H14R  197   3.080   4.727   6.128  0.3132  0.1022 -0.8784
    2DOPE  H14S  198   3.015   4.771   5.968  1.9761  0.7537  1.6615
    2DOPE  C215  199   2.998   4.552   6.019  0.0606 -0.4004  0.0882
    2DOPE  H15R  200   2.907   4.538   5.957 -0.1352 -0.0313  0.2942
    2DOPE  H15S  201   2.970   4.497   6.111  0.0995  0.2547  0.4967
    2DOPE  C216  202   3.124   4.492   5.961 -0.1180  0.2453  0.0141
    2DOPE  H16R  203   3.123   4.382   5.944  2.3437  0.4362 -1.9482
    2DOPE  H16S  204   3.212   4.526   6.021  0.0188  0.6036 -0.3886
    2DOPE  C217  205   3.149   4.539   5.823 -0.1230  0.3654 -1.3264
    2DOPE  H17R  206   3.117   4.641   5.793 -0.4786  0.5828 -0.2564
    2DOPE  H17S  207   3.078   4.485   5.757 -2.5686  0.5017  1.0193
    2DOPE  C218  208   3.289   4.507   5.779 -0.8511  0.3451 -0.3098
    2DOPE  H18R  209   3.315   4.402   5.804  2.8944  1.0049 -0.8403
    2DOPE  H18S  210   3.352   4.571   5.845 -1.8019 -0.1034  1.0621
    2DOPE  H18T  211   3.312   4.520   5.671 -0.2628  2.9823  0.0789
    2DOPE   C33  212   4.061   4.007   6.138 -0.7422  0.1098  0.9537
    2DOPE   H3X  213   4.074   3.900   6.113  2.2115 -0.3431  3.6973
    2DOPE   H3Y  214   4.136   4.020   6.219 -0.5135  2.7809  0.4025
    2DOPE   C34  215   4.057   4.090   6.009 -0.4809 -0.2321 -0.4145
    2DOPE   H4X  216   3.967   4.057   5.953 -0.4363  0.4326 -0.8941
    2DOPE   H4Y  217   4.038   4.199   6.017  0.7493 -0.0889  1.0131
    2DOPE   C35  218   4.182   4.066   5.918  0.3349  0.0518 -0.3194
    2DOPE   H5X  219   4.190   3.958   5.894 -1.7437 -0.3514  0.5516
    2DOPE   H5Y  220   4.270   4.092   5.981  2.0232 -0.9047 -2.2021
    2DOPE   C36  221   4.190   4.152   5.784 -0.0251 -0.2521 -0.3312
    2DOPE   H6X  222   4.283   4.147   5.725 -1.5434 -0.7640 -2.8291
    2DOPE   H6Y  223   4.166   4.253   5.823 -2.2775 -0.0951 -1.9143
    2DOPE   C37  224   4.079   4.109   5.683 -0.6578 -0.0734  0.1965
    2DOPE   H7X  225   4.104   4.009   5.640 -0.3042  0.7071 -1.4778
    2DOPE   H7Y  226   3.975   4.103   5.721 -1.4506 -1.7775 -1.9933
    2DOPE   C38  227   4.066   4.199   5.560 -0.4725  0.0307  0.7952
    2DOPE   H8X  228   4.033   4.299   5.594 -1.0571 -0.4406  1.6365
    2DOPE   H8Y  229   3.991   4.163   5.486  0.9451  3.6594 -2.8619
    2DOPE   C39  230   4.194   4.224   5.483  0.2397  0.8470  0.0306
    2DOPE   H9X  231   4.266   4.288   5.535  0.5901  0.9782 -0.6002
    2DOPE  C310  232   4.211   4.204   5.354  0.3396 -0.5271  0.4160
    2DOPE  H10X  233   4.290   4.259   5.301 -1.4682  0.2386 -1.6013
    2DOPE  C311  234   4.120   4.130   5.264  0.3276 -0.7312  0.2111
    2DOPE  H11X  235   4.171   4.042   5.220 -0.8875 -1.9248  1.1104
    2DOPE  H11Y  236   4.028   4.084   5.307 -0.7958  1.1931  0.0169
    2DOPE  C312  237   4.057   4.211   5.146 -0.5054 -0.0356  0.0191
    2DOPE  H12X  238   4.012   4.135   5.079  0.4214  0.4979 -1.2602
    2DOPE  H12Y  239   4.139   4.262   5.091  1.0903  0.6534  2.8483
    2DOPE  C313  240   3.955   4.313   5.195  0.7720  0.3858 -0.2734
    2DOPE  H13X  241   3.967   4.351   5.299 -3.5899  2.5837 -0.3257
    2DOPE  H13Y  242   3.963   4.402   5.130 -0.4083 -0.6929 -1.9601
    2DOPE  C314  243   3.811   4.260   5.164 -0.0207 -0.1115 -0.7157
    2DOPE  H14X  244   3.777   4.180   5.232 -1.2739  1.6367  0.8107
    2DOPE  H14Y  245   3.795   4.228   5.059 -0.4348  0.0725 -0.7100
    2DOPE  C315  246   3.693   4.360   5.202 -0.5520 -1.5425  0.5491
    2DOPE  H15X  247   3.714   4.399   5.304  2.6272 -0.9485 -0.2210
    2DOPE  H15Y  248   3.594   4.310   5.205 -2.1415  1.3276 -0.4026
    2DOPE  C316  249   3.667   4.477   5.101  0.2464  0.1987  0.1096
    2DOPE  H16X  250   3.757   4.541   5.089  1.0803 -1.2509 -2.1368
    2DOPE  H16Y  251   3.584   4.538   5.142 -0.0781 -1.2404  1.6691
    2DOPE  C317  252   3.643   4.427   4.954 -0.0883 -0.1880 -0.5641
    2DOPE  H17X  253   3.735   4.377   4.916 -0.0789 -1.0746  0.5351
    2DOPE  H17Y  254   3.551   4.365   4.942 -0.9979  0.9165  0.4449
    2DOPE  C318  255   3.633   4.549   4.861 -0.0322  0.4184  0.4615
    2DOPE  H18X  256   3.548   4.617   4.886  0.5290  0.6186  1.8783
    2DOPE  H18Y  257   3.728   4.606   4.872  0.2175  0.3028 -0.9161
    2DOPE  H18Z  258   3.620   4.514   4.756  0.8757  1.0600  0.1216
    3DOPE     N  259   2.078   4.873   7.030 -0.0255  0.4958  0.4530
    3DOPE   HN1  260   2.006   4.938   6.992 -1.1567 -0.9172  0.0912
    3DOPE   HN2  261   2.044   4.774   7.034  1.8757 -0.1624  1.7917
    3DOPE   HN3  262   2.095   4.913   7.125 -0.0510  1.0582  0.2206
    3DOPE   C12  263   2.203   4.863   6.952 -0.0799  0.0054 -0.0244
    3DOPE  H12A  264   2.284   4.810   7.006  1.6728  1.3811 -1.2103
    3DOPE  H12B  265   2.242   4.964   6.932 -0.3557  0.1700  0.2486
    3DOPE   C11  266   2.175   4.809   6.810 -0.1848  0.4075 -0.4013
    3DOPE  H11A  267   2.265   4.816   6.745  0.1441  1.8414  0.1884
    3DOPE  H11B  268   2.094   4.874   6.771  0.1683 -0.7815 -3.3603
    3DOPE     P  269   2.209   4.555   6.744  0.1519  0.1420  0.2398
    3DOPE   O13  270   2.132   4.429   6.775 -0.1295 -0.8709  0.0791
    3DOPE   O14  271   2.349   4.559   6.793 -0.1569  0.1326  0.3615
    3DOPE   O11  272   2.199   4.600   6.594  0.6898  0.0210  0.3480
    3DOPE   O12  273   2.133   4.673   6.814  0.2180 -0.3763  0.6052
    3DOPE    C1  274   2.304   4.658   6.513  0.4424  0.2543 -0.1670
    3DOPE    HA  275   2.365   4.731   6.571 -0.6591  0.2114  1.0804
    3DOPE    HB  276   2.265   4.724   6.432  3.1330  1.0360 -0.9553
    3DOPE    C2  277   2.403   4.556   6.445  0.3633  0.2524  0.2562
    3DOPE    HS  278   2.444   4.613   6.359 -2.1918  0.3531 -0.9813
    3DOPE   O21  279   2.333   4.442   6.401  0.2756 -0.1692  0.2775
    3DOPE   C21  280   2.250   4.457   6.304 -0.6050  0.1022  0.0232
    3DOPE   O22  281   2.219   4.555   6.241 -0.4895 -0.3842 -0.5113
    3DOPE   C22  282   2.198   4.312   6.277  0.3125  0.4567 -1.1949
    3DOPE   H2R  283   2.136   4.276   6.361 -0.5418  0.5482 -1.7806
    3DOPE   H2S  284   2.289   4.248   6.273  0.6152  0.5273  1.8241
    3DOPE    C3  285   2.518   4.506   6.529  0.3658 -0.5175  0.0384
    3DOPE    HX  286   2.482   4.424   6.596 -0.3379 -0.5044 -0.3168
    3DOPE    HY  287   2.561   4.583   6.597 -0.3392 -0.0663 -0.0093
    3DOPE   O31  288   2.626   4.468   6.450 -0.4830 -0.0342  0.2421
    3DOPE   C31  289   2.690   4.352   6.473  0.1955  0.3640  0.8808
    3DOPE   O32  290   2.674   4.290   6.572  0.3577  0.5284  0.1750
    3DOPE   C32  291   2.777   4.312   6.357  0.2691 -0.1401  0.7330
    3DOPE   H2X  292   2.807   4.400   6.297  1.1995 -0.2271  1.0452
    3DOPE   H2Y  293   2.877   4.284   6.398  0.7349  1.1344  0.5087
    3DOPE   C23  294   2.114   4.295   6.148  0.2160 -0.8964  0.2795
    3DOPE   H3R  295   2.167   4.320   6.053 -2.7225 -0.7886 -1.4633
    3DOPE   H3S  296   2.027   4.364   6.153  0.2266 -0.8354 -0.2474
    3DOPE   C24  297   2.071   4.148   6.135  0.0423 -0.1468  0.0612
    3DOPE   H4R  298   1.995   4.119   6.211 -0.2904  0.7158  0.0666
    3DOPE   H4S  299   2.159   4.087   6.162 -1.4424 -1.1191  3.0643
    3DOPE   C25  300   2.009   4.102   6.010  0.1563  0.2324 -0.0034
    3DOPE   H5R  301   1.922   4.165   5.979  1.7085  1.4958 -2.0374
    3DOPE   H5S  302   1.972   3.997   6.015 -0.3827  0.3943 -0.4119
    3DOPE   C26  303   2.103   4.105   5.885  0.3398  0.0942  0.5407
    3DOPE   H6R  304   2.183   4.027   5.884  0.6235  0.3911 -0.0194
    3DOPE   H6S  305   2.160   4.200   5.877  0.1219  0.1250 -0.9037
    3DOPE   C27  306   2.025   4.088   5.751  0.0559  0.3754  0.0911
    3DOPE   H7R  307   2.095   4.093   5.665 -0.8291 -1.7831 -0.8073
    3DOPE   H7S  308   1.960   4.178   5.744 -1.6575 -0.9070 -1.1928
    3DOPE   C28  309   1.928   3.971   5.740 -0.2008 -0.3700  0.6013
    3DOPE   H8R  310   1.852   4.005   5.666  0.1419 -1.3909 -0.2415
    3DOPE   H8S  311   1.873   3.942   5.832 -1.7064 -1.8532 -0.6844
    3DOPE   C29  312   1.996   3.844   5.699 -0.6275 -0.4035 -0.4626
    3DOPE   H9R  313   2.081   3.818   5.763 -1.3547  1.0640  1.1726
    3DOPE  C210  314   1.967   3.774   5.590 -0.2652 -0.0686 -0.5660
    3DOPE  H10R  315   2.030   3.689   5.561 -2.0768 -1.2145 -1.2856
    3DOPE  C211  316   1.854   3.798   5.496  0.3331 -0.4084  0.7671
    3DOPE  H11R  317   1.771   3.864   5.528 -1.3938 -0.5570 -2.8464
    3DOPE  H11S  318   1.804   3.699   5.489 -0.5620 -0.1199  2.5191
    3DOPE  C212  319   1.880   3.851   5.356 -0.7503 -0.7157  0.1656
    3DOPE  H12R  320   1.967   3.795   5.317 -1.4168 -2.1114  0.6161
    3DOPE  H12S  321   1.918   3.955   5.367  2.7658 -1.8547  0.0911
    3DOPE  C213  322   1.760   3.828   5.268 -0.1662 -0.3116  0.9285
    3DOPE  H13R  323   1.672   3.882   5.309 -0.1781 -0.7838  1.5336
    3DOPE  H13S  324   1.736   3.720   5.266 -0.1340 -0.3168 -0.8804
    3DOPE  C214  325   1.793   3.867   5.118  0.2437  0.2867 -0.6240
    3DOPE  H14R  326   1.884   3.812   5.086  1.0424  0.7916  0.6888
    3DOPE  H14S  327   1.826   3.973   5.114  0.8690  0.0861 -0.8982
    3DOPE  C215  328   1.680   3.848   5.018  0.4637  0.5499 -0.0108
    3DOPE  H15R  329   1.636   3.746   5.027  0.5161  0.2924 -2.0286
    3DOPE  H15S  330   1.719   3.885   4.920 -2.0242  0.6492 -1.0458
    3DOPE  C216  331   1.562   3.932   5.063 -0.4174  0.4539  0.0267
    3DOPE  H16R  332   1.592   4.036   5.090  1.2520 -0.0434  0.1658
    3DOPE  H16S  333   1.529   3.897   5.163  2.2776 -1.2349  0.4143
    3DOPE  C217  334   1.453   3.945   4.954 -0.6219  0.4514 -0.3882
    3DOPE  H17R  335   1.407   3.849   4.924 -1.1995  0.0001  1.7653
    3DOPE  H17S  336   1.495   3.972   4.855  0.9338 -0.6163 -0.0434
    3DOPE  C218  337   1.335   4.036   4.989  0.3144  0.2916 -0.4068
    3DOPE  H18R  338   1.255   3.981   5.044  0.1127 -2.8291 -3.5119
    3DOPE  H18S  339   1.294   4.044   4.886  2.5194 -0.2141 -1.3776
    3DOPE  H18T  340   1.370   4.131   5.033 -0.7347  0.4949  0.0360
    3DOPE   C33  341   2.728   4.203   6.258  0.0606 -0.8661  0.7452
    3DOPE   H3X  342   2.704   4.108   6.309 -1.2990 -0.9337  0.0066
    3DOPE   H3Y  343   2.812   4.171   6.192 -0.4687 -2.6055  0.8674
    3DOPE   C34  344   2.622   4.266   6.164 -0.6026 -0.6557 -0.4771
    3DOPE   H4X  345   2.579   4.187   6.099 -1.5633 -0.5966  0.0787
    3DOPE   H4Y  346   2.551   4.316   6.232  1.6826 -0.7251  2.1347
    3DOPE   C35  347   2.679   4.379   6.069 -0.0489 -0.2365  0.4576
    3DOPE   H5X  348   2.777   4.352   6.023  0.8107  1.4509  1.2050
    3DOPE   H5Y  349   2.706   4.470   6.127  0.0877 -0.7492  1.2153
    3DOPE   C36  350   2.573   4.417   5.965  0.2595 -0.3942 -0.6004
    3DOPE   H6X  351   2.469   4.425   6.004  1.3384  2.1925  2.0854
    3DOPE   H6Y  352   2.570   4.337   5.887  1.3984 -0.8596 -0.1946
    3DOPE   C37  353   2.605   4.557   5.904 -0.3511  0.5806  0.1367
    3DOPE   H7X  354   2.628   4.629   5.985 -0.8528 -0.7973  1.5545
    3DOPE   H7Y  355   2.694   4.545   5.838 -0.3518  0.1350  0.2091
    3DOPE   C38  356   2.502   4.626   5.818  1.0590 -0.6698  0.2874
    3DOPE   H8X  357   2.527   4.731   5.792 -1.1998  0.2067  1.4359
    3DOPE   H8Y  358   2.405   4.632   5.872  0.0609 -1.5402 -1.3465
    3DOPE   C39  359   2.479   4.541   5.693 -0.9170 -0.7143  0.4645
    3DOPE   H9X  360   2.560   4.567   5.623 -0.3603 -3.7654 -0.1283
    3DOPE  C310  361   2.378   4.461   5.650  0.2723  0.2571  0.4006
    3DOPE  H10X  362   2.395   4.415   5.552  1.7965 -1.4246  1.3803
    3DOPE  C311  363   2.246   4.431   5.723  0.2230 -0.3612 -0.0550
    3DOPE  H11X  364   2.237   4.324   5.753 -2.0366  0.1733  1.4129
    3DOPE  H11Y  365   2.249   4.480   5.823  2.0153  0.8332 -0.6406
    3DOPE  C312  366   2.128   4.480   5.645 -0.7027 -0.9036  0.1162
    3DOPE  H12X  367   2.130   4.587   5.614 -1.3954 -0.8463  0.2629
    3DOPE  H12Y  368   2.037   4.486   5.708 -0.2848  0.8879  0.6135
    3DOPE  C313  369   2.105   4.390   5.522  0.3026  0.0629 -0.1564
    3DOPE  H13X  370   2.182   4.406   5.443 -1.2207  2.4962 -1.2718
    3DOPE  H13Y  371   2.095   4.286   5.558 -0.0140  0.4568  0.9450
    3DOPE  C314  372   1.971   4.424   5.456  0.2580  0.4167  0.3943
    3DOPE  H14X  373   1.963   4.531   5.431 -1.7613 -0.2518 -2.2925
    3DOPE  H14Y  374   1.890   4.393   5.525 -0.4610  2.4117  0.5044
    3DOPE  C315  375   1.940   4.340   5.332 -0.1667 -0.5042 -0.0311
    3DOPE  H15X  376   1.941   4.235   5.370  0.3953 -0.4586  0.0878
    3DOPE  H15Y  377   2.031   4.350   5.270 -0.4255 -0.2844 -0.3765
    3DOPE  C316  378   1.809   4.382   5.266  0.5288  1.0030  0.6030
    3DOPE  H16X  379   1.818   4.487   5.230 -0.9890  0.6558 -0.9366
    3DOPE  H16Y  380   1.729   4.369   5.343  1.3285 -2.1988  1.0605
    3DOPE  C317  381   1.773   4.291   5.153  0.2685  0.6061  0.3532
    3DOPE  H17X  382   1.854   4.285   5.078 -0.1266 -0.7189 -0.0068
    3DOPE  H17Y  383   1.752   4.190   5.194  0.6359 -0.1685 -1.2670
    3DOPE  C318  384   1.649   4.339   5.070  0.0953  0.1697  0.5242
    3DOPE  H18X  385   1.556   4.317   5.125 -0.0975 -1.7761 -0.4823
    3DOPE  H18Y  386   1.661   4.447   5.048  2.9196 -0.4073 -1.3783
    3DOPE  H18Z  387   1.647   4.290   4.970 -1.4020 -0.6439  0.9278
    4DOPE     N  388   3.862   2.089   7.111 -0.3047  0.4311  0.0524
    4DOPE   HN1  389   3.869   2.012   7.181  0.1142  0.2196 -0.2153
    4DOPE   HN2  390   3.828   2.178   7.153  0.0201  2.1637 -3.0622
    4DOPE   HN3  391   3.796   2.056   7.038  0.6114  0.7875 -0.9628
    4DOPE   C12  392   3.987   2.120   7.038  0.3555  0.5306 -0.0199
    4DOPE  H12A  393   4.014   2.027   6.983 -1.4292 -0.5248  0.8192
    4DOPE  H12B  394   4.067   2.136   7.114  1.2101 -2.0224 -0.2649
    4DOPE   C11  395   3.967   2.240   6.938 -0.5585  0.1955 -0.1496
    4DOPE  H11A  396   3.912   2.202   6.849  2.7479 -0.3410 -2.1538
    4DOPE  H11B  397   4.063   2.280   6.900  0.9693 -3.0143  0.0388
    4DOPE     P  398   3.955   2.470   7.069  0.4234  0.1685  0.0332
    4DOPE   O13  399   4.035   2.412   7.175 -0.4665 -1.3070 -0.0048
    4DOPE   O14  400   3.844   2.560   7.117  0.1948  0.2529 -0.3406
    4DOPE   O11  401   4.044   2.535   6.962  0.0762 -0.7023  0.0228
    4DOPE   O12  402   3.894   2.346   6.995  1.1320  0.1107 -0.5373
    4DOPE    C1  403   4.024   2.649   6.877  0.0984  0.2708  0.5355
    4DOPE    HA  404   4.125   2.696   6.873  0.4172 -0.4582 -0.0888
    4DOPE    HB  405   3.952   2.720   6.922 -2.1048 -1.3900 -0.2145
    4DOPE    C2  406   3.971   2.633   6.730 -0.0037 -0.4588  0.0315
    4DOPE    HS  407   3.881   2.568   6.737 -0.3034 -0.0975 -0.3864
    4DOPE   O21  408   4.078   2.575   6.658 -0.0544 -0.4961 -0.0995
    4DOPE   C21  409   4.055   2.462   6.599  0.2481 -0.1893 -0.0408
    4DOPE   O22  410   3.942   2.409   6.604  0.0140 -0.3356  0.7051
    4DOPE   C22  411   4.176   2.409   6.525  0.5166 -0.2797  0.7851
    4DOPE   H2R  412   4.228   2.352   6.604  0.0969 -2.0793 -0.1887
    4DOPE   H2S  413   4.232   2.500   6.493 -0.8209  0.4690  0.4859
    4DOPE    C3  414   3.919   2.769   6.655  0.0041  0.3517  0.4662
    4DOPE    HX  415   4.004   2.840   6.656 -0.0203  0.3847  0.2271
    4DOPE    HY  416   3.840   2.810   6.721 -1.9179 -1.0708 -0.8458
    4DOPE   O31  417   3.876   2.755   6.519  0.2910 -0.0224  0.4693
    4DOPE   C31  418   3.762   2.690   6.509 -0.0018  0.3761  0.2862
    4DOPE   O32  419   3.696   2.645   6.607 -0.2742 -0.4841  0.3373
    4DOPE   C32  420   3.712   2.675   6.369  0.9276 -0.1187 -0.3884
    4DOPE   H2X  421   3.644   2.762   6.361  1.5742  0.6433  1.7847
    4DOPE   H2Y  422   3.797   2.711   6.306 -0.1783  1.4760 -1.0375
    4DOPE   C23  423   4.138   2.313   6.407  0.0831  0.3576  0.2390
    4DOPE   H3R  424   4.117   2.380   6.320 -0.2491 -1.8289 -1.4589
    4DOPE   H3S  425   4.061   2.236   6.427  2.4912 -1.7476  2.0902
    4DOPE   C24  426   4.258   2.223   6.365  0.6908 -0.0933  0.9047
    4DOPE   H4R  427   4.228   2.137   6.302  0.2695  1.3130 -0.8968
    4DOPE   H4S  428   4.289   2.183   6.464  3.5920 -0.2902  0.0139
    4DOPE   C25  429   4.372   2.306   6.308  0.3268  0.2467  0.2639
    4DOPE   H5R  430   4.463   2.286   6.369  0.2745 -0.7429  0.0425
    4DOPE   H5S  431   4.353   2.414   6.325  1.6081  0.5651 -0.1798
    4DOPE   C26  432   4.406   2.277   6.170 -0.2944  0.0872 -0.2160
    4DOPE   H6R  433   4.425   2.168   6.173 -2.1872 -0.2771 -0.1083
    4DOPE   H6S  434   4.500   2.327   6.138  1.8678 -1.8955  2.5437
    4DOPE   C27  435   4.296   2.299   6.068  0.5108 -0.1497 -0.6975
    4DOPE   H7R  436   4.251   2.400   6.073 -2.2763 -1.3534  0.7353
    4DOPE   H7S  437   4.220   2.224   6.099  1.5921 -1.8512 -2.0136
    4DOPE   C28  438   4.345   2.266   5.926 -0.0971  0.1156 -0.1856
    4DOPE   H8R  439   4.382   2.162   5.936  0.4408  0.3216 -0.0195
    4DOPE   H8S  440   4.430   2.335   5.908 -0.4149  0.5331 -0.1098
    4DOPE   C29  441   4.248   2.278   5.812 -0.1419  0.1420  0.4047
    4DOPE   H9R  442   4.193   2.185   5.794  1.3348 -0.8259  0.6667
    4DOPE  C210  443   4.212   2.388   5.758  0.1735  0.4311  0.2849
    4DOPE  H10R  444   4.131   2.391   5.684  1.7523 -0.4480 -1.5643
    4DOPE  C211  445   4.268   2.522   5.786  0.5507  0.2871 -0.0213
    4DOPE  H11R  446   4.342   2.518   5.868 -2.0502 -1.5288  2.4565
    4DOPE  H11S  447   4.193   2.595   5.825  0.3067  0.5195 -0.9060
    4DOPE  C212  448   4.334   2.569   5.661  0.0785 -0.6093 -0.5457
    4DOPE  H12R  449   4.384   2.664   5.688 -2.0496  0.3227  0.3103
    4DOPE  H12S  450   4.250   2.587   5.592  1.3124  1.2657 -1.6530
    4DOPE  C213  451   4.441   2.475   5.601  0.5023  0.4237 -0.2014
    4DOPE  H13R  452   4.385   2.380   5.587 -0.7531  1.1141 -0.0030
    4DOPE  H13S  453   4.528   2.460   5.669  0.1986  0.1431  0.1273
    4DOPE  C214  454   4.496   2.531   5.467  0.6200 -0.3081 -0.0966
    4DOPE  H14R  455   4.534   2.631   5.498 -5.6978  3.2142 -1.8199
    4DOPE  H14S  456   4.410   2.558   5.402  1.9619  1.7068 -1.1709
    4DOPE  C215  457   4.599   2.442   5.391 -0.0361  0.3150  0.0277
    4DOPE  H15R  458   4.562   2.337   5.388 -1.1862  0.6896  0.3454
    4DOPE  H15S  459   4.691   2.435   5.453 -0.9554  1.0658  1.5535
    4DOPE  C216  460   4.643   2.487   5.247  0.3410  0.4397 -0.3846
    4DOPE  H16R  461   4.740   2.437   5.227  1.3302  2.3123 -0.4791
    4DOPE  H16S  462   4.654   2.597   5.243 -1.7658  0.7894  1.2806
    4DOPE  C217  463   4.551   2.434   5.134 -0.3364 -0.0842 -0.1658
    4DOPE  H17R  464   4.449   2.476   5.144  0.6251  2.7097 -1.0326
    4DOPE  H17S  465   4.546   2.323   5.124  1.2805 -0.2979  0.9125
    4DOPE  C218  466   4.609   2.496   5.003  0.6280  0.6791  0.4875
    4DOPE  H18R  467   4.709   2.457   4.975 -0.0353 -1.4007  0.8820
    4DOPE  H18S  468   4.620   2.606   5.018 -0.3473  0.9900 -0.8602
    4DOPE  H18T  469   4.543   2.478   4.915 -0.0759  0.4570  1.0551
    4DOPE   C33  470   3.639   2.540   6.343  0.3308  0.0077 -0.4393
    4DOPE   H3X  471   3.539   2.531   6.390  0.5126 -0.7964 -0.1935
    4DOPE   H3Y  472   3.691   2.455   6.392 -1.1685 -0.7347 -0.0847
    4DOPE   C34  473   3.623   2.519   6.190  0.0132 -0.0087  0.6998
    4DOPE   H4X  474   3.559   2.428   6.178  0.7969 -0.4636 -0.2284
    4DOPE   H4Y  475   3.563   2.597   6.139  0.9966  0.8984  0.9008
    4DOPE   C35  476   3.753   2.486   6.115  0.1458  0.8966 -0.3657
    4DOPE   H5X  477   3.831   2.455   6.189 -0.9571  1.3548  1.0512
    4DOPE   H5Y  478   3.796   2.576   6.067  0.7328  0.7224 -0.1801
    4DOPE   C36  479   3.726   2.378   6.013  0.3899  0.0590  0.2749
    4DOPE   H6X  480   3.634   2.401   5.954  0.7523  0.4163 -0.1630
    4DOPE   H6Y  481   3.700   2.284   6.066 -1.5493  0.9636  1.0521
    4DOPE   C37  482   3.836   2.362   5.909 -0.6040 -0.5442  0.1883
    4DOPE   H7X  483   3.937   2.364   5.956  0.7542 -1.7602 -2.4120
    4DOPE   H7Y  484   3.837   2.269   5.848  2.0862  0.1588 -1.0302
    4DOPE   C38  485   3.851   2.481   5.807 -0.3335  0.0437 -0.1485
    4DOPE   H8X  486   3.939   2.445   5.749  0.9331 -1.7705  2.6723
    4DOPE   H8Y  487   3.875   2.574   5.863 -0.9686 -0.4397  0.9656
    4DOPE   C39  488   3.723   2.515   5.729 -0.6433  0.6205 -0.3959
    4DOPE   H9X  489   3.651   2.583   5.777  1.2131  1.6693  1.0499
    4DOPE  C310  490   3.685   2.469   5.610 -0.0172 -0.2838  0.5614
    4DOPE  H10X  491   3.592   2.506   5.566  0.8366 -0.9419 -1.9593
    4DOPE  C311  492   3.767   2.365   5.535  0.4314  0.7002  0.2192
    4DOPE  H11X  493   3.814   2.296   5.609  0.9409 -1.7282 -2.2404
    4DOPE  H11Y  494   3.701   2.296   5.480 -0.6724  1.8766  0.0131
    4DOPE  C312  495   3.880   2.418   5.450  0.2639  0.3325 -0.2676
    4DOPE  H12X  496   3.943   2.477   5.519 -0.8344  0.6880  0.4568
    4DOPE  H12Y  497   3.837   2.490   5.377 -2.2317 -1.1395 -0.3401
    4DOPE  C313  498   3.954   2.302   5.377  1.0474 -0.5635  0.2759
    4DOPE  H13X  499   3.999   2.243   5.460  1.7755 -0.2498  0.1119
    4DOPE  H13Y  500   3.882   2.243   5.317  0.8359 -1.7223  1.6233
    4DOPE  C314  501   4.076   2.346   5.287  0.9522 -0.6528 -0.1043
    4DOPE  H14X  502   4.162   2.277   5.295  0.8465 -1.1741 -2.7468
    4DOPE  H14Y  503   4.107   2.442   5.335  2.0926 -0.5306 -1.0419
    4DOPE  C315  504   4.037   2.377   5.140  0.1853  0.4058 -0.6418
    4DOPE  H15X  505   3.928   2.402   5.135 -0.0614 -0.6319 -0.6452
    4DOPE  H15Y  506   4.066   2.279   5.098  1.3045 -0.5352  2.1019
    4DOPE  C316  507   4.119   2.485   5.074  0.6689 -0.6314 -0.1363
    4DOPE  H16X  508   4.223   2.478   5.111  0.6069  2.2350  0.8423
    4DOPE  H16Y  509   4.087   2.587   5.106 -2.3637 -1.2242 -0.9250
    4DOPE  C317  510   4.134   2.470   4.921 -0.7420 -0.2548 -0.4216
    4DOPE  H17X  511   4.173   2.367   4.899  0.8929  0.3449 -0.5056
    4DOPE  H17Y  512   4.029   2.471   4.886 -0.7705 -0.2506 -0.3348
    4DOPE  C318  513   4.225   2.578   4.870  0.1323  0.8057 -0.1148
    4DOPE  H18X  514   4.258   2.555   4.767 -0.9568 -1.9085  0.0437
    4DOPE  H18Y  515   4.175   2.676   4.885 -0.4779  0.5695 -0.5446
    4DOPE  H18Z  516   4.307   2.570   4.944  0.2419 -0.8839 -0.3759
    5DOPE     N  517   2.160   3.739   6.858  0.1593  0.3595 -0.0117
    5DOPE   HN1  518   2.211   3.791   6.932 -0.4317 -0.0108  0.6673
    5DOPE   HN2  519   2.103   3.674   6.917  1.3682  0.1255  0.9288
    5DOPE   HN3  520   2.222   3.672   6.808 -0.6206 -1.8372  1.8164
    5DOPE   C12  521   2.085   3.828   6.763  1.0107 -0.1473  0.9813
    5DOPE  H12A  522   2.167   3.870   6.701 -0.1988 -0.1364 -0.6727
    5DOPE  H12B  523   2.040   3.908   6.825  2.3595 -0.3087  2.2176
    5DOPE   C11  524   1.982   3.734   6.689 -0.6405 -0.3792 -0.3796
    5DOPE  H11A  525   2.042   3.668   6.623 -1.7667 -1.8109 -0.0286
    5DOPE  H11B  526   1.915   3.789   6.619  1.0974 -0.6484 -2.3617
    5DOPE     P  527   1.776   3.701   6.842  0.0937  0.1177  0.2469
    5DOPE   O13  528   1.801   3.804   6.946 -0.0942  0.1114  0.0359
    5DOPE   O14  529   1.692   3.587   6.888 -0.2129 -0.3141 -0.1327
    5DOPE   O11  530   1.696   3.768   6.718 -0.2146 -0.2422 -0.1411
    5DOPE   O12  531   1.911   3.650   6.781 -0.1481  0.3976  0.3402
    5DOPE    C1  532   1.610   3.709   6.624  0.3472 -0.2863 -0.2788
    5DOPE    HA  533   1.503   3.728   6.646 -0.1139  1.1572 -3.2569
    5DOPE    HB  534   1.638   3.602   6.614  0.5894 -0.3052  0.5212
    5DOPE    C2  535   1.628   3.765   6.483  0.4723  0.8528  0.8621
    5DOPE    HS  536   1.734   3.751   6.454  0.2860  1.0847  0.0330
    5DOPE   O21  537   1.598   3.904   6.492  0.6092 -0.0903  0.5371
    5DOPE   C21  538   1.679   3.983   6.428 -0.0964 -0.3406 -0.0350
    5DOPE   O22  539   1.791   3.957   6.382 -0.0257 -0.0542 -0.2962
    5DOPE   C22  540   1.621   4.120   6.428 -0.2942 -0.2662  0.2645
    5DOPE   H2R  541   1.658   4.183   6.511 -0.8938 -0.3085  0.5665
    5DOPE   H2S  542   1.510   4.112   6.426 -0.3422  0.0576 -2.5836
    5DOPE    C3  543   1.545   3.695   6.364  0.1869 -0.2309 -0.5122
    5DOPE    HX  544   1.435   3.703   6.374  0.2988 -0.8285  1.5358
    5DOPE    HY  545   1.563   3.586   6.379  1.4062 -0.4424 -2.9150
    5DOPE   O31  546   1.583   3.749   6.237  0.5703  0.2768  0.0666
    5DOPE   C31  547   1.667   3.675   6.168 -0.5162 -0.9602 -0.3841
    5DOPE   O32  548   1.703   3.564   6.203 -0.4683  0.1026 -0.0133
    5DOPE   C32  549   1.697   3.739   6.030  0.0543  0.6137  0.8266
    5DOPE   H2X  550   1.698   3.850   6.043  1.0461  0.7349 -0.1311
    5DOPE   H2Y  551   1.796   3.699   5.999 -1.4091 -0.8453 -2.4230
    5DOPE   C23  552   1.666   4.187   6.290  0.0347 -0.1751 -0.2654
    5DOPE   H3R  553   1.635   4.133   6.198  1.3009  1.2322 -1.5724
    5DOPE   H3S  554   1.776   4.197   6.285  0.2478 -1.4645  1.0442
    5DOPE   C24  555   1.610   4.332   6.280 -0.2064  0.6614  0.4512
    5DOPE   H4R  556   1.616   4.382   6.379  4.1692  0.7075  0.3807
    5DOPE   H4S  557   1.504   4.339   6.246  0.0998 -2.7212 -1.6685
    5DOPE   C25  558   1.698   4.417   6.186  0.1222  0.1623  0.2707
    5DOPE   H5R  559   1.799   4.417   6.233  1.0522 -2.1133 -1.5659
    5DOPE   H5S  560   1.661   4.521   6.200  0.8857  0.4526  0.2244
    5DOPE   C26  561   1.683   4.372   6.030  0.4854  0.1129 -0.1532
    5DOPE   H6R  562   1.574   4.364   6.009  0.6487  0.7205 -1.3311
    5DOPE   H6S  563   1.715   4.266   6.022 -0.1785 -0.0825 -0.2792
    5DOPE   C27  564   1.771   4.452   5.929 -0.8977  0.4166 -0.9000
    5DOPE   H7R  565   1.774   4.404   5.829  2.6516 -0.1784 -0.6292
    5DOPE   H7S  566   1.872   4.460   5.976 -1.1843  0.4297 -0.2796
    5DOPE   C28  567   1.741   4.607   5.924  0.7030  0.2391  0.3253
    5DOPE   H8R  568   1.803   4.654   5.846  0.7200 -1.5367 -0.7776
    5DOPE   H8S  569   1.762   4.665   6.017  0.4229  2.3485 -0.8672
    5DOPE   C29  570   1.595   4.625   5.888  1.0429  0.3743  0.3227
    5DOPE   H9R  571   1.522   4.626   5.970  1.6938  1.5362  0.9201
    5DOPE  C210  572   1.531   4.621   5.771 -0.1274  0.7218  0.6058
    5DOPE  H10R  573   1.424   4.645   5.763  0.2184  1.8336 -0.9640
    5DOPE  C211  574   1.591   4.600   5.635 -0.0125 -0.0587 -0.0252
    5DOPE  H11R  575   1.530   4.519   5.590 -0.6048  0.8973 -0.9731
    5DOPE  H11S  576   1.697   4.567   5.648 -0.3681 -0.9980  0.6301
    5DOPE  C212  577   1.592   4.719   5.548  0.4466  0.1700  0.2056
    5DOPE  H12R  578   1.644   4.812   5.582 -0.8186  0.4067  1.6222
    5DOPE  H12S  579   1.485   4.745   5.532  0.2480  0.3159  1.5904
    5DOPE  C213  580   1.657   4.690   5.405  0.0512 -0.3239 -0.2131
    5DOPE  H13R  581   1.606   4.599   5.367  0.7944 -0.8684  0.0817
    5DOPE  H13S  582   1.767   4.676   5.409 -0.2258 -2.4576  1.1852
    5DOPE  C214  583   1.636   4.798   5.298 -0.6061  0.5643  0.1931
    5DOPE  H14R  584   1.675   4.895   5.333  0.0988  0.7766 -1.1278
    5DOPE  H14S  585   1.525   4.805   5.287 -0.6697 -0.8488 -0.2639
    5DOPE  C215  586   1.695   4.756   5.161 -1.0254 -0.1384  0.6654
    5DOPE  H15R  587   1.683   4.647   5.144  1.7587 -0.2023 -1.7764
    5DOPE  H15S  588   1.806   4.766   5.160 -0.9255 -0.7140 -1.9729
    5DOPE  C216  589   1.651   4.822   5.027  0.3916  0.2322  0.0120
    5DOPE  H16R  590   1.674   4.930   5.019  1.4675  0.0266  0.1975
    5DOPE  H16S  591   1.540   4.819   5.021  0.3869 -0.8843  0.4021
    5DOPE  C217  592   1.697   4.754   4.907  0.2197 -0.1889  0.1018
    5DOPE  H17R  593   1.652   4.655   4.885  1.9879 -0.7360 -1.3658
    5DOPE  H17S  594   1.806   4.735   4.917  0.3860  1.1375  1.1965
    5DOPE  C218  595   1.663   4.833   4.780 -0.1890  0.3726 -0.3987
    5DOPE  H18R  596   1.554   4.851   4.775  0.0567  1.9719 -0.3886
    5DOPE  H18S  597   1.699   4.776   4.691  0.7667 -3.6303  2.2916
    5DOPE  H18T  598   1.725   4.925   4.788  0.7002 -0.2989  0.6673
    5DOPE   C33  599   1.587   3.705   5.922 -0.5002 -0.0661 -0.4946
    5DOPE   H3X  600   1.510   3.784   5.939  0.8889  0.9926  1.2756
    5DOPE   H3Y  601   1.538   3.608   5.944 -0.3394 -0.1922 -0.6887
    5DOPE   C34  602   1.645   3.715   5.779 -0.1352  0.1513 -0.6660
    5DOPE   H4X  603   1.670   3.823   5.768 -1.2862  0.6562  1.2543
    5DOPE   H4Y  604   1.740   3.656   5.776  1.0629  1.9533  0.0016
    5DOPE   C35  605   1.550   3.684   5.660  0.1239 -0.4019  0.0557
    5DOPE   H5X  606   1.601   3.665   5.563  1.4225 -0.5914  0.7592
    5DOPE   H5Y  607   1.487   3.774   5.643  1.1937  0.2995 -0.3156
    5DOPE   C36  608   1.452   3.571   5.686  0.4545  0.1691 -0.1299
    5DOPE   H6X  609   1.381   3.578   5.771 -0.3942  0.2267 -0.8205
    5DOPE   H6Y  610   1.498   3.471   5.699 -1.3017 -0.6109  0.3752
    5DOPE   C37  611   1.353   3.553   5.567  0.6713 -0.1545  0.1795
    5DOPE   H7X  612   1.308   3.451   5.569  1.6048 -0.6356 -1.3310
    5DOPE   H7Y  613   1.277   3.632   5.580  2.1289  1.4867 -0.7770
    5DOPE   C38  614   1.410   3.576   5.425 -0.0994  0.0788 -0.1248
    5DOPE   H8X  615   1.451   3.678   5.411 -1.4089  0.7841  0.9658
    5DOPE   H8Y  616   1.315   3.582   5.367 -2.9241  0.9855  4.1289
    5DOPE   C39  617   1.501   3.455   5.401  0.2596  0.4831 -1.4615
    5DOPE   H9X  618   1.571   3.435   5.483 -2.2241  0.1092  0.7163
    5DOPE  C310  619   1.483   3.350   5.316 -0.3111 -0.3363 -0.5566
    5DOPE  H10X  620   1.542   3.257   5.324 -0.6673 -0.6165 -1.0878
    5DOPE  C311  621   1.382   3.347   5.203  0.0677  0.0957  0.5301
    5DOPE  H11X  622   1.326   3.251   5.206 -0.0956  0.0887 -1.4807
    5DOPE  H11Y  623   1.307   3.429   5.198  0.7860  1.0469  3.3881
    5DOPE  C312  624   1.459   3.338   5.068  0.6741 -0.3040  0.1820
    5DOPE  H12X  625   1.393   3.319   4.981 -0.6015  1.9607  0.5836
    5DOPE  H12Y  626   1.540   3.262   5.070 -0.3217 -1.3723  1.1866
    5DOPE  C313  627   1.525   3.476   5.028 -0.5368 -0.2944 -0.8241
    5DOPE  H13X  628   1.461   3.552   5.077 -2.5334 -1.8822 -0.8457
    5DOPE  H13Y  629   1.626   3.482   5.076  0.7637 -3.0925 -2.9338
    5DOPE  C314  630   1.545   3.506   4.875 -0.3790 -0.3202 -0.0651
    5DOPE  H14X  631   1.547   3.615   4.853 -1.6368 -0.1208  0.7464
    5DOPE  H14Y  632   1.452   3.476   4.823 -0.3922  0.8431 -0.7506
    5DOPE  C315  633   1.665   3.423   4.823  0.2009 -0.4321 -0.4273
    5DOPE  H15X  634   1.660   3.315   4.849  0.8054 -0.8486 -1.9149
    5DOPE  H15Y  635   1.759   3.466   4.864 -0.0894  0.1675 -0.3854
    5DOPE  C316  636   1.672   3.433   4.670 -0.2755  0.1376  0.3877
    5DOPE  H16X  637   1.665   3.537   4.630 -2.4511 -0.6471 -1.5540
    5DOPE  H16Y  638   1.578   3.388   4.631 -0.0091 -0.8138  0.8302
    5DOPE  C317  639   1.788   3.360   4.607 -0.4874 -0.0295  0.1744
    5DOPE  H17X  640   1.885   3.404   4.639 -0.2336  0.5545 -1.3042
    5DOPE  H17Y  641   1.794   3.254   4.641 -1.7638 -1.1585 -2.7650
    5DOPE  C318  642   1.790   3.370   4.456 -0.1088 -0.0211  0.3364
    5DOPE  H18X  643   1.820   3.474   4.432 -0.9102  0.7165  2.3249
    5DOPE  H18Y  644   1.869   3.299   4.421 -0.6331 -1.7343  2.4131
    5DOPE  H18Z  645   1.694   3.341   4.409  0.0906 -0.7759  0.3671
    6DOPE     N  646   1.825   5.390   7.077  0.1062  0.2416 -0.4979
    6DOPE   HN1  647   1.731   5.432   7.090  1.8163  3.8015  1.8865
    6DOPE   HN2  648   1.822   5.295   7.119  1.7171  0.0343 -0.7699
    6DOPE   HN3  649   1.893   5.438   7.140 -0.1668  0.4892 -0.3952
    6DOPE   C12  650   1.871   5.379   6.935 -0.2862  0.0713 -0.3537
    6DOPE  H12A  651   1.946   5.297   6.932 -0.7858 -0.3498 -1.9068
    6DOPE  H12B  652   1.910   5.480   6.909 -1.6767  1.1684  1.5780
    6DOPE   C11  653   1.755   5.350   6.838  0.1555  0.1360  0.3097
    6DOPE  H11A  654   1.784   5.372   6.733  0.6862 -1.6532  0.0504
    6DOPE  H11B  655   1.677   5.426   6.860 -1.3799 -1.1491 -0.4516
    6DOPE     P  656   1.779   5.087   6.808 -0.0822  0.3198  0.1308
    6DOPE   O13  657   1.672   4.994   6.762  0.7171 -0.1417  0.0437
    6DOPE   O14  658   1.870   5.037   6.912  0.1648  0.1075 -0.2048
    6DOPE   O11  659   1.863   5.148   6.690  0.0049 -0.0226  0.4890
    6DOPE   O12  660   1.704   5.214   6.857  0.1058  0.2935 -0.0896
    6DOPE    C1  661   1.812   5.164   6.561  0.1971 -0.1465 -0.0247
    6DOPE    HA  662   1.803   5.272   6.534  0.6660 -0.2078 -0.4519
    6DOPE    HB  663   1.704   5.139   6.561  0.2378 -0.3231 -0.2800
    6DOPE    C2  664   1.903   5.089   6.452 -0.1751  0.3277  0.5357
    6DOPE    HS  665   1.881   4.983   6.475  1.8059  0.0405  1.2154
    6DOPE   O21  666   2.041   5.125   6.465  0.4708 -0.1686  0.3029
    6DOPE   C21  667   2.121   5.013   6.473 -0.3649 -0.1253 -0.2200
    6DOPE   O22  668   2.087   4.897   6.491  0.2750 -0.2732  0.0197
    6DOPE   C22  669   2.259   5.067   6.489 -0.1462 -0.4977  0.1102
    6DOPE   H2R  670   2.325   4.981   6.514  0.6341 -0.6479 -2.2372
    6DOPE   H2S  671   2.253   5.136   6.576 -1.1012 -1.9094  1.1965
    6DOPE    C3  672   1.857   5.097   6.308  0.4630  0.0468  0.8444
    6DOPE    HX  673   1.865   5.203   6.275  0.7875  0.0856  1.0338
    6DOPE    HY  674   1.750   5.071   6.302  0.8989 -1.4524 -1.3727
    6DOPE   O31  675   1.940   5.015   6.221 -0.5965 -0.3062 -0.5445
    6DOPE   C31  676   1.905   4.892   6.218 -0.2205  0.1471 -0.1333
    6DOPE   O32  677   1.826   4.837   6.287  0.4454  0.2444 -0.0883
    6DOPE   C32  678   1.991   4.828   6.109 -0.4373  0.0692  0.0303
    6DOPE   H2X  679   2.093   4.833   6.153 -0.3218 -0.4769 -0.1694
    6DOPE   H2Y  680   1.958   4.722   6.113 -4.2352  1.0679 -0.4472
    6DOPE   C23  681   2.319   5.145   6.364  0.2000  0.5964 -0.5294
    6DOPE   H3R  682   2.419   5.191   6.375 -0.0162  1.6865 -2.6304
    6DOPE   H3S  683   2.246   5.226   6.345  1.1060  1.3551 -0.8043
    6DOPE   C24  684   2.331   5.064   6.238 -0.0144  0.2897 -0.3844
    6DOPE   H4R  685   2.339   5.138   6.155 -0.2978  1.2467  0.4323
    6DOPE   H4S  686   2.237   5.006   6.225  0.8040 -1.1270 -0.2273
    6DOPE   C25  687   2.458   4.988   6.238 -0.0443  0.1741  0.6873
    6DOPE   H5R  688   2.470   4.930   6.331  2.5298  0.1143  0.4016
    6DOPE   H5S  689   2.543   5.060   6.234 -0.4030  0.5572 -0.6146
    6DOPE   C26  690   2.460   4.894   6.116  0.0476  0.6703  0.0109
    6DOPE   H6R  691   2.385   4.813   6.122  0.2676  0.5042  0.5519
    6DOPE   H6S  692   2.555   4.836   6.120  0.1373  0.8306  0.2738
    6DOPE   C27  693   2.448   4.969   5.982  0.0082 -0.4706 -0.3388
    6DOPE   H7R  694   2.349   5.019   5.978  0.0754 -0.2096  0.7175
    6DOPE   H7S  695   2.432   4.891   5.905 -2.3486 -0.8925  0.5014
    6DOPE   C28  696   2.561   5.073   5.954 -0.0236 -0.0090 -0.2951
    6DOPE   H8R  697   2.662   5.028   5.941  1.0360  2.7476 -2.4141
    6DOPE   H8S  698   2.585   5.143   6.037 -2.0133 -1.6862  1.8251
    6DOPE   C29  699   2.528   5.143   5.830 -0.3059  0.2501  0.0793
    6DOPE   H9R  700   2.429   5.193   5.835  0.3598  1.5222  1.2435
    6DOPE  C210  701   2.592   5.155   5.707  0.0164  0.0954 -1.0560
    6DOPE  H10R  702   2.548   5.222   5.631 -2.2843  0.6006  0.6208
    6DOPE  C211  703   2.718   5.080   5.664 -0.2280  0.3718 -0.3760
    6DOPE  H11R  704   2.737   4.993   5.730 -0.5301  0.8309  0.3253
    6DOPE  H11S  705   2.802   5.152   5.669  2.1833 -2.2794 -0.2165
    6DOPE  C212  706   2.703   5.031   5.520 -0.0315 -0.0609  0.9976
    6DOPE  H12R  707   2.799   4.982   5.494 -0.9513 -0.0937 -2.8446
    6DOPE  H12S  708   2.699   5.111   5.444  0.9257  0.7252  1.7583
    6DOPE  C213  709   2.593   4.925   5.501 -0.3203  0.0983 -0.7449
    6DOPE  H13R  710   2.489   4.965   5.508 -0.3697 -0.1259 -0.0919
    6DOPE  H13S  711   2.601   4.852   5.585  0.8853 -0.0570 -0.9883
    6DOPE  C214  712   2.595   4.843   5.369 -0.2015 -0.3883 -0.4836
    6DOPE  H14R  713   2.699   4.809   5.349  0.8641  2.5588 -0.4900
    6DOPE  H14S  714   2.589   4.900   5.273 -0.1515 -2.3214 -1.6917
    6DOPE  C215  715   2.502   4.721   5.367  0.5281 -0.7568 -0.4867
    6DOPE  H15R  716   2.399   4.748   5.399  1.1924  1.2428  0.0687
    6DOPE  H15S  717   2.545   4.643   5.434  0.2277 -0.3377  0.2015
    6DOPE  C216  718   2.482   4.666   5.226 -0.7491 -0.1527  0.4081
    6DOPE  H16R  719   2.584   4.638   5.195 -0.9873 -0.5248 -0.0405
    6DOPE  H16S  720   2.448   4.753   5.165  1.4457  1.1584  0.9506
    6DOPE  C217  721   2.384   4.552   5.217  0.2353 -0.3632  0.2670
    6DOPE  H17R  722   2.282   4.593   5.235  0.5587  1.5376 -1.8477
    6DOPE  H17S  723   2.409   4.487   5.304  0.9015 -1.2811 -0.5992
    6DOPE  C218  724   2.383   4.472   5.082  0.5057 -0.2214  0.0114
    6DOPE  H18R  725   2.397   4.537   4.992 -0.1538 -1.2781 -0.8799
    6DOPE  H18S  726   2.291   4.411   5.071  0.7062 -0.6035  0.4377
    6DOPE  H18T  727   2.470   4.405   5.068  0.3557 -0.0992 -1.7388
    6DOPE   C33  728   1.978   4.896   5.968 -0.4416 -0.0182  0.1163
    6DOPE   H3X  729   2.008   5.002   5.982  2.4579 -0.8473  0.9375
    6DOPE   H3Y  730   1.876   4.884   5.926 -0.2079  0.4800 -0.6049
    6DOPE   C34  731   2.077   4.824   5.878  0.0646 -0.1124  0.0529
    6DOPE   H4X  732   2.172   4.825   5.937 -1.2706  0.7268  2.3158
    6DOPE   H4Y  733   2.060   4.715   5.874  0.3253 -0.1816  0.7620
    6DOPE   C35  734   2.085   4.879   5.732 -0.3623 -0.2039 -0.3917
    6DOPE   H5X  735   2.171   4.832   5.680 -0.9716 -1.3633 -0.3794
    6DOPE   H5Y  736   2.118   4.985   5.735 -0.1878 -0.2593 -0.3313
    6DOPE   C36  737   1.951   4.853   5.658  0.1257  0.1675 -0.4391
    6DOPE   H6X  738   1.867   4.909   5.704 -0.4221 -2.0289  1.4012
    6DOPE   H6Y  739   1.928   4.745   5.650 -2.2164  0.5527  0.4080
    6DOPE   C37  740   1.960   4.914   5.516  0.1953  0.3145  0.8758
    6DOPE   H7X  741   1.863   4.889   5.469 -0.1096 -0.0935  1.6956
    6DOPE   H7Y  742   1.967   5.024   5.530  0.7772  0.1966  1.6538
    6DOPE   C38  743   2.073   4.866   5.415 -0.4679 -0.4227 -0.4451
    6DOPE   H8X  744   2.055   4.757   5.410  0.9622 -0.6541 -1.0758
    6DOPE   H8Y  745   2.173   4.887   5.460 -0.3571 -1.2270 -0.3098
    6DOPE   C39  746   2.051   4.922   5.277 -0.1193 -0.2853 -0.1827
    6DOPE   H9X  747   1.953   4.900   5.233  0.3012  2.1628 -2.5841
    6DOPE  C310  748   2.140   4.986   5.202  0.6370 -0.0008  0.3974
    6DOPE  H10X  749   2.121   5.032   5.104  0.5496  0.3758  0.5912
    6DOPE  C311  750   2.285   5.013   5.251 -0.5673 -0.7380  0.6146
    6DOPE  H11X  751   2.287   5.025   5.362 -1.6800 -0.7625  0.6495
    6DOPE  H11Y  752   2.359   4.938   5.216  1.3279  1.3454 -0.0908
    6DOPE  C312  753   2.332   5.152   5.210 -0.9476 -0.8309  0.3118
    6DOPE  H12X  754   2.407   5.197   5.279  3.2655 -0.1496 -4.1426
    6DOPE  H12Y  755   2.247   5.222   5.201  0.3119  0.8341  0.7960
    6DOPE  C313  756   2.424   5.140   5.081  0.1076 -0.0981 -0.2566
    6DOPE  H13X  757   2.493   5.053   5.082  1.0868  0.6590  1.0016
    6DOPE  H13Y  758   2.357   5.118   4.995 -0.4389 -2.6417  0.7116
    6DOPE  C314  759   2.517   5.270   5.063  0.2770  0.4050 -0.2711
    6DOPE  H14X  760   2.575   5.281   5.157 -1.4555  3.2359  0.5907
    6DOPE  H14Y  761   2.468   5.369   5.049  3.5741  2.1625 -0.4718
    6DOPE  C315  762   2.602   5.253   4.938 -0.4558  0.4694 -0.3167
    6DOPE  H15X  763   2.527   5.230   4.859 -1.3798 -2.1737  1.2050
    6DOPE  H15Y  764   2.674   5.169   4.947 -0.5756  0.0762 -2.6100
    6DOPE  C316  765   2.684   5.380   4.909 -0.6050  0.2170  0.6192
    6DOPE  H16X  766   2.743   5.409   4.998  0.6101 -0.9480  0.2294
    6DOPE  H16Y  767   2.615   5.464   4.885  0.2547  0.7866  0.0796
    6DOPE  C317  768   2.786   5.344   4.794 -0.3867  0.7771 -0.5135
    6DOPE  H17X  769   2.857   5.267   4.833 -1.0177 -0.7415 -2.1876
    6DOPE  H17Y  770   2.724   5.298   4.714 -1.4547  1.5041 -0.1194
    6DOPE  C318  771   2.863   5.459   4.731  0.1462  1.1021  0.5968
    6DOPE  H18X  772   2.938   5.415   4.662  0.1082  2.3268 -0.2734
    6DOPE  H18Y  773   2.797   5.529   4.674 -0.2865  1.5049  1.5675
    6DOPE  H18Z  774   2.930   5.520   4.795  3.0727  0.4070 -1.6094
    7DOPE     N  775   4.456   4.836   6.842 -0.0934 -0.2033 -0.9240
    7DOPE   HN1  776   4.441   4.737   6.868  1.4956  0.4681  3.2069
    7DOPE   HN2  777   4.516   4.870   6.920  2.3099  0.5562 -2.9565
    7DOPE   HN3  778   4.358   4.870   6.847 -0.2657 -0.9329  1.2590
    7DOPE   C12  779   4.531   4.853   6.707 -0.6137 -0.3736 -0.3281
    7DOPE  H12A  780   4.547   4.963   6.696 -2.7384  0.0219  0.0737
    7DOPE  H12B  781   4.465   4.822   6.624 -0.0190  0.2199 -1.0321
    7DOPE   C11  782   4.660   4.774   6.718 -0.4100  0.1391 -0.2586
    7DOPE  H11A  783   4.679   4.748   6.612 -0.7420 -0.0788 -0.2649
    7DOPE  H11B  784   4.628   4.683   6.773 -0.5632 -0.6564 -1.6381
    7DOPE     P  785   4.918   4.810   6.742 -0.2776  0.2172  0.5129
    7DOPE   O13  786   4.938   4.661   6.738 -0.5673 -0.0160  0.6145
    7DOPE   O14  787   5.010   4.878   6.833  0.3568 -0.1460 -0.0805
    7DOPE   O11  788   4.919   4.865   6.593 -0.1925 -0.0874 -0.1935
    7DOPE   O12  789   4.771   4.840   6.782 -0.0835 -0.0369  0.0360
    7DOPE    C1  790   4.926   5.007   6.585 -0.8304  0.0658 -0.8246
    7DOPE    HA  791   5.014   5.045   6.641 -0.3289 -1.4407 -0.5347
    7DOPE    HB  792   4.839   5.061   6.629 -0.8215  0.7948 -1.6665
    7DOPE    C2  793   4.940   5.053   6.440  0.1092  0.6307  0.5104
    7DOPE    HS  794   4.927   5.162   6.421  1.7655  0.9691  1.1096
    7DOPE   O21  795   4.865   4.969   6.355  0.3338 -0.3159 -0.5137
    7DOPE   C21  796   4.735   5.001   6.362 -0.3936  0.3093  0.3103
    7DOPE   O22  797   4.692   5.105   6.414  0.0899 -0.0693  0.3078
    7DOPE   C22  798   4.652   4.890   6.293 -0.3040  0.3934 -0.6465
    7DOPE   H2R  799   4.552   4.931   6.267 -0.0653  0.7377 -1.0303
    7DOPE   H2S  800   4.635   4.801   6.357 -0.0976  1.7113  1.3577
    7DOPE    C3  801   5.090   5.031   6.399 -0.3432  0.5523 -0.3070
    7DOPE    HX  802   5.116   4.926   6.423  0.3459  1.2475  2.3111
    7DOPE    HY  803   5.157   5.090   6.464  2.0897 -1.0066 -1.2817
    7DOPE   O31  804   5.114   5.078   6.265 -0.2763 -0.0293  0.2364
    7DOPE   C31  805   5.109   4.983   6.172 -0.4057  0.2391  0.6207
    7DOPE   O32  806   5.086   4.866   6.196  0.5480 -0.2479 -0.1550
    7DOPE   C32  807   5.155   5.037   6.037 -0.5612 -0.2306  0.2676
    7DOPE   H2X  808   5.104   5.135   6.028 -2.1166 -0.5194  3.9522
    7DOPE   H2Y  809   5.265   5.049   6.046 -0.3147 -1.8514 -0.2731
    7DOPE   C23  810   4.716   4.839   6.159  0.0822 -0.4075  0.3435
    7DOPE   H3R  811   4.657   4.755   6.116 -2.6789  1.2453  0.6563
    7DOPE   H3S  812   4.814   4.797   6.189  0.1565  0.2587  1.0619
    7DOPE   C24  813   4.738   4.927   6.041  0.4979 -0.1821 -0.7567
    7DOPE   H4R  814   4.749   4.856   5.956 -1.5436  1.4200 -2.4834
    7DOPE   H4S  815   4.832   4.984   6.052 -0.5230  1.6423 -1.0569
    7DOPE   C25  816   4.639   5.035   6.012  0.3140  0.5084 -0.5543
    7DOPE   H5R  817   4.626   5.086   6.109 -1.2880 -0.5550 -0.1599
    7DOPE   H5S  818   4.541   4.986   5.991  2.6313 -4.2990 -1.6771
    7DOPE   C26  819   4.669   5.137   5.906  0.0575 -0.3755 -0.1409
    7DOPE   H6R  820   4.723   5.224   5.948 -0.1682 -1.4312  2.5955
    7DOPE   H6S  821   4.572   5.164   5.858 -1.4569 -0.0771  2.8162
    7DOPE   C27  822   4.762   5.078   5.792 -0.0152 -0.4096 -0.1569
    7DOPE   H7R  823   4.721   4.978   5.763 -1.1127  0.1331 -0.5403
    7DOPE   H7S  824   4.861   5.080   5.841 -0.4237 -1.0847  0.7531
    7DOPE   C28  825   4.767   5.173   5.668  0.6746  0.0165 -0.9463
    7DOPE   H8R  826   4.818   5.269   5.693 -2.9462  1.6464  0.9577
    7DOPE   H8S  827   4.663   5.207   5.651  0.7950  0.3945 -0.9537
    7DOPE   C29  828   4.836   5.107   5.545 -0.0482 -0.2561  0.4117
    7DOPE   H9R  829   4.938   5.072   5.568 -0.0413 -0.2923  0.3260
    7DOPE  C210  830   4.776   5.084   5.428  0.3223  0.1617 -0.4065
    7DOPE  H10R  831   4.837   5.029   5.355  1.0366 -0.8892  0.9311
    7DOPE  C211  832   4.631   5.099   5.399  0.2811  0.0898 -0.0924
    7DOPE  H11R  833   4.572   5.146   5.481  0.8278 -0.5211  0.6572
    7DOPE  H11S  834   4.595   4.994   5.388 -1.7232  0.8508 -1.3944
    7DOPE  C212  835   4.593   5.164   5.264  0.3752  0.5734 -0.1284
    7DOPE  H12R  836   4.605   5.274   5.260 -0.7059  0.6674 -2.1814
    7DOPE  H12S  837   4.483   5.151   5.250  0.1872  1.7393  0.1789
    7DOPE  C213  838   4.668   5.101   5.143  0.5754 -0.1137  0.3429
    7DOPE  H13R  839   4.634   4.996   5.138  2.4753 -0.7732  0.4437
    7DOPE  H13S  840   4.778   5.095   5.160  0.7535 -0.9905 -1.0040
    7DOPE  C214  841   4.656   5.176   5.012  0.3385 -0.4654 -0.1922
    7DOPE  H14R  842   4.713   5.128   4.930  0.5616 -0.1679 -0.2128
    7DOPE  H14S  843   4.698   5.277   5.029 -3.0604  0.8400  1.4768
    7DOPE  C215  844   4.508   5.198   4.957 -0.9277  0.3677  0.3390
    7DOPE  H15R  845   4.450   5.114   5.000  0.5407  0.0494  1.8304
    7DOPE  H15S  846   4.510   5.171   4.849 -1.4474  0.1853  0.3758
    7DOPE  C216  847   4.444   5.333   4.989 -0.4800 -0.1182 -0.3723
    7DOPE  H16R  848   4.454   5.360   5.096  3.7409 -4.1656  0.5746
    7DOPE  H16S  849   4.337   5.317   4.962 -0.1210 -0.1476 -1.8742
    7DOPE  C217  850   4.502   5.450   4.910 -0.1984 -0.8338 -0.5207
    7DOPE  H17R  851   4.538   5.419   4.809 -1.2308 -0.0030 -1.1648
    7DOPE  H17S  852   4.592   5.494   4.957 -0.8330  1.0257 -0.9575
    7DOPE  C218  853   4.391   5.551   4.892 -0.1750  0.2023  0.0266
    7DOPE  H18R  854   4.336   5.580   4.984 -1.1315 -0.1075 -0.4341
    7DOPE  H18S  855   4.315   5.509   4.823  1.5599 -2.4438 -0.3891
    7DOPE  H18T  856   4.425   5.635   4.828  2.6952 -0.8222  0.0856
    7DOPE   C33  857   5.117   4.942   5.922 -0.2664 -0.3180  0.7255
    7DOPE   H3X  858   5.007   4.933   5.908 -0.1519 -0.9012  0.1624
    7DOPE   H3Y  859   5.160   4.843   5.947  0.5693 -0.5895 -1.6298
    7DOPE   C34  860   5.186   4.982   5.790  0.0226 -0.0610  0.4441
    7DOPE   H4X  861   5.144   5.073   5.742 -1.9049 -1.6876 -1.1268
    7DOPE   H4Y  862   5.290   5.020   5.803  0.2980 -0.4086 -0.6191
    7DOPE   C35  863   5.183   4.878   5.677  0.1634  0.3764 -0.3548
    7DOPE   H5X  864   5.080   4.839   5.663  0.2343 -0.3360  0.9445
    7DOPE   H5Y  865   5.248   4.798   5.719  1.0123  1.4404  0.3885
    7DOPE   C36  866   5.240   4.932   5.542  0.5926 -0.2901  0.0566
    7DOPE   H6X  867   5.333   4.982   5.576 -1.0489  0.3194  4.2120
    7DOPE   H6Y  868   5.173   5.008   5.497 -0.3062 -0.8467  0.4356
    7DOPE   C37  869   5.267   4.824   5.439  0.2186 -0.3579 -0.0055
    7DOPE   H7X  870   5.294   4.880   5.347  0.1833 -1.5272 -0.7524
    7DOPE   H7Y  871   5.347   4.754   5.471  0.0989  0.2582  1.7218
    7DOPE   C38  872   5.143   4.744   5.400 -0.4486 -0.1651 -0.3986
    7DOPE   H8X  873   5.062   4.818   5.382 -0.2593  0.1570  0.0691
    7DOPE   H8Y  874   5.105   4.701   5.495  1.5236  1.6742  1.3320
    7DOPE   C39  875   5.167   4.651   5.282  0.3509 -0.2866 -0.2670
    7DOPE   H9X  876   5.230   4.563   5.301  0.6966  0.0907  0.3574
    7DOPE  C310  877   5.110   4.654   5.156 -0.9687  0.1116  0.1858
    7DOPE  H10X  878   5.156   4.587   5.082 -2.1090 -1.3460  0.7618
    7DOPE  C311  879   5.006   4.750   5.103 -0.0194 -0.1234 -0.4551
    7DOPE  H11X  880   4.928   4.692   5.048  2.0979 -0.7688 -2.9575
    7DOPE  H11Y  881   4.952   4.809   5.180  1.7625  1.6012 -0.4532
    7DOPE  C312  882   5.065   4.849   4.999  0.0646 -0.2924  0.5908
    7DOPE  H12X  883   4.978   4.898   4.950  0.7996 -1.6956 -2.3574
    7DOPE  H12Y  884   5.108   4.789   4.916 -1.7665 -0.0222 -0.6154
    7DOPE  C313  885   5.150   4.958   5.057  0.3334 -0.7533  0.1602
    7DOPE  H13X  886   5.094   5.021   5.131 -0.1585 -1.9915  0.8768
    7DOPE  H13Y  887   5.230   4.904   5.111  0.4816 -1.3072 -0.6127
    7DOPE  C314  888   5.185   5.068   4.944  0.2870 -0.0445  0.1007
    7DOPE  H14X  889   5.092   5.094   4.890  0.3816  0.7591  0.3215
    7DOPE  H14Y  890   5.252   5.005   4.881 -0.9234  0.0945 -1.3630
    7DOPE  C315  891   5.273   5.184   4.999  0.7588 -0.0317  0.2224
    7DOPE  H15X  892   5.310   5.253   4.921  1.5077 -0.0854  0.5175
    7DOPE  H15Y  893   5.360   5.133   5.048  0.2595 -1.1594 -0.0398
    7DOPE  C316  894   5.186   5.269   5.094 -0.1428 -0.1578 -0.4735
    7DOPE  H16X  895   5.242   5.359   5.126  1.1982 -0.8468 -0.7795
    7DOPE  H16Y  896   5.187   5.208   5.187  2.5801  0.2429 -0.1552
    7DOPE  C317  897   5.045   5.315   5.047  0.5708 -0.2047  0.2155
    7DOPE  H17X  898   5.042   5.382   4.959 -0.0382 -0.7639 -0.2011
    7DOPE  H17Y  899   4.975   5.234   5.015  0.6353 -0.5695  0.9738
    7DOPE  C318  900   4.971   5.387   5.157 -0.2622 -1.0729 -0.0059
    7DOPE  H18X  901   4.875   5.427   5.119  0.2414  0.4998  0.2976
    7DOPE  H18Y  902   4.948   5.314   5.237 -1.9332 -0.5009  0.0737
    7DOPE  H18Z  903   5.028   5.470   5.203  0.8382 -1.0147 -1.4224
    8DOPE     N  904   5.733   4.680   6.862 -0.4419  0.2744 -0.1167
    8DOPE   HN1  905   5.762   4.722   6.771 -1.9866 -1.4404 -1.4753
    8DOPE   HN2  906   5.779   4.589   6.845  0.2166  0.5998 -0.1245
    8DOPE   HN3  907   5.631   4.663   6.862 -0.0481 -2.7648  1.8303
    8DOPE   C12  908   5.784   4.745   6.991 -0.2680  0.7065  0.1039
    8DOPE  H12A  909   5.892   4.770   6.983 -0.0801  0.4879  1.6469
    8DOPE  H12B  910   5.755   4.674   7.071 -1.8347  1.8386  0.5998
    8DOPE   C11  911   5.702   4.875   7.022  0.0806  0.4482  0.4551
    8DOPE  H11A  912   5.744   4.956   6.960  2.4407 -1.1105 -0.1362
    8DOPE  H11B  913   5.715   4.890   7.132  2.0462  2.1264  0.0533
    8DOPE     P  914   5.463   4.971   7.039 -0.0568  0.2392  0.3678
    8DOPE   O13  915   5.535   5.090   7.082  0.2682  0.0449  0.3590
    8DOPE   O14  916   5.348   4.920   7.124 -0.1961 -0.0297  0.9034
    8DOPE   O11  917   5.414   5.004   6.897  0.0494 -0.1689  0.2739
    8DOPE   O12  918   5.559   4.852   6.998 -0.9459 -0.3562 -0.2639
    8DOPE    C1  919   5.352   4.915   6.801 -0.0639  0.1325 -0.4265
    8DOPE    HA  920   5.253   4.959   6.778 -0.2315 -0.0645 -0.1011
    8DOPE    HB  921   5.323   4.821   6.853 -1.0010  0.9393  0.5531
    8DOPE    C2  922   5.423   4.887   6.670 -1.1331  0.2183 -0.1602
    8DOPE    HS  923   5.523   4.851   6.704 -1.2455  0.6205  0.6250
    8DOPE   O21  924   5.417   5.004   6.587  0.0035 -0.5034  0.5464
    8DOPE   C21  925   5.514   5.020   6.494  0.5148 -0.0300 -0.3711
    8DOPE   O22  926   5.619   4.961   6.480  0.0227 -0.3097 -0.3926
    8DOPE   C22  927   5.459   5.115   6.390  0.3235  0.3171 -0.2998
    8DOPE   H2R  928   5.421   5.208   6.438  0.3450  0.9153 -1.4013
    8DOPE   H2S  929   5.367   5.066   6.351 -0.3369  0.7682  0.6442
    8DOPE    C3  930   5.349   4.770   6.612 -0.2656 -0.2419  0.1586
    8DOPE    HX  931   5.244   4.803   6.597 -0.2808 -0.1201  0.5273
    8DOPE    HY  932   5.344   4.678   6.674 -0.0719 -0.7781 -0.6140
    8DOPE   O31  933   5.393   4.742   6.477 -0.2889 -0.5077  0.4938
    8DOPE   C31  934   5.476   4.644   6.461  0.0508 -0.0593  0.9319
    8DOPE   O32  935   5.534   4.580   6.550  0.3325 -0.7899 -0.0807
    8DOPE   C32  936   5.487   4.618   6.313 -0.3471  0.1973  0.0175
    8DOPE   H2X  937   5.585   4.568   6.294 -0.9736 -0.7771 -0.6998
    8DOPE   H2Y  938   5.410   4.544   6.285  0.5799 -0.5243 -0.7118
    8DOPE   C23  939   5.557   5.148   6.275 -0.0370 -0.2859 -0.0150
    8DOPE   H3R  940   5.605   5.058   6.230 -1.4685  0.1730 -2.6691
    8DOPE   H3S  941   5.646   5.207   6.305  1.6473 -2.7694  0.2091
    8DOPE   C24  942   5.489   5.237   6.170 -0.3570 -1.2034 -0.4247
    8DOPE   H4R  943   5.479   5.342   6.204  0.0888 -1.2783 -0.0549
    8DOPE   H4S  944   5.387   5.194   6.175 -1.2192  0.8018  4.1066
    8DOPE   C25  945   5.566   5.248   6.040  0.2281  0.1235 -0.1706
    8DOPE   H5R  946   5.590   5.143   6.012  1.5614  0.3328  0.1233
    8DOPE   H5S  947   5.670   5.283   6.056 -0.1761  1.1977  0.1732
    8DOPE   C26  948   5.500   5.332   5.933 -0.0877  0.1063  0.1911
    8DOPE   H6R  949   5.500   5.441   5.956  1.4959  0.0074  0.7472
    8DOPE   H6S  950   5.394   5.301   5.930 -0.2246  0.6100 -0.3483
    8DOPE   C27  951   5.576   5.317   5.800 -0.0476  0.3732 -0.1510
    8DOPE   H7R  952   5.519   5.364   5.717 -1.3505 -2.2361 -0.8507
    8DOPE   H7S  953   5.574   5.207   5.786  2.6499  0.0897  1.0926
    8DOPE   C28  954   5.724   5.368   5.789 -0.6597  0.5963 -0.6404
    8DOPE   H8R  955   5.751   5.374   5.681 -1.0441  0.2310 -0.7589
    8DOPE   H8S  956   5.793   5.295   5.838 -0.4031 -0.5019 -2.5258
    8DOPE   C29  957   5.730   5.499   5.858 -0.0665  0.6451  0.3843
    8DOPE   H9R  958   5.721   5.493   5.967  1.9718 -1.9396  0.5242
    8DOPE  C210  959   5.737   5.625   5.797  0.3774  0.6275  0.5710
    8DOPE  H10R  960   5.743   5.721   5.850  0.3887  0.1646  1.4317
    8DOPE  C211  961   5.721   5.640   5.645  0.0481 -0.8350  0.7427
    8DOPE  H11R  962   5.620   5.672   5.613 -0.9478 -4.6996 -0.5393
    8DOPE  H11S  963   5.734   5.545   5.589 -2.6019 -0.7431 -0.1517
    8DOPE  C212  964   5.826   5.750   5.603 -0.2042 -0.1151  0.4209
    8DOPE  H12R  965   5.930   5.716   5.624 -0.1967  0.3121  1.1173
    8DOPE  H12S  966   5.803   5.838   5.668  1.2460 -0.8414  2.0007
    8DOPE  C213  967   5.804   5.804   5.459 -0.0580 -0.1517  0.1748
    8DOPE  H13R  968   5.859   5.901   5.455 -0.1210 -0.1280 -3.0518
    8DOPE  H13S  969   5.696   5.822   5.444  0.1350 -0.1337 -1.3354
    8DOPE  C214  970   5.863   5.710   5.353 -0.4181  0.2467  0.5820
    8DOPE  H14R  971   5.812   5.612   5.361  1.4802 -0.6507  2.6763
    8DOPE  H14S  972   5.970   5.690   5.374 -0.8317 -1.5485  1.1518
    8DOPE  C215  973   5.859   5.763   5.210  0.6237  0.0347 -0.0417
    8DOPE  H15R  974   5.887   5.679   5.143 -1.0003 -0.5494 -0.0452
    8DOPE  H15S  975   5.920   5.855   5.204  0.2194  0.7236  3.8870
    8DOPE  C216  976   5.717   5.796   5.157 -0.0571  0.1870 -0.1738
    8DOPE  H16R  977   5.688   5.891   5.206 -0.2999  1.7292 -3.1122
    8DOPE  H16S  978   5.652   5.709   5.180  1.3067 -1.8664 -3.4023
    8DOPE  C217  979   5.723   5.815   4.998 -0.1530 -0.0924  0.1374
    8DOPE  H17R  980   5.820   5.865   4.976  0.6777 -1.0308  1.5430
    8DOPE  H17S  981   5.646   5.895   4.991 -0.0639  0.1178  1.2814
    8DOPE  C218  982   5.695   5.690   4.913 -0.3779 -0.4119  0.3811
    8DOPE  H18R  983   5.782   5.621   4.912 -0.8810 -1.1451  2.7069
    8DOPE  H18S  984   5.668   5.726   4.811 -0.9417  1.0346  1.0073
    8DOPE  H18T  985   5.608   5.634   4.954  0.5323 -3.8328 -1.9345
    8DOPE   C33  986   5.475   4.745   6.222 -0.0888  0.1063  0.2601
    8DOPE   H3X  987   5.536   4.831   6.258 -0.8718  0.9641 -0.4094
    8DOPE   H3Y  988   5.377   4.795   6.235  0.6487  1.4226  1.0081
    8DOPE   C34  989   5.503   4.702   6.081  0.1556 -0.1396  0.8639
    8DOPE   H4X  990   5.594   4.638   6.073 -0.6284 -1.1899  0.0902
    8DOPE   H4Y  991   5.418   4.638   6.050  0.1801  0.4278 -0.4298
    8DOPE   C35  992   5.528   4.818   5.983  1.1410 -0.0126  0.5339
    8DOPE   H5X  993   5.615   4.878   6.016  0.7634  1.1399 -0.4728
    8DOPE   H5Y  994   5.435   4.877   5.998  0.5162 -0.9144  0.2455
    8DOPE   C36  995   5.528   4.777   5.832 -0.2394  0.6542 -0.0307
    8DOPE   H6X  996   5.421   4.749   5.823 -1.3438  3.4985  2.5210
    8DOPE   H6Y  997   5.597   4.690   5.832 -0.6496  0.3232 -0.1260
    8DOPE   C37  998   5.561   4.889   5.740 -1.2788 -0.8912 -0.5633
    8DOPE   H7X  999   5.472   4.951   5.716 -0.6486  0.1310 -0.2935
    8DOPE   H7Y 1000   5.640   4.953   5.785  0.2890 -1.3943 -2.4890
    8DOPE   C38 1001   5.620   4.823   5.614  0.5274 -0.3752  0.3202
    8DOPE   H8X 1002   5.533   4.799   5.549 -1.0104  1.5472  1.5382
    8DOPE   H8Y 1003   5.674   4.729   5.636 -0.7176 -0.9094  1.2171
    8DOPE   C39 1004   5.714   4.904   5.528  0.4822 -1.0594 -1.0612
    8DOPE   H9X 1005   5.784   4.978   5.570  1.8065 -0.7965 -3.5300
    8DOPE  C310 1006   5.723   4.892   5.394 -0.1983 -0.2896  0.7070
    8DOPE  H10X 1007   5.792   4.954   5.335  0.0175 -0.1361  1.1198
    8DOPE  C311 1008   5.636   4.795   5.314 -0.3831 -0.5599  0.2131
    8DOPE  H11X 1009   5.599   4.708   5.372  1.2592  0.0133  2.2539
    8DOPE  H11Y 1010   5.550   4.859   5.284  0.3300 -0.8835 -2.9026
    8DOPE  C312 1011   5.703   4.755   5.181  0.0789 -0.2865  0.5013
    8DOPE  H12X 1012   5.782   4.686   5.219  2.5983  2.4953  0.7590
    8DOPE  H12Y 1013   5.757   4.840   5.135  1.9524 -1.3274  0.6439
    8DOPE  C313 1014   5.603   4.691   5.083  0.0883 -0.1705  0.3768
    8DOPE  H13X 1015   5.563   4.596   5.126 -0.8289  0.8071  1.7603
    8DOPE  H13Y 1016   5.518   4.761   5.072  1.7875  1.8946 -0.2066
    8DOPE  C314 1017   5.667   4.661   4.946  0.4653 -0.0278  0.1916
    8DOPE  H14X 1018   5.728   4.572   4.971 -0.7371 -0.5042  1.5418
    8DOPE  H14Y 1019   5.726   4.747   4.906 -0.9565  0.5863 -0.6997
    8DOPE  C315 1020   5.561   4.628   4.841 -0.0814 -0.0391 -0.7320
    8DOPE  H15X 1021   5.488   4.710   4.823 -2.2665 -2.0922 -1.7724
    8DOPE  H15Y 1022   5.503   4.541   4.879 -0.7382  0.1043 -1.3757
    8DOPE  C316 1023   5.616   4.603   4.702  0.3235 -0.0741  0.2882
    8DOPE  H16X 1024   5.675   4.509   4.704 -0.4072 -0.5267  0.9303
    8DOPE  H16Y 1025   5.685   4.686   4.676 -3.3109  2.7396 -1.2860
    8DOPE  C317 1026   5.502   4.589   4.596  1.0382 -0.0386  0.3408
    8DOPE  H17X 1027   5.422   4.520   4.631  2.1841 -1.5298  0.1106
    8DOPE  H17Y 1028   5.442   4.681   4.585  1.0520  0.1031  1.4029
    8DOPE  C318 1029   5.550   4.549   4.448  0.5627 -0.4301 -0.5236
    8DOPE  H18X 1030   5.453   4.538   4.395  1.1033 -2.2407 -1.2237
    8DOPE  H18Y 1031   5.607   4.453   4.447 -2.3650 -2.3271 -2.7563
    8DOPE  H18Z 1032   5.612   4.631   4.407  0.7919 -0.0337  0.5765
    9DOPE     N 1033   1.918   4.666   6.513 -0.2225 -0.2675  0.3571
    9DOPE   HN1 1034   2.021   4.672   6.525 -0.1781 -1.5686  0.7127
    9DOPE   HN2 1035   1.882   4.569   6.512 -0.0028 -0.3533  0.6092
    9DOPE   HN3 1036   1.877   4.716   6.431  0.3535  1.6043  1.1590
    9DOPE   C12 1037   1.845   4.735   6.626 -0.2170  0.3473  0.0519
    9DOPE  H12A 1038   1.879   4.841   6.626 -2.3517  1.0901  1.2252
    9DOPE  H12B 1039   1.875   4.680   6.718 -0.2249 -1.2532 -0.8643
    9DOPE   C11 1040   1.689   4.723   6.605  0.3203  0.3694 -0.3578
    9DOPE  H11A 1041   1.684   4.794   6.521  1.1266 -0.8503 -1.4745
    9DOPE  H11B 1042   1.645   4.756   6.702  0.0866 -0.4595 -0.1710
    9DOPE     P 1043   1.549   4.511   6.649  0.0173  0.7259 -0.1617
    9DOPE   O13 1044   1.513   4.581   6.767 -0.4746  0.0312 -0.0620
    9DOPE   O14 1045   1.617   4.380   6.663  0.2134  0.5207  0.1267
    9DOPE   O11 1046   1.425   4.503   6.558  0.3935  0.1416 -0.2267
    9DOPE   O12 1047   1.653   4.591   6.567  0.3253 -0.2101 -0.7271
    9DOPE    C1 1048   1.337   4.609   6.527  0.0444 -0.4261  0.2151
    9DOPE    HA 1049   1.365   4.705   6.576 -2.2117  1.4150 -1.8927
    9DOPE    HB 1050   1.237   4.573   6.560 -0.1551 -1.2380 -1.1761
    9DOPE    C2 1051   1.316   4.630   6.375 -0.0842  0.1573 -0.3541
    9DOPE    HS 1052   1.227   4.696   6.378  0.7995  1.4096 -1.0503
    9DOPE   O21 1053   1.304   4.500   6.312 -0.0278 -0.0080 -0.6110
    9DOPE   C21 1054   1.211   4.501   6.221  0.0221 -0.4995  0.1563
    9DOPE   O22 1055   1.146   4.598   6.188 -0.2718  0.1963 -0.3329
    9DOPE   C22 1056   1.200   4.365   6.153 -0.1620 -0.4299  0.8201
    9DOPE   H2R 1057   1.142   4.304   6.225  0.7245  0.7110  2.5539
    9DOPE   H2S 1058   1.301   4.323   6.133 -1.0993 -0.6679 -5.7628
    9DOPE    C3 1059   1.431   4.710   6.315 -0.4284 -0.1283  0.2190
    9DOPE    HX 1060   1.526   4.651   6.316 -1.1924 -1.5880 -2.5916
    9DOPE    HY 1061   1.443   4.810   6.362 -0.5630 -0.1721  0.3446
    9DOPE   O31 1062   1.404   4.734   6.171 -0.0154  0.2259  0.0355
    9DOPE   C31 1063   1.346   4.848   6.134  0.5186  0.8932  0.4770
    9DOPE   O32 1064   1.308   4.934   6.211  0.6252 -0.3737  0.0021
    9DOPE   C32 1065   1.320   4.852   5.976  0.5560 -0.5644 -0.1104
    9DOPE   H2X 1066   1.418   4.844   5.924  0.2888 -2.3268 -0.3958
    9DOPE   H2Y 1067   1.267   4.760   5.944 -0.6934  0.3126 -0.6262
    9DOPE   C23 1068   1.137   4.371   6.005  0.1002  0.5666  0.2519
    9DOPE   H3R 1069   1.033   4.410   6.014 -0.2801 -0.0604 -1.1637
    9DOPE   H3S 1070   1.139   4.266   5.967 -1.0401  0.0750  1.4811
    9DOPE   C24 1071   1.212   4.459   5.898  0.3546  0.1655 -0.2088
    9DOPE   H4R 1072   1.320   4.435   5.901  0.2149 -0.4280  0.1836
    9DOPE   H4S 1073   1.190   4.564   5.927 -0.9019 -0.5461  1.6300
    9DOPE   C25 1074   1.171   4.438   5.753  0.5931  0.0991 -0.0727
    9DOPE   H5R 1075   1.210   4.341   5.717 -0.4691  0.3199 -1.9713
    9DOPE   H5S 1076   1.216   4.517   5.688  1.9618 -1.5645 -1.2344
    9DOPE   C26 1077   1.021   4.437   5.732  0.6782  0.2771 -0.0054
    9DOPE   H6R 1078   0.979   4.532   5.772 -0.8710 -1.6219  3.2457
    9DOPE   H6S 1079   0.988   4.344   5.784  1.0141  0.8985  1.3672
    9DOPE   C27 1080   0.984   4.424   5.589 -0.2183 -0.2634 -0.0884
    9DOPE   H7R 1081   1.006   4.318   5.563 -0.3542  0.2196 -2.3725
    9DOPE   H7S 1082   1.040   4.498   5.527 -0.6406 -0.3873 -0.6271
    9DOPE   C28 1083   0.828   4.453   5.575 -0.3507 -0.0863  0.0225
    9DOPE   H8R 1084   0.796   4.462   5.469  0.5729 -0.9199 -0.3430
    9DOPE   H8S 1085   0.815   4.559   5.606 -0.5237  0.8258 -2.8832
    9DOPE   C29 1086   0.741   4.364   5.653 -0.4798  0.8184  0.0551
    9DOPE   H9R 1087   0.745   4.384   5.761 -2.2895  2.1758 -0.0825
    9DOPE  C210 1088   0.644   4.285   5.614  0.2982 -0.2171  0.3496
    9DOPE  H10R 1089   0.576   4.257   5.696  1.0966  3.3072  2.4086
    9DOPE  C211 1090   0.588   4.265   5.475 -0.4682 -0.3761  0.2375
    9DOPE  H11R 1091   0.622   4.347   5.408 -0.1372  0.9954  2.0184
    9DOPE  H11S 1092   0.477   4.267   5.480 -0.4062  1.3699  1.6821
    9DOPE  C212 1093   0.628   4.140   5.394  0.5136  0.4730 -0.1351
    9DOPE  H12R 1094   0.640   4.051   5.460 -1.1846  1.1453  1.1471
    9DOPE  H12S 1095   0.728   4.157   5.349  0.3226 -2.9904 -2.2139
    9DOPE  C213 1096   0.542   4.111   5.278 -0.0493  0.2095 -0.6448
    9DOPE  H13R 1097   0.519   4.209   5.231 -1.8012  0.0255 -0.2593
    9DOPE  H13S 1098   0.447   4.065   5.312  0.1706  0.8058  0.8240
    9DOPE  C214 1099   0.609   4.029   5.165 -0.0981  0.5304 -0.0587
    9DOPE  H14R 1100   0.529   3.976   5.110  0.1030  0.7949 -0.6053
    9DOPE  H14S 1101   0.681   3.959   5.212  2.3864  1.6787 -1.9415
    9DOPE  C215 1102   0.694   4.121   5.070 -0.0404 -0.3359 -0.8019
    9DOPE  H15R 1103   0.764   4.177   5.135  1.3772 -1.9203 -0.8827
    9DOPE  H15S 1104   0.621   4.183   5.014  1.0871  0.6736 -1.1870
    9DOPE  C216 1105   0.765   4.044   4.965 -0.5345  0.3730 -0.2646
    9DOPE  H16R 1106   0.701   3.976   4.904  2.1529 -0.2209 -2.6692
    9DOPE  H16S 1107   0.836   3.972   5.010 -1.7964 -0.9291 -0.2983
    9DOPE  C217 1108   0.834   4.124   4.850  0.1008 -0.0762  0.0961
    9DOPE  H17R 1109   0.756   4.154   4.777  0.7885 -0.9033 -1.0174
    9DOPE  H17S 1110   0.897   4.056   4.789  0.8597  0.8083 -0.1330
    9DOPE  C218 1111   0.920   4.241   4.897 -0.7274 -0.5772  0.0248
    9DOPE  H18R 1112   0.868   4.301   4.975 -0.3240 -1.0020  0.6291
    9DOPE  H18S 1113   0.965   4.306   4.819  0.7522 -0.0599  1.2549
    9DOPE  H18T 1114   1.009   4.203   4.952 -0.2768  0.8650  0.3513
    9DOPE   C33 1115   1.226   4.979   5.941  0.3981 -0.0454  0.7738
    9DOPE   H3X 1116   1.272   5.072   5.982 -0.8267  0.8891  0.0899
    9DOPE   H3Y 1117   1.126   4.970   5.988 -0.0249  0.7960  0.0547
    9DOPE   C34 1118   1.217   5.002   5.793 -0.1312 -0.7770  0.5724
    9DOPE   H4X 1119   1.168   5.101   5.781  1.0005 -0.2437  0.2378
    9DOPE   H4Y 1120   1.316   5.013   5.744 -0.8965  2.1110 -0.5468
    9DOPE   C35 1121   1.148   4.894   5.714  0.0239 -0.1697  0.4270
    9DOPE   H5X 1122   1.048   4.870   5.757 -1.0316  1.2132 -1.1071
    9DOPE   H5Y 1123   1.212   4.805   5.726 -1.0262 -1.1015 -0.5813
    9DOPE   C36 1124   1.136   4.934   5.567  0.0203 -0.4428 -0.3906
    9DOPE   H6X 1125   1.234   4.964   5.522  0.8655 -1.1568  0.9146
    9DOPE   H6Y 1126   1.067   5.021   5.559 -0.0181 -0.5825 -2.0637
    9DOPE   C37 1127   1.079   4.819   5.489 -0.2355 -0.5224  0.0207
    9DOPE   H7X 1128   1.137   4.728   5.516 -1.1321 -0.4152  2.5629
    9DOPE   H7Y 1129   0.975   4.797   5.521  0.2297 -2.0338  0.5879
    9DOPE   C38 1130   1.074   4.838   5.335  0.8655  0.6014  0.4761
    9DOPE   H8X 1131   1.003   4.918   5.304 -0.1242  0.2853  1.8022
    9DOPE   H8Y 1132   1.029   4.749   5.284  0.1627  1.1538  0.1041
    9DOPE   C39 1133   1.215   4.846   5.288  0.2658  0.3829 -0.2661
    9DOPE   H9X 1134   1.283   4.769   5.327  1.1491 -0.3497 -3.0344
    9DOPE  C310 1135   1.258   4.928   5.191 -0.8296  0.4986  0.1546
    9DOPE  H10X 1136   1.366   4.926   5.168 -1.1724 -0.4943 -1.5820
    9DOPE  C311 1137   1.171   5.022   5.112 -0.3866 -0.0846 -0.5393
    9DOPE  H11X 1138   1.067   4.982   5.106 -0.6548  0.7429 -1.7635
    9DOPE  H11Y 1139   1.166   5.119   5.167  0.3185 -0.4994  0.2757
    9DOPE  C312 1140   1.220   5.058   4.967  0.4434  0.7706 -0.0919
    9DOPE  H12X 1141   1.251   4.965   4.915 -0.4589 -0.0690  0.8370
    9DOPE  H12Y 1142   1.307   5.127   4.972  0.7506  0.6365 -2.4928
    9DOPE  C313 1143   1.101   5.116   4.892  0.0588  0.3852 -0.5734
    9DOPE  H13X 1144   1.017   5.043   4.895  0.1274  0.2554 -1.4890
    9DOPE  H13Y 1145   1.065   5.211   4.937 -0.2662  1.0902 -2.2204
    9DOPE  C314 1146   1.145   5.154   4.747 -0.3467 -0.1475 -0.3689
    9DOPE  H14X 1147   1.130   5.069   4.676 -2.0972  0.5934 -0.9314
    9DOPE  H14Y 1148   1.253   5.180   4.754 -0.1185 -1.1369  0.0451
    9DOPE  C315 1149   1.057   5.266   4.703  0.0160 -0.8591  0.6458
    9DOPE  H15X 1150   1.081   5.354   4.766  0.1311 -1.0066  0.8056
    9DOPE  H15Y 1151   0.950   5.246   4.728 -0.7928  2.7487  0.6078
    9DOPE  C316 1152   1.061   5.299   4.555 -0.6470  0.2320  0.1814
    9DOPE  H16X 1153   1.005   5.225   4.493 -0.1853  0.7743 -0.9049
    9DOPE  H16Y 1154   1.163   5.306   4.512 -1.4255  2.4161 -1.4681
    9DOPE  C317 1155   0.985   5.422   4.511 -0.3302  0.6595  0.0573
    9DOPE  H17X 1156   1.038   5.504   4.565 -0.2411 -1.6563  3.8827
    9DOPE  H17Y 1157   1.001   5.441   4.403 -0.5866  0.9110  0.0620
    9DOPE  C318 1158   0.840   5.432   4.550 -0.2811 -0.0650 -0.7868
    9DOPE  H18X 1159   0.793   5.337   4.516 -0.0551 -0.0555 -1.1302
    9DOPE  H18Y 1160   0.822   5.460   4.656  1.0447  3.2094 -1.2920
    9DOPE  H18Z 1161   0.784   5.512   4.498 -0.0463  1.2657  0.9328
   10DOPE     N 1162   2.891   4.970   7.001 -0.2010 -0.0839  0.5212
   10DOPE   HN1 1163   2.937   4.895   6.945  1.9307  0.3436  1.5643
   10DOPE   HN2 1164   2.846   4.924   7.082  1.5669 -0.4475  1.3586
   10DOPE   HN3 1165   2.806   5.005   6.952 -1.5543 -4.4893 -0.6936
   10DOPE   C12 1166   2.985   5.076   7.053 -0.3204  0.7659  0.6086
   10DOPE  H12A 1167   3.072   5.020   7.092 -0.0025  0.9175  0.1213
   10DOPE  H12B 1168   2.929   5.134   7.130 -0.4147  0.0007  1.1275
   10DOPE   C11 1169   3.026   5.161   6.927  0.1128 -0.4459 -0.6350
   10DOPE  H11A 1170   3.059   5.095   6.844  0.2688 -0.1254 -0.8287
   10DOPE  H11B 1171   3.117   5.221   6.945 -1.1524  1.3017  0.2639
   10DOPE     P 1172   2.955   5.362   6.802  0.3644 -0.2327 -0.1800
   10DOPE   O13 1173   3.022   5.318   6.676 -0.8861 -0.2100  0.9611
   10DOPE   O14 1174   3.025   5.468   6.880  0.1003  0.1675 -0.5561
   10DOPE   O11 1175   2.818   5.423   6.762 -0.2593  0.1794  0.1681
   10DOPE   O12 1176   2.915   5.240   6.889 -0.3943  0.1557  0.5162
   10DOPE    C1 1177   2.694   5.355   6.740  0.0865 -0.2325 -0.1076
   10DOPE    HA 1178   2.625   5.397   6.816  2.0766  0.7047  1.2871
   10DOPE    HB 1179   2.709   5.248   6.766  0.8243  0.4009  2.3536
   10DOPE    C2 1180   2.630   5.385   6.598  0.3870 -0.3967  0.0138
   10DOPE    HS 1181   2.548   5.315   6.570 -0.8998 -0.6432  3.8521
   10DOPE   O21 1182   2.727   5.389   6.498 -0.2377 -0.1535  0.5101
   10DOPE   C21 1183   2.766   5.272   6.463  0.8276  0.1465  0.1228
   10DOPE   O22 1184   2.719   5.167   6.505 -0.2081  0.2841  0.7065
   10DOPE   C22 1185   2.871   5.287   6.354  0.0237  0.0089  0.1207
   10DOPE   H2R 1186   2.956   5.216   6.368 -0.3656 -0.2856  1.0103
   10DOPE   H2S 1187   2.926   5.381   6.375  1.1147 -0.8374  1.1939
   10DOPE    C3 1188   2.577   5.540   6.597  0.0112  0.4347  0.1773
   10DOPE    HX 1189   2.672   5.597   6.606  0.9608 -0.8906 -0.9537
   10DOPE    HY 1190   2.513   5.566   6.684 -0.5193 -1.3079  0.3553
   10DOPE   O31 1191   2.521   5.563   6.463 -0.0943  0.1533 -0.3413
   10DOPE   C31 1192   2.402   5.518   6.440  0.1398  0.2518  0.6621
   10DOPE   O32 1193   2.320   5.473   6.522 -0.5655  0.0803 -0.9051
   10DOPE   C32 1194   2.386   5.538   6.292 -0.4892  0.2217  0.0192
   10DOPE   H2X 1195   2.301   5.475   6.259  0.1864 -0.5658 -0.2592
   10DOPE   H2Y 1196   2.371   5.645   6.269  1.4454  0.6201  0.4592
   10DOPE   C23 1197   2.834   5.276   6.203 -0.1101 -0.3262  0.8478
   10DOPE   H3R 1198   2.762   5.356   6.175  1.2985 -0.0538 -2.4135
   10DOPE   H3S 1199   2.772   5.184   6.197 -2.3668  0.9204  2.8816
   10DOPE   C24 1200   2.953   5.283   6.104  0.5434 -0.6454 -0.1723
   10DOPE   H4R 1201   3.032   5.208   6.124  0.9084 -0.3861 -0.6463
   10DOPE   H4S 1202   3.001   5.383   6.109  0.4607 -0.6238  0.2447
   10DOPE   C25 1203   2.916   5.275   5.955  0.6727 -0.3825 -0.2673
   10DOPE   H5R 1204   2.844   5.353   5.923 -0.5939 -1.0850  0.7685
   10DOPE   H5S 1205   2.859   5.182   5.932 -2.6012  1.4657 -0.2983
   10DOPE   C26 1206   3.039   5.299   5.861  0.0466 -0.0736 -0.2679
   10DOPE   H6R 1207   3.104   5.376   5.908  0.5047 -0.7133  0.1634
   10DOPE   H6S 1208   3.007   5.335   5.761 -0.2051 -1.1171 -0.5773
   10DOPE   C27 1209   3.133   5.184   5.846 -0.6137  0.9655 -0.1487
   10DOPE   H7R 1210   3.166   5.156   5.949 -1.1767  2.1835  0.3813
   10DOPE   H7S 1211   3.227   5.215   5.795 -0.4952  0.2091 -0.4114
   10DOPE   C28 1212   3.080   5.049   5.787 -0.0871 -0.3224  0.5618
   10DOPE   H8R 1213   3.032   5.076   5.691  2.1931  0.6975 -0.3571
   10DOPE   H8S 1214   3.000   5.002   5.849 -0.7981 -0.9366 -0.7842
   10DOPE   C29 1215   3.194   4.956   5.763 -0.6339 -0.0501 -0.1275
   10DOPE   H9R 1216   3.218   4.880   5.838 -0.4446  0.2716  0.1409
   10DOPE  C210 1217   3.258   4.952   5.647  0.0747  0.2165 -0.6510
   10DOPE  H10R 1218   3.336   4.876   5.637  0.3426  0.2140  1.1498
   10DOPE  C211 1219   3.242   5.039   5.530  0.7181 -0.7791  0.2588
   10DOPE  H11R 1220   3.341   5.045   5.480 -0.8524  1.2479 -2.9835
   10DOPE  H11S 1221   3.232   5.145   5.563  1.7877 -0.3297 -0.7602
   10DOPE  C212 1222   3.128   5.003   5.439 -0.2606  0.4308  0.3287
   10DOPE  H12R 1223   3.031   5.024   5.489  0.0558 -0.3116  1.2974
   10DOPE  H12S 1224   3.138   4.894   5.421  0.1900  0.7800 -1.8470
   10DOPE  C213 1225   3.137   5.065   5.296  0.2780 -0.7458  0.1603
   10DOPE  H13R 1226   3.224   5.020   5.244 -0.7559 -1.2688 -1.1660
   10DOPE  H13S 1227   3.157   5.175   5.298  0.3588 -0.7196 -1.2873
   10DOPE  C214 1228   3.003   5.042   5.220 -0.1277 -0.4969 -0.2650
   10DOPE  H14R 1229   2.921   5.057   5.295  1.1617 -0.5348  1.2090
   10DOPE  H14S 1230   2.997   4.940   5.177 -1.6278 -0.2779 -0.6460
   10DOPE  C215 1231   2.972   5.145   5.112 -0.3170 -0.0787 -0.5206
   10DOPE  H15R 1232   2.979   5.246   5.160  0.4837 -0.4773  0.2448
   10DOPE  H15S 1233   2.866   5.128   5.085  0.2089  1.0056 -3.5760
   10DOPE  C216 1234   3.078   5.145   4.997 -0.3166 -0.7580  1.2058
   10DOPE  H16R 1235   3.178   5.136   5.046  0.9839  1.7996 -0.7196
   10DOPE  H16S 1236   3.071   5.243   4.945  1.7548 -0.6669  0.9973
   10DOPE  C217 1237   3.063   5.032   4.899  0.1616  0.0839  0.1859
   10DOPE  H17R 1238   2.964   5.028   4.849 -0.1493  1.9519  0.5914
   10DOPE  H17S 1239   3.075   4.932   4.948  2.8564  0.7520  1.0767
   10DOPE  C218 1240   3.162   5.040   4.784 -0.1019  1.0193  0.3568
   10DOPE  H18R 1241   3.258   5.079   4.826  0.6357  1.6149 -1.7333
   10DOPE  H18S 1242   3.127   5.097   4.695  2.7121  0.2400 -1.4097
   10DOPE  H18T 1243   3.173   4.934   4.753 -0.9177  0.3057  2.3559
   10DOPE   C33 1244   2.507   5.498   6.207 -0.5213 -0.4376 -0.4616
   10DOPE   H3X 1245   2.538   5.392   6.223  0.5443 -0.6677 -3.5060
   10DOPE   H3Y 1246   2.593   5.562   6.236 -0.1545  0.1324 -2.6300
   10DOPE   C34 1247   2.472   5.522   6.063 -0.3011  0.3649 -0.3057
   10DOPE   H4X 1248   2.403   5.448   6.016 -0.5880  0.4897 -0.0801
   10DOPE   H4Y 1249   2.445   5.629   6.052  1.5501  0.8415 -0.5261
   10DOPE   C35 1250   2.606   5.508   5.982  0.0785 -0.4911 -0.1519
   10DOPE   H5X 1251   2.617   5.400   5.959 -1.6249 -0.9877  1.1464
   10DOPE   H5Y 1252   2.693   5.550   6.037 -1.1167  1.2113  0.5229
   10DOPE   C36 1253   2.591   5.575   5.850  0.1750 -0.4183 -0.1336
   10DOPE   H6X 1254   2.570   5.683   5.861 -0.0007 -0.5445  0.8127
   10DOPE   H6Y 1255   2.509   5.525   5.794  1.9298 -2.9910 -0.5972
   10DOPE   C37 1256   2.713   5.556   5.762 -0.0184 -0.6376 -0.0131
   10DOPE   H7X 1257   2.802   5.592   5.818  0.0796 -2.1684  0.8776
   10DOPE   H7Y 1258   2.733   5.447   5.756 -0.1259 -0.6639  0.1016
   10DOPE   C38 1259   2.715   5.622   5.619  0.3119 -0.0382  0.6835
   10DOPE   H8X 1260   2.808   5.574   5.581 -1.6450 -2.2490 -1.7468
   10DOPE   H8Y 1261   2.717   5.733   5.623 -1.0611  0.0761 -0.6636
   10DOPE   C39 1262   2.600   5.566   5.533 -0.4854  0.3841 -0.5414
   10DOPE   H9X 1263   2.501   5.554   5.580  0.6534 -2.3569  1.4605
   10DOPE  C310 1264   2.613   5.478   5.430 -0.0673 -0.2758  0.2102
   10DOPE  H10X 1265   2.522   5.438   5.383 -0.2917  2.4195 -1.8910
   10DOPE  C311 1266   2.748   5.459   5.358  0.0230 -0.2791  0.3021
   10DOPE  H11X 1267   2.827   5.436   5.433 -0.0333  1.3700  0.9112
   10DOPE  H11Y 1268   2.737   5.381   5.280  0.9576  0.6412 -0.7816
   10DOPE  C312 1269   2.781   5.590   5.284 -0.0158  0.0751  0.2134
   10DOPE  H12X 1270   2.772   5.688   5.336  1.0571  0.4102 -0.2060
   10DOPE  H12Y 1271   2.715   5.601   5.196  3.2041 -0.8160 -2.5322
   10DOPE  C313 1272   2.925   5.566   5.224  0.0973  0.0938  0.0513
   10DOPE  H13X 1273   2.997   5.610   5.295  0.3785  2.3173 -1.5052
   10DOPE  H13Y 1274   2.951   5.461   5.202  0.3391  0.4523 -1.4856
   10DOPE  C314 1275   2.938   5.639   5.092  0.8910 -0.3696  0.2071
   10DOPE  H14X 1276   2.877   5.731   5.090  0.4680 -0.6567 -0.3845
   10DOPE  H14Y 1277   2.901   5.580   5.006 -0.9096 -0.7660  1.2147
   10DOPE  C315 1278   3.084   5.688   5.066  0.4066  0.1503  0.2285
   10DOPE  H15X 1279   3.150   5.599   5.071 -0.8387 -0.8543 -0.6443
   10DOPE  H15Y 1280   3.111   5.755   5.151  2.6611 -0.4868  0.0737
   10DOPE  C316 1281   3.103   5.760   4.931 -0.7516  0.1837 -0.5961
   10DOPE  H16X 1282   3.054   5.695   4.855  0.4834  0.4093 -1.6410
   10DOPE  H16Y 1283   3.212   5.765   4.909 -0.4640 -1.9733  0.1127
   10DOPE  C317 1284   3.035   5.901   4.931 -0.0940  0.3663  0.0433
   10DOPE  H17X 1285   2.926   5.884   4.929  0.2558 -2.4403 -3.6243
   10DOPE  H17Y 1286   3.061   5.955   5.025 -0.1568 -0.4566  0.5383
   10DOPE  C318 1287   3.065   5.971   4.795 -0.3635 -0.5519  0.1683
   10DOPE  H18X 1288   3.021   5.906   4.715  1.9043 -0.4928 -1.2216
   10DOPE  H18Y 1289   3.019   6.072   4.798  0.7717 -0.0067 -0.2151
   10DOPE  H18Z 1290   3.169   5.968   4.757 -0.8321  0.7267 -1.3078
   11DOPE     N 1291   0.736   4.275   6.998 -0.2645 -0.2525  0.1584
   11DOPE   HN1 1292   0.780   4.327   7.077  1.7793  1.0414 -1.7159
   11DOPE   HN2 1293   0.791   4.187   6.987  2.7313  1.4219  0.6053
   11DOPE   HN3 1294   0.745   4.334   6.913 -3.0253  0.4597  0.2720
   11DOPE   C12 1295   0.596   4.250   7.020  0.3609 -0.5948  0.6523
   11DOPE  H12A 1296   0.552   4.352   7.025  1.3213 -0.0077 -1.8090
   11DOPE  H12B 1297   0.582   4.193   7.115 -1.2495  0.5545  1.1429
   11DOPE   C11 1298   0.541   4.167   6.905  1.4186 -0.2885  0.5419
   11DOPE  H11A 1299   0.573   4.210   6.807  0.9817 -1.8103 -0.3039
   11DOPE  H11B 1300   0.431   4.181   6.909  1.0630 -2.3308 -0.5312
   11DOPE     P 1301   0.713   3.975   6.837  0.3654  0.0771 -0.6183
   11DOPE   O13 1302   0.738   3.842   6.894  0.5613 -0.5542 -0.2415
   11DOPE   O14 1303   0.830   4.069   6.843  0.6686 -0.0741  0.6141
   11DOPE   O11 1304   0.673   3.964   6.685  0.7354  0.3332  0.0221
   11DOPE   O12 1305   0.586   4.030   6.910  0.1221 -0.1143 -0.0003
   11DOPE    C1 1306   0.541   3.946   6.637  0.2334 -0.5011 -0.1914
   11DOPE    HA 1307   0.502   4.033   6.579  1.9383 -0.9986 -2.2183
   11DOPE    HB 1308   0.471   3.928   6.722  2.8461 -0.1910  2.1634
   11DOPE    C2 1309   0.542   3.825   6.548 -0.3088 -0.1998 -0.0217
   11DOPE    HS 1310   0.570   3.735   6.606 -1.2356  0.8037  2.0545
   11DOPE   O21 1311   0.635   3.847   6.435  0.0186  0.4648 -0.0939
   11DOPE   C21 1312   0.672   3.744   6.365  0.4024 -0.7719  0.4766
   11DOPE   O22 1313   0.659   3.627   6.397  0.1187  0.4087  0.2700
   11DOPE   C22 1314   0.731   3.789   6.236 -0.3939  0.0797  1.2168
   11DOPE   H2R 1315   0.798   3.878   6.243 -0.0969 -0.0786  0.4937
   11DOPE   H2S 1316   0.654   3.822   6.163  0.5194 -0.3285  0.0393
   11DOPE    C3 1317   0.401   3.786   6.498 -0.2130 -0.1351  0.4365
   11DOPE    HX 1318   0.352   3.749   6.591  1.5879  2.1351  2.4210
   11DOPE    HY 1319   0.407   3.703   6.425 -1.3578  0.5076 -0.4277
   11DOPE   O31 1320   0.336   3.900   6.428  1.1671  0.8239  0.3197
   11DOPE   C31 1321   0.198   3.878   6.447 -0.4031 -0.0113  0.5343
   11DOPE   O32 1322   0.151   3.804   6.527 -0.1558 -0.2584  0.4518
   11DOPE   C32 1323   0.146   3.988   6.361 -0.6445  0.3992 -0.1318
   11DOPE   H2X 1324   0.065   4.040   6.416  0.9275  2.1330  0.6822
   11DOPE   H2Y 1325   0.216   4.071   6.338 -0.3157 -0.0655 -0.8616
   11DOPE   C23 1326   0.817   3.680   6.162  0.5609  0.2389 -0.8959
   11DOPE   H3R 1327   0.887   3.629   6.232 -0.7132  0.9618  0.9769
   11DOPE   H3S 1328   0.877   3.733   6.085  0.6690  1.2782 -0.1118
   11DOPE   C24 1329   0.732   3.579   6.087 -0.6218  0.6276 -0.4635
   11DOPE   H4R 1330   0.679   3.620   5.998  0.4622  0.0001 -1.4298
   11DOPE   H4S 1331   0.652   3.541   6.153 -0.8557  0.4533 -0.8450
   11DOPE   C25 1332   0.815   3.459   6.057 -0.6044  0.4597  0.2873
   11DOPE   H5R 1333   0.743   3.382   6.022 -0.7361  0.5251  0.4111
   11DOPE   H5S 1334   0.880   3.423   6.140 -0.5643 -0.7045 -0.2324
   11DOPE   C26 1335   0.915   3.481   5.950  0.3719  0.2640  0.1287
   11DOPE   H6R 1336   0.994   3.547   5.993 -1.1769  2.1036  0.3092
   11DOPE   H6S 1337   0.870   3.536   5.865  1.4259  0.6233 -0.2029
   11DOPE   C27 1338   0.968   3.353   5.893  0.7347  0.2910  0.2739
   11DOPE   H7R 1339   0.892   3.278   5.861 -0.2670  1.8213 -1.0786
   11DOPE   H7S 1340   1.028   3.302   5.971  1.0616  0.9844  0.4856
   11DOPE   C28 1341   1.068   3.364   5.775 -0.4370 -0.8373 -0.1925
   11DOPE   H8R 1342   1.108   3.261   5.759  0.8049 -0.4810  0.5409
   11DOPE   H8S 1343   1.151   3.429   5.807 -0.7957 -0.6495  0.3631
   11DOPE   C29 1344   0.995   3.430   5.655  0.0427  0.2260 -0.5088
   11DOPE   H9R 1345   0.937   3.521   5.680 -1.3167 -1.2895  2.4707
   11DOPE  C210 1346   0.981   3.396   5.528  0.1993 -0.2521  0.9259
   11DOPE  H10R 1347   0.912   3.449   5.461  1.0174 -1.6462 -1.1390
   11DOPE  C211 1348   1.051   3.284   5.455 -0.3209  0.3513  0.0594
   11DOPE  H11R 1349   1.141   3.252   5.511 -0.8236 -0.9512  0.1587
   11DOPE  H11S 1350   1.085   3.318   5.356 -1.6252  1.9235  0.1014
   11DOPE  C212 1351   0.956   3.168   5.433  0.4160 -0.1564  0.4849
   11DOPE  H12R 1352   0.938   3.119   5.531 -0.6150  0.0821  0.4226
   11DOPE  H12S 1353   1.008   3.087   5.376  0.7777 -0.3948  1.1477
   11DOPE  C213 1354   0.828   3.188   5.357  0.4227  0.2033 -0.0359
   11DOPE  H13R 1355   0.814   3.102   5.288 -2.5807  1.8648 -1.7243
   11DOPE  H13S 1356   0.814   3.284   5.303  0.7625 -1.4769 -3.3062
   11DOPE  C214 1357   0.716   3.182   5.468 -0.5400 -0.6207  0.1500
   11DOPE  H14R 1358   0.739   3.266   5.538  3.5882  0.2745 -1.9668
   11DOPE  H14S 1359   0.710   3.081   5.513  0.2484  0.0598  1.8967
   11DOPE  C215 1360   0.579   3.227   5.412  0.0042  0.0208  0.4167
   11DOPE  H15R 1361   0.582   3.326   5.363  1.5573 -1.3108 -2.4125
   11DOPE  H15S 1362   0.506   3.244   5.494 -0.3244 -1.3646  0.4368
   11DOPE  C216 1363   0.512   3.133   5.315 -0.8844  0.5142 -0.1925
   11DOPE  H16R 1364   0.481   3.037   5.361  0.0514 -0.0479 -0.7287
   11DOPE  H16S 1365   0.583   3.114   5.232  0.0395 -0.6307  0.8149
   11DOPE  C217 1366   0.388   3.185   5.243  0.3523 -0.1963 -0.5645
   11DOPE  H17R 1367   0.413   3.289   5.214  0.3277  0.6643  2.1769
   11DOPE  H17S 1368   0.295   3.204   5.301  0.3907  2.1055 -1.1574
   11DOPE  C218 1369   0.356   3.092   5.122  0.4077  0.1185  0.3096
   11DOPE  H18R 1370   0.260   3.112   5.070  0.4644 -4.8631 -2.2069
   11DOPE  H18S 1371   0.335   2.987   5.149  0.1362 -0.1799 -1.0174
   11DOPE  H18T 1372   0.439   3.085   5.049  2.2195  0.3471  2.2439
   11DOPE   C33 1373   0.098   3.922   6.225  0.2210  0.3534 -0.3436
   11DOPE   H3X 1374   0.041   4.000   6.171 -3.3696 -3.1885 -2.1331
   11DOPE   H3Y 1375   0.029   3.838   6.249 -0.2491 -0.0523 -2.8839
   11DOPE   C34 1376   0.211   3.883   6.124  0.4223  1.1085 -0.3536
   11DOPE   H4X 1377   0.260   3.973   6.081  0.1064  2.2870  1.6461
   11DOPE   H4Y 1378   0.295   3.822   6.163  0.6530  0.6467 -1.5360
   11DOPE   C35 1379   0.155   3.791   6.014 -0.2820  0.1349 -0.2361
   11DOPE   H5X 1380   0.098   3.705   6.055 -0.3430  0.3517  0.1448
   11DOPE   H5Y 1381   0.241   3.748   5.958 -1.1354 -2.7904  0.5304
   11DOPE   C36 1382   0.079   3.864   5.901  0.4214 -0.2671 -0.1194
   11DOPE   H6X 1383   0.143   3.949   5.869 -0.9122  1.7357  2.2642
   11DOPE   H6Y 1384  -0.010   3.914   5.945  1.6491  2.1489 -0.2440
   11DOPE   C37 1385   0.028   3.771   5.781  0.5248 -1.0166  0.3446
   11DOPE   H7X 1386   0.118   3.727   5.733  0.5259 -4.2612  2.9958
   11DOPE   H7Y 1387  -0.034   3.690   5.827  1.4454 -0.8033  2.0428
   11DOPE   C38 1388  -0.049   3.855   5.682 -0.0971  0.0356  0.2830
   11DOPE   H8X 1389   0.004   3.950   5.658  1.2905 -1.2120 -1.8957
   11DOPE   H8Y 1390  -0.144   3.878   5.735 -0.3631  0.6235 -0.4473
   11DOPE   C39 1391  -0.072   3.784   5.554  0.4055 -0.0654  0.3359
   11DOPE   H9X 1392  -0.059   3.674   5.553 -1.5651 -0.3601  1.1402
   11DOPE  C310 1393  -0.099   3.838   5.436 -0.2763 -0.2116 -0.0975
   11DOPE  H10X 1394  -0.123   3.781   5.345  0.3005  0.0356 -0.4165
   11DOPE  C311 1395  -0.127   3.987   5.411  0.1459 -0.8916  0.6998
   11DOPE  H11X 1396  -0.235   4.015   5.417  0.1783  0.0736 -1.9711
   11DOPE  H11Y 1397  -0.063   4.049   5.476 -0.8054  3.0908 -1.8400
   11DOPE  C312 1398  -0.082   4.036   5.265  0.3646 -0.2945 -0.5205
   11DOPE  H12X 1399  -0.145   4.124   5.239  1.2705 -0.2653 -2.8692
   11DOPE  H12Y 1400  -0.108   3.955   5.194 -1.8125 -0.4249  0.3641
   11DOPE  C313 1401   0.063   4.073   5.253 -0.3772 -0.9596 -0.1783
   11DOPE  H13X 1402   0.077   4.153   5.329 -2.0289  1.6159 -2.3470
   11DOPE  H13Y 1403   0.122   3.981   5.273  3.1040  0.9722 -0.7851
   11DOPE  C314 1404   0.089   4.151   5.118 -0.2666 -0.3551  0.3145
   11DOPE  H14X 1405   0.179   4.214   5.103 -1.3707  1.6571  1.6263
   11DOPE  H14Y 1406   0.000   4.215   5.097 -0.2466 -0.8433 -1.4099
   11DOPE  C315 1407   0.092   4.049   5.000 -0.2093 -0.5213  0.6679
   11DOPE  H15X 1408   0.083   4.108   4.907 -0.6581  0.8111  1.5214
   11DOPE  H15Y 1409   0.005   3.980   5.011 -1.0217  0.3928  0.1932
   11DOPE  C316 1410   0.217   3.960   4.995 -0.6492  0.2008  0.2049
   11DOPE  H16X 1411   0.229   3.919   5.098 -2.2925 -0.4539  0.1618
   11DOPE  H16Y 1412   0.313   4.013   4.977 -0.8467  1.3401  2.1977
   11DOPE  C317 1413   0.211   3.854   4.885 -0.6229 -0.8742 -0.3372
   11DOPE  H17X 1414   0.102   3.833   4.890 -0.8843  0.6760  2.8100
   11DOPE  H17Y 1415   0.233   3.898   4.785  0.8810  0.7763  0.6651
   11DOPE  C318 1416   0.305   3.744   4.921 -0.7304  0.4020 -0.2161
   11DOPE  H18X 1417   0.409   3.778   4.941 -0.2604  0.0064 -1.7856
   11DOPE  H18Y 1418   0.270   3.689   5.011 -0.9023 -0.0891 -0.5754
   11DOPE  H18Z 1419   0.317   3.677   4.832  1.7081  2.1641 -1.3390
   12DOPE     N 1420   2.969   6.344   6.688 -0.1749 -1.0622 -0.3748
   12DOPE   HN1 1421   2.926   6.287   6.763 -1.3247 -0.4936 -0.5804
   12DOPE   HN2 1422   2.924   6.436   6.706 -0.3356 -1.1651 -0.2408
   12DOPE   HN3 1423   2.954   6.309   6.591  3.9817  0.6707 -1.8716
   12DOPE   C12 1424   3.119   6.352   6.711  0.2947  0.0445 -0.4524
   12DOPE  H12A 1425   3.169   6.410   6.630 -0.2463  0.7519 -0.2852
   12DOPE  H12B 1426   3.164   6.251   6.730 -0.6344 -0.2180  0.4500
   12DOPE   C11 1427   3.158   6.448   6.832 -0.5956  0.7503  0.6070
   12DOPE  H11A 1428   3.269   6.452   6.825 -0.6266  2.1306  0.7050
   12DOPE  H11B 1429   3.135   6.401   6.930 -0.8587  2.8162  1.5853
   12DOPE     P 1430   3.182   6.707   6.798 -0.0431  0.0764 -0.3274
   12DOPE   O13 1431   3.301   6.692   6.885 -0.1403 -0.2201  0.0280
   12DOPE   O14 1432   3.077   6.811   6.815  0.0538 -0.6995  0.1408
   12DOPE   O11 1433   3.219   6.692   6.648  0.1325  0.1347  0.2213
   12DOPE   O12 1434   3.102   6.577   6.825 -0.4411  0.1188 -0.5445
   12DOPE    C1 1435   3.339   6.630   6.604  0.1349 -0.6775  0.1363
   12DOPE    HA 1436   3.319   6.572   6.511 -0.0706  1.6502 -1.3510
   12DOPE    HB 1437   3.379   6.548   6.668 -0.2468 -0.4009  0.7258
   12DOPE    C2 1438   3.450   6.729   6.571 -0.4297 -0.8658 -0.0592
   12DOPE    HS 1439   3.458   6.800   6.656 -0.7218 -0.6191 -0.2368
   12DOPE   O21 1440   3.416   6.811   6.453  0.1569 -0.3878 -0.8918
   12DOPE   C21 1441   3.490   6.920   6.439 -0.3988  0.1269 -0.5247
   12DOPE   O22 1442   3.568   6.962   6.520 -0.5492 -0.4508 -0.5557
   12DOPE   C22 1443   3.450   6.986   6.314 -0.1094  0.1858  0.5255
   12DOPE   H2R 1444   3.383   7.069   6.346 -0.8335 -0.1859  0.0160
   12DOPE   H2S 1445   3.382   6.917   6.260 -1.7792  0.4421  2.1705
   12DOPE    C3 1446   3.586   6.649   6.550 -0.4840  0.0181  0.0339
   12DOPE    HX 1447   3.598   6.581   6.637  0.2471 -0.7032 -0.6135
   12DOPE    HY 1448   3.679   6.710   6.546  0.0646 -0.8081 -0.1375
   12DOPE   O31 1449   3.585   6.578   6.425  0.2131  0.2958 -0.2197
   12DOPE   C31 1450   3.620   6.457   6.426  0.0289 -0.2311  0.0877
   12DOPE   O32 1451   3.684   6.403   6.519 -0.2207 -0.3569 -0.2815
   12DOPE   C32 1452   3.562   6.375   6.300 -0.1778  0.5613 -0.4866
   12DOPE   H2X 1453   3.638   6.297   6.276 -1.8081 -1.7841  1.5136
   12DOPE   H2Y 1454   3.468   6.330   6.338 -0.1188 -0.3167 -1.3186
   12DOPE   C23 1455   3.570   7.025   6.231 -0.3579 -0.1184 -0.0518
   12DOPE   H3R 1456   3.640   6.938   6.232  1.5974  1.3617 -1.2436
   12DOPE   H3S 1457   3.626   7.112   6.271  1.3385 -2.1532  2.3962
   12DOPE   C24 1458   3.534   7.052   6.092 -0.0324 -0.1419  0.3717
   12DOPE   H4R 1459   3.460   7.136   6.090 -0.0171 -0.0558  1.9708
   12DOPE   H4S 1460   3.492   6.960   6.047 -0.2429  0.0857  0.0951
   12DOPE   C25 1461   3.659   7.104   6.019 -0.4369 -0.0997 -0.1784
   12DOPE   H5R 1462   3.743   7.031   6.026 -2.7471 -2.9223 -0.0565
   12DOPE   H5S 1463   3.702   7.193   6.070  1.0688 -0.1860 -1.2149
   12DOPE   C26 1464   3.626   7.148   5.874  0.6421 -0.7768 -0.3816
   12DOPE   H6R 1465   3.708   7.216   5.842 -0.5774  0.3342 -1.2586
   12DOPE   H6S 1466   3.534   7.210   5.873  0.0810 -1.5843 -0.0106
   12DOPE   C27 1467   3.616   7.042   5.759 -0.5505 -0.5841 -0.1275
   12DOPE   H7R 1468   3.528   6.976   5.778  0.1383 -1.1965  1.0577
   12DOPE   H7S 1469   3.712   6.987   5.754 -0.3549 -0.1598 -3.3214
   12DOPE   C28 1470   3.606   7.103   5.616  0.1242 -0.3353  0.1694
   12DOPE   H8R 1471   3.684   7.174   5.581 -0.0440  0.0150  0.4914
   12DOPE   H8S 1472   3.521   7.174   5.615  0.0295 -0.3092  2.6083
   12DOPE   C29 1473   3.590   6.997   5.512  0.4291  0.3103  1.0061
   12DOPE   H9R 1474   3.688   6.948   5.499  0.9702  1.6410 -0.1494
   12DOPE  C210 1475   3.477   6.963   5.448 -1.1627  0.3505  0.3062
   12DOPE  H10R 1476   3.463   6.888   5.368 -2.0765 -0.4212  1.1596
   12DOPE  C211 1477   3.349   7.028   5.486  0.1608 -0.1800 -0.6687
   12DOPE  H11R 1478   3.339   7.051   5.594  0.5057 -0.9994 -0.4488
   12DOPE  H11S 1479   3.269   6.954   5.463 -0.6020  0.5940 -0.5606
   12DOPE  C212 1480   3.310   7.155   5.408 -0.1807 -0.0011  0.1382
   12DOPE  H12R 1481   3.396   7.223   5.421 -0.5994  0.1755  2.4342
   12DOPE  H12S 1482   3.214   7.188   5.454  0.0701  0.5361  0.2783
   12DOPE  C213 1483   3.289   7.125   5.258 -0.2894 -0.1171  0.4948
   12DOPE  H13R 1484   3.222   7.036   5.255 -2.5764  1.4690 -3.1916
   12DOPE  H13S 1485   3.391   7.098   5.224 -0.4372  0.4305 -0.4140
   12DOPE  C214 1486   3.223   7.237   5.184 -0.4014  0.5158 -0.5688
   12DOPE  H14R 1487   3.289   7.325   5.172  0.1047 -0.0973 -3.0161
   12DOPE  H14S 1488   3.137   7.264   5.249 -0.8262  1.2652 -1.4164
   12DOPE  C215 1489   3.151   7.202   5.050 -0.2150 -0.1301  0.2787
   12DOPE  H15R 1490   3.167   7.288   4.981  1.7825 -1.5626 -1.1484
   12DOPE  H15S 1491   3.045   7.175   5.067 -0.0224 -0.8176  0.3960
   12DOPE  C216 1492   3.218   7.093   4.972 -0.2423  0.8399  0.1056
   12DOPE  H16R 1493   3.196   6.994   5.017  1.1880 -0.4158 -1.8606
   12DOPE  H16S 1494   3.326   7.116   4.973 -0.3275  1.2489 -0.1003
   12DOPE  C217 1495   3.158   7.088   4.830  0.2001 -0.3619 -0.2510
   12DOPE  H17R 1496   3.181   7.180   4.772  0.9956  0.2458  0.9899
   12DOPE  H17S 1497   3.048   7.079   4.836  0.2303  0.2093  1.9003
   12DOPE  C218 1498   3.214   6.965   4.757  0.4003  0.2127  0.1060
   12DOPE  H18R 1499   3.323   6.979   4.745  1.1901 -2.0819  3.3106
   12DOPE  H18S 1500   3.179   6.948   4.652  2.0116  1.0729 -0.6071
   12DOPE  H18T 1501   3.199   6.871   4.813  1.3540  0.4358  0.7583
   12DOPE   C33 1502   3.540   6.461   6.179 -0.5895 -0.5805 -0.4412
   12DOPE   H3X 1503   3.550   6.394   6.091 -2.3648 -2.8266  0.9375
   12DOPE   H3Y 1504   3.630   6.527   6.179 -1.6474  1.0123  2.1267
   12DOPE   C34 1505   3.407   6.540   6.174  0.0115  0.6447 -0.7195
   12DOPE   H4X 1506   3.325   6.466   6.185 -0.1324  1.0911  1.9816
   12DOPE   H4Y 1507   3.403   6.603   6.266  1.7133 -0.7521  0.3858
   12DOPE   C35 1508   3.414   6.648   6.068  0.1111 -0.6351 -0.0510
   12DOPE   H5X 1509   3.510   6.704   6.076  0.5617 -1.0379 -2.0451
   12DOPE   H5Y 1510   3.331   6.722   6.071  1.4890  0.9633 -0.0521
   12DOPE   C36 1511   3.404   6.592   5.927  0.1594 -0.1329 -0.2004
   12DOPE   H6X 1512   3.307   6.540   5.913 -1.3791  2.7544 -1.0384
   12DOPE   H6Y 1513   3.473   6.505   5.924  0.0127 -0.3911  2.1448
   12DOPE   C37 1514   3.441   6.689   5.815 -0.5331  0.2663  0.5045
   12DOPE   H7X 1515   3.359   6.763   5.812 -0.3321  0.4776 -1.8933
   12DOPE   H7Y 1516   3.536   6.744   5.832 -0.4768  1.1356 -2.0828
   12DOPE   C38 1517   3.460   6.625   5.674  0.2765  0.7146  0.7143
   12DOPE   H8X 1518   3.501   6.707   5.611 -1.3503 -0.0650 -1.4880
   12DOPE   H8Y 1519   3.364   6.610   5.621  1.3674  1.7741 -1.7239
   12DOPE   C39 1520   3.542   6.497   5.673  0.1501  0.1996 -0.3185
   12DOPE   H9X 1521   3.649   6.516   5.694  0.5420  1.6143 -3.0992
   12DOPE  C310 1522   3.512   6.373   5.630  0.2006 -0.1827 -0.5152
   12DOPE  H10X 1523   3.596   6.303   5.623  0.9567  0.7711 -1.3342
   12DOPE  C311 1524   3.373   6.329   5.572 -0.2060 -0.1495  0.6756
   12DOPE  H11X 1525   3.334   6.240   5.627  0.0347 -0.4519  0.3637
   12DOPE  H11Y 1526   3.299   6.407   5.596  1.6753  1.9438 -0.0051
   12DOPE  C312 1527   3.373   6.295   5.422  0.3142  0.2971  0.2611
   12DOPE  H12X 1528   3.411   6.380   5.362  1.5102 -0.5612 -0.2375
   12DOPE  H12Y 1529   3.267   6.273   5.396  0.1669  0.3558  0.7898
   12DOPE  C313 1530   3.445   6.163   5.397  0.1436  0.0932 -0.5705
   12DOPE  H13X 1531   3.555   6.172   5.397 -0.0503  3.5756 -0.9514
   12DOPE  H13Y 1532   3.402   6.087   5.466 -2.0492  0.4698 -1.4482
   12DOPE  C314 1533   3.410   6.115   5.260  0.3496 -0.0863  0.4411
   12DOPE  H14X 1534   3.440   6.199   5.194 -1.8087  0.1106 -0.3897
   12DOPE  H14Y 1535   3.299   6.112   5.247  0.4488  1.7783 -1.2121
   12DOPE  C315 1536   3.484   5.983   5.217 -0.1509  0.1644  0.0421
   12DOPE  H15X 1537   3.479   5.913   5.303 -1.3749  1.0533  0.7333
   12DOPE  H15Y 1538   3.592   6.009   5.207  0.1311 -1.7058 -2.7429
   12DOPE  C316 1539   3.444   5.924   5.085 -0.0964 -0.2742 -0.3585
   12DOPE  H16X 1540   3.443   6.004   5.008 -1.5307  0.1970  0.1115
   12DOPE  H16Y 1541   3.344   5.875   5.086 -0.6345  0.7833  0.5211
   12DOPE  C317 1542   3.547   5.819   5.052  0.3643  0.1071 -0.1578
   12DOPE  H17X 1543   3.647   5.866   5.035 -0.1886  0.7783 -1.7713
   12DOPE  H17Y 1544   3.556   5.761   5.146  0.5257  2.0509  1.0772
   12DOPE  C318 1545   3.512   5.751   4.923 -0.3249  0.5007 -0.1242
   12DOPE  H18X 1546   3.403   5.734   4.911 -0.4157  1.8279 -1.3868
   12DOPE  H18Y 1547   3.529   5.820   4.838  0.3249  2.2388  1.3384
   12DOPE  H18Z 1548   3.578   5.662   4.912 -0.4525  0.5001 -0.9250
   13DOPE     N 1549   1.720   0.545   6.997  0.3729 -0.0217  0.1163
   13DOPE   HN1 1550   1.764   0.512   7.085 -0.1799 -0.6412  0.1671
   13DOPE   HN2 1551   1.667   0.633   7.016 -0.1720 -0.3729  0.2533
   13DOPE   HN3 1552   1.644   0.476   6.977  1.0314 -1.5797  2.5546
   13DOPE   C12 1553   1.820   0.556   6.889 -0.8318 -0.3999  0.1441
   13DOPE  H12A 1554   1.767   0.603   6.804  0.0565 -1.4298 -1.0268
   13DOPE  H12B 1555   1.862   0.456   6.864  0.8138  0.1102  0.7000
   13DOPE   C11 1556   1.925   0.661   6.945 -0.3956  0.3558 -0.2644
   13DOPE  H11A 1557   2.003   0.679   6.869  0.8247  2.6532  1.4160
   13DOPE  H11B 1558   1.960   0.624   7.044 -1.5275 -1.8953 -0.6251
   13DOPE     P 1559   1.958   0.911   7.013 -0.7049  0.0022  0.4139
   13DOPE   O13 1560   2.090   0.863   7.065  0.1808  0.1119  0.2977
   13DOPE   O14 1561   1.878   0.988   7.103 -0.3441  0.2901 -0.4088
   13DOPE   O11 1562   1.977   0.998   6.882  0.6857 -0.4031 -0.3418
   13DOPE   O12 1563   1.865   0.788   6.970  0.3360  0.1218 -0.6994
   13DOPE    C1 1564   1.872   1.039   6.794  0.2767 -0.1127 -0.1156
   13DOPE    HA 1565   1.860   1.149   6.807 -0.2238 -0.3824  2.1450
   13DOPE    HB 1566   1.781   0.979   6.814  1.1102 -1.1223  0.7518
   13DOPE    C2 1567   1.901   1.017   6.644 -0.3757 -0.5975  0.4367
   13DOPE    HS 1568   1.915   0.909   6.624  0.0251 -0.9616  2.4262
   13DOPE   O21 1569   2.025   1.081   6.616 -0.0043  0.4677 -0.0581
   13DOPE   C21 1570   2.126   1.024   6.550  0.2845  0.2228  0.4177
   13DOPE   O22 1571   2.149   0.902   6.546  0.1979  0.1621 -0.0023
   13DOPE   C22 1572   2.216   1.137   6.504  0.7422 -0.2754  0.8110
   13DOPE   H2R 1573   2.254   1.202   6.585  0.1019  0.1568  0.7748
   13DOPE   H2S 1574   2.153   1.202   6.439  0.2723  0.5181  2.0293
   13DOPE    C3 1575   1.788   1.070   6.549 -0.7154  0.3358 -0.1894
   13DOPE    HX 1576   1.781   1.179   6.567 -1.0439  0.7914 -2.7128
   13DOPE    HY 1577   1.691   1.022   6.572 -0.2137 -0.5663  0.1223
   13DOPE   O31 1578   1.810   1.047   6.407 -0.5608  0.0118  0.3896
   13DOPE   C31 1579   1.712   1.072   6.325  0.7167  0.1512  0.3709
   13DOPE   O32 1580   1.600   1.115   6.362 -0.6949  0.3645 -0.4930
   13DOPE   C32 1581   1.754   1.042   6.184 -0.2740  1.1551  0.7709
   13DOPE   H2X 1582   1.830   1.115   6.152 -1.5931  1.5483 -1.7539
   13DOPE   H2Y 1583   1.803   0.943   6.173  1.7222  2.0034  1.6780
   13DOPE   C23 1584   2.329   1.098   6.408 -0.1252  0.9333 -0.2986
   13DOPE   H3R 1585   2.405   1.041   6.466 -0.3193 -0.0384 -0.9750
   13DOPE   H3S 1586   2.389   1.187   6.380 -0.6307  1.7930  1.2118
   13DOPE   C24 1587   2.304   1.008   6.282  0.5244  0.2524 -0.7475
   13DOPE   H4R 1588   2.226   0.931   6.304  0.2314  0.6373 -0.4275
   13DOPE   H4S 1589   2.393   0.947   6.259  2.0109  1.9596  0.2486
   13DOPE   C25 1590   2.271   1.088   6.160 -0.5281  0.2493  0.6739
   13DOPE   H5R 1591   2.358   1.143   6.119 -0.0530 -1.1060 -0.1866
   13DOPE   H5S 1592   2.196   1.163   6.193 -1.5474  1.1552 -3.2252
   13DOPE   C26 1593   2.202   0.999   6.055  0.0956 -0.0337  0.0075
   13DOPE   H6R 1594   2.110   0.966   6.108 -0.0244  0.3253  0.0252
   13DOPE   H6S 1595   2.251   0.901   6.039  0.6197 -0.0177  1.3864
   13DOPE   C27 1596   2.158   1.077   5.933 -0.4468 -0.3256  0.4370
   13DOPE   H7R 1597   2.242   1.126   5.880 -0.5666 -0.4848  0.1000
   13DOPE   H7S 1598   2.082   1.151   5.965 -0.5561  0.2800 -1.1568
   13DOPE   C28 1599   2.082   0.990   5.828  0.5099 -0.0299 -0.3794
   13DOPE   H8R 1600   2.031   1.054   5.754  0.9469  0.9511  0.1589
   13DOPE   H8S 1601   2.007   0.925   5.879  0.1773 -0.1437 -1.0100
   13DOPE   C29 1602   2.183   0.901   5.755 -0.2930  0.3393 -0.3521
   13DOPE   H9R 1603   2.252   0.838   5.813  0.9635  1.2601 -0.7917
   13DOPE  C210 1604   2.187   0.886   5.623  0.0491  0.4373 -0.1665
   13DOPE  H10R 1605   2.273   0.841   5.572  0.7259  1.1057  0.3422
   13DOPE  C211 1606   2.086   0.941   5.524 -0.4544 -0.0982 -0.3818
   13DOPE  H11R 1607   2.116   1.044   5.495  1.5856 -1.2600 -2.8606
   13DOPE  H11S 1608   1.983   0.930   5.564 -0.1608 -2.0332 -0.0337
   13DOPE  C212 1609   2.069   0.848   5.403  0.1877  0.8094 -0.6879
   13DOPE  H12R 1610   2.014   0.760   5.443  1.3797  0.1650 -0.4517
   13DOPE  H12S 1611   2.164   0.829   5.350 -2.1435 -1.5253 -4.5841
   13DOPE  C213 1612   1.975   0.920   5.311 -0.1744  0.2964  0.5302
   13DOPE  H13R 1613   2.022   1.021   5.305  1.0340 -0.3211 -0.9118
   13DOPE  H13S 1614   1.875   0.921   5.361  0.0308  0.4398  0.9425
   13DOPE  C214 1615   1.947   0.847   5.180 -0.1770  0.1732  0.1590
   13DOPE  H14R 1616   1.906   0.746   5.198  0.3575 -0.5581 -2.3560
   13DOPE  H14S 1617   2.033   0.828   5.113 -0.8454 -3.4524  0.1615
   13DOPE  C215 1618   1.861   0.911   5.085 -0.2148 -0.1387  0.5975
   13DOPE  H15R 1619   1.782   0.954   5.150  1.1347  1.4775  1.2447
   13DOPE  H15S 1620   1.823   0.841   5.007  2.9087 -0.8369 -0.4284
   13DOPE  C216 1621   1.923   1.042   5.025 -0.4420 -0.0906 -0.6902
   13DOPE  H16R 1622   2.027   1.012   4.998 -0.2318 -0.8324  0.8186
   13DOPE  H16S 1623   1.933   1.107   5.114  2.2981 -1.0461 -0.1909
   13DOPE  C217 1624   1.835   1.093   4.908  0.5427  0.2525 -0.4255
   13DOPE  H17R 1625   1.737   1.113   4.958  0.6406 -0.4264  0.0524
   13DOPE  H17S 1626   1.818   1.006   4.841 -1.6708  0.6575 -0.4741
   13DOPE  C218 1627   1.876   1.217   4.834  0.1148 -0.6458  0.0122
   13DOPE  H18R 1628   1.979   1.217   4.793 -0.9328 -3.2112 -2.9753
   13DOPE  H18S 1629   1.874   1.311   4.895 -1.5932 -0.8870  0.3832
   13DOPE  H18T 1630   1.813   1.236   4.745 -1.1809 -1.5293  0.7181
   13DOPE   C33 1631   1.628   1.045   6.093 -0.0379  0.4641  0.1496
   13DOPE   H3X 1632   1.575   1.142   6.106 -0.6738 -0.0821  1.8371
   13DOPE   H3Y 1633   1.564   0.960   6.126  1.2128 -0.7847 -0.5351
   13DOPE   C34 1634   1.673   1.034   5.948  0.1824 -0.3973 -0.5636
   13DOPE   H4X 1635   1.743   1.116   5.924 -0.0512 -0.6962 -2.3820
   13DOPE   H4Y 1636   1.721   0.935   5.929  0.8004 -0.7137  2.1760
   13DOPE   C35 1637   1.561   1.063   5.844 -0.1223 -0.1766 -0.2642
   13DOPE   H5X 1638   1.522   1.167   5.856 -1.7846 -0.8189  0.3203
   13DOPE   H5Y 1639   1.474   1.002   5.877 -1.4285  0.9047 -1.5534
   13DOPE   C36 1640   1.594   1.048   5.695  0.0637 -0.3176  0.0832
   13DOPE   H6X 1641   1.688   1.104   5.675 -0.4308  0.0052 -1.5018
   13DOPE   H6Y 1642   1.510   1.087   5.633 -0.9679  0.8302  2.1033
   13DOPE   C37 1643   1.613   0.910   5.649  0.2926  0.3564  0.2258
   13DOPE   H7X 1644   1.689   0.858   5.711  0.9353 -0.5772 -1.2931
   13DOPE   H7Y 1645   1.515   0.859   5.663  0.9049 -1.3491 -1.2981
   13DOPE   C38 1646   1.639   0.902   5.502 -0.0788  0.2628 -0.2174
   13DOPE   H8X 1647   1.730   0.961   5.476  1.1010 -1.4673 -0.1328
   13DOPE   H8Y 1648   1.551   0.951   5.455 -0.7931 -2.4856 -1.9032
   13DOPE   C39 1649   1.648   0.762   5.445 -0.2568  0.1933  0.1692
   13DOPE   H9X 1650   1.736   0.701   5.470 -0.4534 -0.2561 -0.2163
   13DOPE  C310 1651   1.561   0.708   5.358  0.3965 -0.2083  0.6392
   13DOPE  H10X 1652   1.574   0.611   5.308  0.0792  0.8091 -1.5738
   13DOPE  C311 1653   1.441   0.783   5.298 -0.0270 -0.2973 -0.1657
   13DOPE  H11X 1654   1.360   0.707   5.287  0.0636 -0.5424  0.7548
   13DOPE  H11Y 1655   1.394   0.849   5.373 -1.4318  1.6966 -2.6713
   13DOPE  C312 1656   1.484   0.853   5.172 -0.0700  0.1689 -0.5430
   13DOPE  H12X 1657   1.588   0.891   5.175  0.0758 -0.2671  0.0156
   13DOPE  H12Y 1658   1.414   0.940   5.172 -0.7899 -0.3353  1.8926
   13DOPE  C313 1659   1.470   0.765   5.044 -0.5275 -0.6546 -0.1457
   13DOPE  H13X 1660   1.534   0.674   5.054  0.6711  0.2496  0.6370
   13DOPE  H13Y 1661   1.363   0.735   5.036 -0.5065 -1.2829  1.5682
   13DOPE  C314 1662   1.493   0.853   4.922  0.1314  0.1754  0.6145
   13DOPE  H14X 1663   1.466   0.794   4.832 -0.1962 -0.2072  0.9645
   13DOPE  H14Y 1664   1.602   0.863   4.902  0.0882 -0.5265 -0.0427
   13DOPE  C315 1665   1.435   0.983   4.910 -0.1934 -0.2503  0.2281
   13DOPE  H15X 1666   1.486   1.048   4.983 -0.3204 -0.2688  0.3344
   13DOPE  H15Y 1667   1.326   0.975   4.931 -0.7594  0.4114 -2.0714
   13DOPE  C316 1668   1.457   1.032   4.766 -0.3042  0.1710  1.2211
   13DOPE  H16X 1669   1.388   0.988   4.691  2.2379  0.7615 -1.6759
   13DOPE  H16Y 1670   1.557   1.001   4.727  0.6381  2.0802  1.9773
   13DOPE  C317 1671   1.460   1.180   4.747 -0.2132  0.0425 -0.7256
   13DOPE  H17X 1672   1.358   1.224   4.745 -1.1000 -1.7747  0.9580
   13DOPE  H17Y 1673   1.518   1.238   4.822 -0.9495 -0.8383  0.5555
   13DOPE  C318 1674   1.510   1.219   4.612  0.2619  0.0750  0.1242
   13DOPE  H18X 1675   1.458   1.162   4.532 -0.3282 -0.6462  1.0002
   13DOPE  H18Y 1676   1.493   1.325   4.585 -2.0771  0.3568  2.3691
   13DOPE  H18Z 1677   1.615   1.181   4.604  0.0075 -0.9332  1.3203
   14DOPE     N 1678   6.553   4.505   7.164  0.0740  0.6994 -0.0332
   14DOPE   HN1 1679   6.600   4.597   7.173 -0.2755  0.9564 -0.8162
   14DOPE   HN2 1680   6.594   4.442   7.237  0.0508  3.6452  2.7657
   14DOPE   HN3 1681   6.574   4.464   7.071 -0.6533 -1.2965  0.6159
   14DOPE   C12 1682   6.404   4.522   7.171  0.3145  0.2258  0.6210
   14DOPE  H12A 1683   6.370   4.604   7.105 -0.5733 -1.2460 -0.8104
   14DOPE  H12B 1684   6.369   4.537   7.275 -1.1780  2.0348 -0.0882
   14DOPE   C11 1685   6.328   4.401   7.105 -0.0474  0.0893  0.2753
   14DOPE  H11A 1686   6.221   4.429   7.123 -0.1483 -0.2610  0.2256
   14DOPE  H11B 1687   6.344   4.308   7.164 -1.4466  0.8902  2.0070
   14DOPE     P 1688   6.274   4.435   6.845  0.4743  0.2262  0.1393
   14DOPE   O13 1689   6.308   4.574   6.804  0.6742  0.2984 -0.0743
   14DOPE   O14 1690   6.129   4.402   6.874  0.0124 -0.1335  0.5783
   14DOPE   O11 1691   6.332   4.335   6.735  0.3030  0.0864 -0.6625
   14DOPE   O12 1692   6.367   4.397   6.967 -0.5227 -0.3816  0.4426
   14DOPE    C1 1693   6.476   4.322   6.711 -0.1912  0.0283  0.3631
   14DOPE    HA 1694   6.515   4.244   6.780 -0.9362 -1.0703 -0.4082
   14DOPE    HB 1695   6.524   4.422   6.717 -0.7842  0.5333 -2.0146
   14DOPE    C2 1696   6.503   4.258   6.574  0.1181  0.2798 -0.4048
   14DOPE    HS 1697   6.478   4.342   6.506 -3.3982  0.1260  0.4616
   14DOPE   O21 1698   6.420   4.144   6.550 -0.1088  0.2612  0.3323
   14DOPE   C21 1699   6.370   4.139   6.429 -0.1058 -0.1155 -0.4063
   14DOPE   O22 1700   6.365   4.230   6.354  0.6676  0.3409  0.5752
   14DOPE   C22 1701   6.310   4.010   6.389  0.2362 -0.2261 -0.1656
   14DOPE   H2R 1702   6.241   4.033   6.306 -0.6871  1.1010  0.9254
   14DOPE   H2S 1703   6.248   3.981   6.476 -0.4068  1.2226 -0.1097
   14DOPE    C3 1704   6.646   4.202   6.551  0.5041 -0.8317 -0.1559
   14DOPE    HX 1705   6.651   4.120   6.625 -1.0216 -0.7756  0.0497
   14DOPE    HY 1706   6.719   4.276   6.588 -0.8583  0.2814  0.4131
   14DOPE   O31 1707   6.664   4.154   6.417 -0.0444  0.0715  0.1811
   14DOPE   C31 1708   6.793   4.127   6.395  0.1992  0.5486 -0.0828
   14DOPE   O32 1709   6.879   4.114   6.476  0.3100 -0.6390  0.2173
   14DOPE   C32 1710   6.813   4.107   6.247 -0.2768  0.2196  0.7957
   14DOPE   H2X 1711   6.824   3.998   6.232 -0.0733  0.3718 -0.2415
   14DOPE   H2Y 1712   6.730   4.145   6.183  0.2327  0.4589  0.2617
   14DOPE   C23 1713   6.413   3.902   6.351  0.6768  0.3522 -0.0692
   14DOPE   H3R 1714   6.354   3.811   6.325 -0.4596  0.2083  2.6869
   14DOPE   H3S 1715   6.483   3.873   6.432 -2.1061 -1.8929  1.7176
   14DOPE   C24 1716   6.500   3.933   6.227  0.5220 -0.3031  1.1298
   14DOPE   H4R 1717   6.582   3.859   6.216 -0.9601 -1.7505 -1.1558
   14DOPE   H4S 1718   6.558   4.027   6.230 -0.8657  0.6151  0.5174
   14DOPE   C25 1719   6.422   3.944   6.092  0.4949  0.4445  0.1756
   14DOPE   H5R 1720   6.348   4.023   6.115  3.4936  3.2682  0.9322
   14DOPE   H5S 1721   6.382   3.842   6.073  2.2527  0.1600 -2.5863
   14DOPE   C26 1722   6.513   3.982   5.982 -0.1229 -0.1624 -0.0396
   14DOPE   H6R 1723   6.589   3.904   6.006 -1.3724 -1.2436  0.5037
   14DOPE   H6S 1724   6.541   4.089   5.996  0.1164 -0.3455  0.9471
   14DOPE   C27 1725   6.442   3.968   5.842  0.3539  0.1587 -0.1894
   14DOPE   H7R 1726   6.428   3.858   5.834 -0.6201  0.1676  0.9864
   14DOPE   H7S 1727   6.504   4.004   5.757 -3.0551 -0.8992 -3.4138
   14DOPE   C28 1728   6.303   4.025   5.841 -0.3012  0.5557 -0.1434
   14DOPE   H8R 1729   6.304   4.118   5.902 -1.8428 -0.4889  1.5717
   14DOPE   H8S 1730   6.238   3.946   5.884  0.4656 -0.0387 -0.0508
   14DOPE   C29 1731   6.235   4.047   5.706  0.5332 -0.3461  0.1741
   14DOPE   H9R 1732   6.231   4.155   5.684 -1.2092 -0.5375 -0.6093
   14DOPE  C210 1733   6.178   3.963   5.619 -1.3081 -0.1171 -0.3770
   14DOPE  H10R 1734   6.133   3.998   5.525 -2.0224 -1.4021 -0.5413
   14DOPE  C211 1735   6.175   3.810   5.634 -0.3446  0.3704 -0.8742
   14DOPE  H11R 1736   6.068   3.783   5.638 -0.1111 -0.5379 -0.5408
   14DOPE  H11S 1737   6.231   3.770   5.721 -0.3503 -1.8793 -1.8335
   14DOPE  C212 1738   6.231   3.730   5.516  0.0049 -0.2124  0.9812
   14DOPE  H12R 1739   6.241   3.620   5.527  2.2681 -0.1092  0.4883
   14DOPE  H12S 1740   6.334   3.773   5.518  0.1296 -0.4392 -0.1576
   14DOPE  C213 1741   6.146   3.754   5.395  0.5576  0.0164  0.2253
   14DOPE  H13R 1742   6.137   3.862   5.370  1.9396 -0.1241 -1.0666
   14DOPE  H13S 1743   6.045   3.712   5.412  0.8112 -0.5524  0.3512
   14DOPE  C214 1744   6.205   3.683   5.269  0.5521  0.3335 -0.2954
   14DOPE  H14R 1745   6.201   3.572   5.273 -0.9165  0.3761  0.4609
   14DOPE  H14S 1746   6.311   3.710   5.254  0.6772 -1.1321 -2.4680
   14DOPE  C215 1747   6.124   3.703   5.135  0.0604  0.4906  0.7050
   14DOPE  H15R 1748   6.100   3.809   5.109 -1.3293  0.1151  0.3683
   14DOPE  H15S 1749   6.022   3.657   5.132 -0.2314  1.1581 -0.2870
   14DOPE  C216 1750   6.186   3.642   5.011 -0.2061  0.2686  0.0866
   14DOPE  H16R 1751   6.215   3.537   5.032 -1.9405 -0.7950 -2.4027
   14DOPE  H16S 1752   6.277   3.700   4.983  0.3326 -0.9341 -0.7206
   14DOPE  C217 1753   6.106   3.644   4.885 -0.3574  0.3300  0.1306
   14DOPE  H17R 1754   6.076   3.746   4.854  1.1093  0.2317 -1.8464
   14DOPE  H17S 1755   6.013   3.586   4.903  0.7603 -1.4609  0.4572
   14DOPE  C218 1756   6.176   3.584   4.760  0.3976 -0.2419  0.0468
   14DOPE  H18R 1757   6.109   3.604   4.674 -1.2864  3.7603  2.0173
   14DOPE  H18S 1758   6.210   3.479   4.772  2.7225  0.1727 -2.1854
   14DOPE  H18T 1759   6.269   3.640   4.741  0.9945 -1.1088  0.3428
   14DOPE   C33 1760   6.934   4.192   6.182  0.3516  0.0572 -0.4743
   14DOPE   H3X 1761   6.998   4.116   6.131 -0.3010 -0.9096  0.1216
   14DOPE   H3Y 1762   6.994   4.243   6.260  0.1087  2.1500 -1.5894
   14DOPE   C34 1763   6.883   4.299   6.088 -1.1512 -0.3222 -0.6293
   14DOPE   H4X 1764   6.812   4.261   6.012  0.7015 -0.5920 -2.3070
   14DOPE   H4Y 1765   6.834   4.375   6.152  1.0846  0.2768  0.5075
   14DOPE   C35 1766   6.991   4.378   6.004  0.0869  0.7048  0.0873
   14DOPE   H5X 1767   7.045   4.306   5.939 -3.1394 -1.0342 -0.8615
   14DOPE   H5Y 1768   7.060   4.430   6.073  0.1232  0.7145  0.0443
   14DOPE   C36 1769   6.926   4.482   5.916  0.0594  0.6212  0.5846
   14DOPE   H6X 1770   6.855   4.548   5.969  1.1307  1.4774  0.9701
   14DOPE   H6Y 1771   6.866   4.429   5.838  2.1081 -0.6002 -0.2666
   14DOPE   C37 1772   7.030   4.576   5.855  0.0943 -0.4237 -0.4244
   14DOPE   H7X 1773   7.116   4.592   5.924 -1.0354  0.1464  0.8910
   14DOPE   H7Y 1774   7.068   4.523   5.765  3.7767 -0.2579  0.8305
   14DOPE   C38 1775   6.965   4.711   5.801 -0.0040 -0.0769 -0.1841
   14DOPE   H8X 1776   6.873   4.681   5.745 -1.4937  1.1049  1.5121
   14DOPE   H8Y 1777   7.044   4.757   5.738  0.9552  0.0479  1.0795
   14DOPE   C39 1778   6.916   4.796   5.916 -0.1381  0.5580  0.3417
   14DOPE   H9X 1779   6.884   4.742   6.007  2.5138  2.0009  2.2714
   14DOPE  C310 1780   6.921   4.932   5.929  0.9470 -0.2321 -0.7391
   14DOPE  H10X 1781   6.884   4.978   6.022 -0.1679  1.2973 -1.8861
   14DOPE  C311 1782   6.974   5.026   5.822  0.1015  0.1960  0.3872
   14DOPE  H11X 1783   7.042   4.973   5.752  0.9286 -0.9632  1.9814
   14DOPE  H11Y 1784   6.893   5.071   5.761  0.3319  0.5127  0.3144
   14DOPE  C312 1785   7.055   5.143   5.883  0.1092 -0.2252 -0.0734
   14DOPE  H12X 1786   7.147   5.096   5.923  0.3513  0.7824  0.5863
   14DOPE  H12Y 1787   6.999   5.190   5.967 -1.0456  1.3609 -1.6535
   14DOPE  C313 1788   7.093   5.244   5.781  0.5558 -0.7866  0.2939
   14DOPE  H13X 1789   7.138   5.194   5.693 -0.2846 -0.5207 -0.3021
   14DOPE  H13Y 1790   6.997   5.285   5.742  0.7281  0.8079  1.4601
   14DOPE  C314 1791   7.184   5.359   5.832  0.0650 -0.7759  0.3818
   14DOPE  H14X 1792   7.279   5.307   5.857  0.8484 -0.7582 -2.3359
   14DOPE  H14Y 1793   7.141   5.406   5.923  2.0789  1.7215  0.1474
   14DOPE  C315 1794   7.233   5.447   5.718  0.5449 -0.1631  0.6417
   14DOPE  H15X 1795   7.151   5.496   5.662  1.2393 -0.0932 -0.3244
   14DOPE  H15Y 1796   7.298   5.390   5.649  0.0634  0.3188 -0.2272
   14DOPE  C316 1797   7.322   5.564   5.765  0.0511  0.5177 -0.0252
   14DOPE  H16X 1798   7.406   5.535   5.832 -0.5693  1.4597  1.1794
   14DOPE  H16Y 1799   7.266   5.639   5.825 -1.8794 -2.1894  1.7420
   14DOPE  C317 1800   7.397   5.629   5.649 -0.4976 -0.0950  0.7316
   14DOPE  H17X 1801   7.464   5.563   5.589 -0.6944  2.1205 -2.1700
   14DOPE  H17Y 1802   7.313   5.661   5.584  0.5869  1.6029  0.1029
   14DOPE  C318 1803   7.475   5.755   5.692 -0.1344 -0.2581  0.4384
   14DOPE  H18X 1804   7.464   5.845   5.628  2.1504 -0.7834 -0.8331
   14DOPE  H18Y 1805   7.436   5.789   5.790  1.1574  2.8135  0.0162
   14DOPE  H18Z 1806   7.585   5.746   5.710  0.0831  2.0599  0.5938
   15DOPE     N 1807   0.175   0.442   6.621  0.3562  0.0618  0.5485
   15DOPE   HN1 1808   0.183   0.474   6.522  0.4899  0.8916  0.8208
   15DOPE   HN2 1809   0.106   0.365   6.630  1.3007 -0.9925 -0.8127
   15DOPE   HN3 1810   0.114   0.518   6.659 -1.5422  1.3640 -4.2858
   15DOPE   C12 1811   0.310   0.427   6.692 -0.1967  0.5914  0.1569
   15DOPE  H12A 1812   0.349   0.328   6.661 -0.2007  0.3553  0.8925
   15DOPE  H12B 1813   0.290   0.423   6.801 -0.7831  0.9449  0.0694
   15DOPE   C11 1814   0.399   0.550   6.654 -0.4934  0.7674  0.1694
   15DOPE  H11A 1815   0.412   0.543   6.544 -0.3422 -0.0659  0.2406
   15DOPE  H11B 1816   0.497   0.539   6.705 -0.3226  1.0221 -0.1023
   15DOPE     P 1817   0.383   0.797   6.733 -0.3478 -0.3117 -0.2201
   15DOPE   O13 1818   0.531   0.795   6.707  0.0496  0.4945 -0.3754
   15DOPE   O14 1819   0.335   0.816   6.869  0.1975  0.1072  0.4985
   15DOPE   O11 1820   0.315   0.902   6.632  0.6702  0.3586 -0.5443
   15DOPE   O12 1821   0.318   0.665   6.690  0.3400  0.5705  0.1464
   15DOPE    C1 1822   0.305   0.866   6.491  0.0865  0.2998 -0.5978
   15DOPE    HA 1823   0.226   0.930   6.446 -0.4324  0.9726  1.1711
   15DOPE    HB 1824   0.273   0.760   6.476  2.3846 -0.6882  0.8818
   15DOPE    C2 1825   0.441   0.909   6.421  0.5213  0.1458 -0.3650
   15DOPE    HS 1826   0.518   0.854   6.479  2.1775  2.1430 -0.5798
   15DOPE   O21 1827   0.473   1.051   6.436 -0.0856  0.1710  0.4987
   15DOPE   C21 1828   0.603   1.084   6.444 -0.3327  0.2924  0.0739
   15DOPE   O22 1829   0.692   0.998   6.443 -1.1330 -0.0593 -0.1168
   15DOPE   C22 1830   0.617   1.237   6.449  0.3650  0.1040 -0.3600
   15DOPE   H2R 1831   0.586   1.263   6.552 -0.8324  0.2841 -0.7432
   15DOPE   H2S 1832   0.536   1.277   6.384 -0.0245  2.5069  1.4782
   15DOPE    C3 1833   0.452   0.871   6.268  0.7298 -0.4911 -0.0843
   15DOPE    HX 1834   0.455   0.761   6.258 -1.8897 -0.7284  0.8526
   15DOPE    HY 1835   0.552   0.900   6.230  0.7323 -0.1096  0.2098
   15DOPE   O31 1836   0.338   0.919   6.190  0.6652  0.0469  0.2493
   15DOPE   C31 1837   0.361   1.024   6.110  0.9182 -0.3508  0.6793
   15DOPE   O32 1838   0.454   1.097   6.118 -0.1520 -0.3958 -0.4826
   15DOPE   C32 1839   0.247   1.046   6.007  0.0130 -0.4306 -0.4255
   15DOPE   H2X 1840   0.206   0.943   6.003  0.0701 -0.4423 -0.7417
   15DOPE   H2Y 1841   0.171   1.105   6.063  1.2385 -0.3311  1.1992
   15DOPE   C23 1842   0.742   1.299   6.396 -0.3193 -0.3386 -0.8558
   15DOPE   H3R 1843   0.819   1.265   6.468  2.3085  1.0479 -2.8222
   15DOPE   H3S 1844   0.751   1.409   6.400 -1.3082 -0.2934  0.7076
   15DOPE   C24 1845   0.777   1.248   6.257  0.0890 -0.1749  0.0302
   15DOPE   H4R 1846   0.754   1.139   6.249  0.7661 -0.7250  3.8321
   15DOPE   H4S 1847   0.886   1.253   6.234  0.8404 -2.7709  2.4397
   15DOPE   C25 1848   0.706   1.315   6.133 -0.1033  0.0941 -0.9225
   15DOPE   H5R 1849   0.734   1.422   6.134  0.7225 -0.1133 -0.4377
   15DOPE   H5S 1850   0.598   1.296   6.149  0.4462 -0.4500  3.2468
   15DOPE   C26 1851   0.740   1.252   5.997  0.4825  0.1145  0.3513
   15DOPE   H6R 1852   0.729   1.143   6.017 -1.0305  0.0113 -0.8407
   15DOPE   H6S 1853   0.846   1.276   5.976  0.7712  0.8838  2.4718
   15DOPE   C27 1854   0.653   1.302   5.884 -0.2941 -0.5220 -0.7698
   15DOPE   H7R 1855   0.624   1.407   5.905  0.8827 -0.2234 -0.5588
   15DOPE   H7S 1856   0.559   1.244   5.894 -0.0534 -0.8191 -0.1823
   15DOPE   C28 1857   0.705   1.292   5.745  0.1013  0.8475 -0.0727
   15DOPE   H8R 1858   0.769   1.201   5.739  1.4508  1.8461 -1.8550
   15DOPE   H8S 1859   0.769   1.380   5.726  0.9139  0.6387  1.5283
   15DOPE   C29 1860   0.596   1.274   5.643  0.0426 -1.1024 -0.3719
   15DOPE   H9R 1861   0.517   1.205   5.675 -2.9049  1.8791 -0.6145
   15DOPE  C210 1862   0.588   1.351   5.531 -0.1618  0.5465  0.1303
   15DOPE  H10R 1863   0.493   1.344   5.476  0.6950  0.9327 -1.4745
   15DOPE  C211 1864   0.684   1.456   5.483  0.0367  0.8237 -0.2255
   15DOPE  H11R 1865   0.694   1.448   5.372 -1.5765  0.4336 -0.3671
   15DOPE  H11S 1866   0.783   1.448   5.534  0.4019  1.9601 -0.7135
   15DOPE  C212 1867   0.643   1.600   5.507 -0.1556  0.1158  0.2672
   15DOPE  H12R 1868   0.637   1.617   5.617 -0.9148 -0.0861  0.2645
   15DOPE  H12S 1869   0.539   1.618   5.471 -0.2803  0.8298  0.9494
   15DOPE  C213 1870   0.743   1.691   5.432 -0.5330 -0.7230 -0.2341
   15DOPE  H13R 1871   0.848   1.656   5.434  0.1638  1.1889 -1.0882
   15DOPE  H13S 1872   0.734   1.792   5.476 -0.1034 -0.8415  0.1342
   15DOPE  C214 1873   0.693   1.720   5.286 -0.1813  0.8001 -0.5032
   15DOPE  H14R 1874   0.637   1.816   5.283 -1.7883 -0.0004  1.3993
   15DOPE  H14S 1875   0.631   1.631   5.259  0.2032  0.4852 -0.3524
   15DOPE  C215 1876   0.813   1.716   5.190  0.3602 -0.0177  0.5462
   15DOPE  H15R 1877   0.883   1.638   5.227  1.5677  0.2447 -1.0861
   15DOPE  H15S 1878   0.864   1.815   5.201  2.7377 -0.9193 -1.3291
   15DOPE  C216 1879   0.759   1.689   5.049 -0.5740 -0.5190 -0.3212
   15DOPE  H16R 1880   0.697   1.778   5.029  0.4228  0.5727  1.2680
   15DOPE  H16S 1881   0.705   1.592   5.049  1.7377 -2.0463  3.9961
   15DOPE  C217 1882   0.860   1.703   4.935 -0.4483 -0.9100  0.0965
   15DOPE  H17R 1883   0.921   1.794   4.951 -0.2801 -1.2178  1.3919
   15DOPE  H17S 1884   0.811   1.701   4.836  2.2796  0.5676 -1.3912
   15DOPE  C218 1885   0.959   1.586   4.939  0.1737  0.1732 -0.3323
   15DOPE  H18R 1886   1.023   1.582   5.029  0.2541 -0.5623 -0.4221
   15DOPE  H18S 1887   1.016   1.577   4.844 -0.4666 -1.1087 -0.6130
   15DOPE  H18T 1888   0.898   1.494   4.952  0.0251  0.5336  1.9820
   15DOPE   C33 1889   0.284   1.126   5.874  0.2439  0.3343 -0.4719
   15DOPE   H3X 1890   0.358   1.066   5.817  1.1610  1.0702 -0.0829
   15DOPE   H3Y 1891   0.332   1.221   5.905  1.6510 -0.4807 -0.0652
   15DOPE   C34 1892   0.156   1.161   5.793 -0.2046 -0.2085 -0.0480
   15DOPE   H4X 1893   0.101   1.070   5.762 -1.3859  0.1617  0.8912
   15DOPE   H4Y 1894   0.087   1.210   5.865  0.4351  0.7523 -0.0800
   15DOPE   C35 1895   0.184   1.244   5.665 -0.6593  0.1142 -0.1236
   15DOPE   H5X 1896   0.278   1.212   5.613 -0.2122  1.2387 -0.0410
   15DOPE   H5Y 1897   0.181   1.352   5.690 -0.9715 -0.5698  3.1809
   15DOPE   C36 1898   0.073   1.231   5.563  0.1178 -0.4184  0.0643
   15DOPE   H6X 1899   0.093   1.306   5.484 -1.6971  1.3985  1.2203
   15DOPE   H6Y 1900  -0.024   1.270   5.600  0.5806  0.0349  0.8260
   15DOPE   C37 1901   0.049   1.090   5.499 -0.1829  0.0795 -0.0213
   15DOPE   H7X 1902   0.143   1.040   5.466  0.3411  0.4526  0.8668
   15DOPE   H7Y 1903  -0.010   1.023   5.564  1.3776 -1.9887 -0.6337
   15DOPE   C38 1904  -0.040   1.106   5.372  0.6586  0.3165 -0.3542
   15DOPE   H8X 1905  -0.130   1.166   5.397 -0.4300 -0.6209 -1.8466
   15DOPE   H8Y 1906  -0.074   1.002   5.350  0.3515  0.5637 -1.0606
   15DOPE   C39 1907   0.023   1.169   5.251 -1.0478 -0.1469 -0.0594
   15DOPE   H9X 1908   0.054   1.274   5.261 -2.8628  0.4086  0.2063
   15DOPE  C310 1909   0.011   1.124   5.124 -0.6694  0.3132 -0.0694
   15DOPE  H10X 1910   0.059   1.177   5.040  1.5828 -1.0213  0.2869
   15DOPE  C311 1911  -0.040   0.993   5.071  0.0740  0.1007  0.0411
   15DOPE  H11X 1912   0.032   0.941   5.004 -0.5041  0.4741 -0.8735
   15DOPE  H11Y 1913  -0.055   0.918   5.152 -0.2650  0.6629  0.5070
   15DOPE  C312 1914  -0.169   1.016   4.990  0.5316 -0.2235 -0.4162
   15DOPE  H12X 1915  -0.197   0.927   4.930 -2.8709  1.2340 -1.2417
   15DOPE  H12Y 1916  -0.150   1.094   4.914  3.6895 -0.5710 -0.1191
   15DOPE  C313 1917  -0.284   1.073   5.085  0.4448  0.7549  0.3711
   15DOPE  H13X 1918  -0.292   1.025   5.184  1.5849  1.7402  0.9775
   15DOPE  H13Y 1919  -0.267   1.182   5.099  0.3888  1.6166 -4.5073
   15DOPE  C314 1920  -0.426   1.058   5.024 -0.0041  0.2689 -0.4644
   15DOPE  H14X 1921  -0.505   1.088   5.096  0.7219 -0.6488  0.7663
   15DOPE  H14Y 1922  -0.440   0.949   5.009  1.1822 -0.1187  0.9595
   15DOPE  C315 1923  -0.435   1.120   4.889  0.0520 -0.0316  0.0998
   15DOPE  H15X 1924  -0.340   1.099   4.836 -0.7827 -1.6922 -0.8283
   15DOPE  H15Y 1925  -0.436   1.230   4.907  0.5401 -0.0714  0.3933
   15DOPE  C316 1926  -0.553   1.075   4.794  0.3128 -0.1958 -0.2365
   15DOPE  H16X 1927  -0.551   1.142   4.706 -2.0300  0.3455  0.0434
   15DOPE  H16Y 1928  -0.646   1.100   4.849  0.5844  1.9033 -0.6586
   15DOPE  C317 1929  -0.556   0.933   4.742  0.0100 -0.2933 -0.6326
   15DOPE  H17X 1930  -0.462   0.905   4.689  0.5193 -0.9636  0.5878
   15DOPE  H17Y 1931  -0.561   0.855   4.821  1.5532 -0.9276 -1.1177
   15DOPE  C318 1932  -0.678   0.910   4.646  0.5821  0.1614  0.8394
   15DOPE  H18X 1933  -0.683   0.982   4.561  0.5154 -0.4579  0.3140
   15DOPE  H18Y 1934  -0.670   0.804   4.614 -0.5135  0.1372  0.6265
   15DOPE  H18Z 1935  -0.765   0.925   4.714 -0.4026 -0.1334 -0.3190
   16DOPE     N 1936   0.301   2.712   6.868  0.1199 -0.6512 -0.0759
   16DOPE   HN1 1937   0.400   2.739   6.855 -1.1586  3.6333 -2.8753
   16DOPE   HN2 1938   0.289   2.622   6.816  0.1106 -0.9623  0.4570
   16DOPE   HN3 1939   0.237   2.777   6.818 -0.3141 -1.4241 -0.5585
   16DOPE   C12 1940   0.270   2.684   7.017 -0.0510  0.2322 -0.1258
   16DOPE  H12A 1941   0.273   2.776   7.079 -0.0052 -0.2957  0.6706
   16DOPE  H12B 1942   0.355   2.618   7.046 -1.0479 -0.9985  0.0809
   16DOPE   C11 1943   0.141   2.596   7.041 -0.6524 -0.3288 -0.4228
   16DOPE  H11A 1944   0.149   2.563   7.147  2.6166 -0.1947 -0.5424
   16DOPE  H11B 1945   0.156   2.506   6.979  0.2738 -0.2963 -0.2603
   16DOPE     P 1946  -0.053   2.757   7.094  0.2850  0.1160  0.0569
   16DOPE   O13 1947   0.037   2.848   7.161  0.0596 -1.2075  0.3713
   16DOPE   O14 1948  -0.154   2.686   7.173  0.3378 -0.1720 -0.4001
   16DOPE   O11 1949  -0.146   2.844   7.000  0.4002 -0.2037 -0.0897
   16DOPE   O12 1950   0.018   2.658   7.000 -0.2109 -0.7629  0.4242
   16DOPE    C1 1951  -0.222   2.784   6.894  0.2475 -0.0722  0.4735
   16DOPE    HA 1952  -0.301   2.857   6.869  2.0079  1.5244 -0.7384
   16DOPE    HB 1953  -0.261   2.681   6.913 -0.0782 -0.1215 -0.3915
   16DOPE    C2 1954  -0.147   2.790   6.756 -0.2331 -0.4898 -0.0304
   16DOPE    HS 1955  -0.066   2.714   6.753 -0.3585 -0.5990 -1.4196
   16DOPE   O21 1956  -0.117   2.928   6.724 -0.2288 -0.3228  0.2000
   16DOPE   C21 1957   0.017   2.952   6.722  0.2120  0.3180 -0.0813
   16DOPE   O22 1958   0.099   2.875   6.766  0.1657  0.4118  0.4961
   16DOPE   C22 1959   0.050   3.097   6.682 -0.4558 -0.2949 -0.8183
   16DOPE   H2R 1960   0.094   3.148   6.770 -2.7368  0.1572  0.1144
   16DOPE   H2S 1961  -0.044   3.148   6.652 -0.7025 -0.2832 -0.0443
   16DOPE    C3 1962  -0.253   2.749   6.652  0.1407  0.5197  0.6002
   16DOPE    HX 1963  -0.349   2.806   6.657  0.0173  0.5564 -1.2562
   16DOPE    HY 1964  -0.282   2.643   6.664 -0.8980  0.0233 -4.2173
   16DOPE   O31 1965  -0.200   2.748   6.518 -0.6455  0.9145 -0.2113
   16DOPE   C31 1966  -0.230   2.845   6.431  0.7059 -0.5427 -0.1555
   16DOPE   O32 1967  -0.300   2.943   6.451  0.5723  0.2555  0.0030
   16DOPE   C32 1968  -0.173   2.820   6.295  0.9566 -0.2348  0.4763
   16DOPE   H2X 1969  -0.064   2.810   6.317  0.9516  2.6036  2.4518
   16DOPE   H2Y 1970  -0.223   2.725   6.269 -2.2873  1.3877  0.2984
   16DOPE   C23 1971   0.145   3.104   6.558 -0.5022 -0.8435 -0.2366
   16DOPE   H3R 1972   0.095   3.044   6.479 -0.1801 -2.8783  1.0325
   16DOPE   H3S 1973   0.242   3.054   6.580  0.7901  1.0832 -1.2218
   16DOPE   C24 1974   0.165   3.251   6.511 -0.1313  0.2235  0.3174
   16DOPE   H4R 1975   0.199   3.325   6.587  1.5254 -1.8588  1.7368
   16DOPE   H4S 1976   0.064   3.288   6.481  1.4498  3.7175 -1.3059
   16DOPE   C25 1977   0.256   3.265   6.388  0.4462 -0.3761  0.2583
   16DOPE   H5R 1978   0.227   3.187   6.316 -0.3090 -0.4257  0.6012
   16DOPE   H5S 1979   0.360   3.254   6.427  0.1569 -1.0200  0.8744
   16DOPE   C26 1980   0.246   3.397   6.306  0.0992 -0.4441 -0.2922
   16DOPE   H6R 1981   0.289   3.472   6.375 -1.2488  1.1396 -1.0878
   16DOPE   H6S 1982   0.138   3.422   6.298  0.0113 -0.7050  0.0697
   16DOPE   C27 1983   0.323   3.382   6.171 -0.0128  0.0980  0.1736
   16DOPE   H7R 1984   0.414   3.329   6.207 -1.1544 -0.2823  2.6996
   16DOPE   H7S 1985   0.359   3.483   6.143 -1.3657  0.0488 -1.9804
   16DOPE   C28 1986   0.257   3.293   6.068 -0.0930  0.3038  0.0420
   16DOPE   H8R 1987   0.200   3.210   6.116  1.5938  0.2457  2.0807
   16DOPE   H8S 1988   0.324   3.234   6.001 -2.6977 -0.8915 -1.7127
   16DOPE   C29 1989   0.177   3.379   5.970  0.0718 -0.0272  0.1468
   16DOPE   H9R 1990   0.089   3.427   6.015 -2.0909 -1.0284 -2.6746
   16DOPE  C210 1991   0.210   3.410   5.847 -0.0116 -0.3025  0.2559
   16DOPE  H10R 1992   0.151   3.487   5.797  0.9066  0.2544 -0.0052
   16DOPE  C211 1993   0.341   3.376   5.778 -0.6271 -0.5141  0.3088
   16DOPE  H11R 1994   0.356   3.271   5.743  0.5372 -0.7160  1.3104
   16DOPE  H11S 1995   0.423   3.380   5.853 -1.8634 -0.9336  1.7349
   16DOPE  C212 1996   0.358   3.467   5.656  0.3934  0.3599 -0.0054
   16DOPE  H12R 1997   0.269   3.475   5.590  0.2269 -0.6280  0.0757
   16DOPE  H12S 1998   0.421   3.414   5.582  4.8091 -0.0665  3.6028
   16DOPE  C213 1999   0.427   3.592   5.686  0.3037 -0.6376 -0.0446
   16DOPE  H13R 2000   0.512   3.568   5.753  0.1271  0.4179  0.5736
   16DOPE  H13S 2001   0.368   3.671   5.737  2.1416  0.9770 -0.3129
   16DOPE  C214 2002   0.496   3.660   5.563 -0.1078 -0.5405  0.1036
   16DOPE  H14R 2003   0.559   3.587   5.509 -1.5399  0.3215 -2.9447
   16DOPE  H14S 2004   0.568   3.740   5.588  0.0610 -0.1418 -1.5549
   16DOPE  C215 2005   0.407   3.739   5.453 -0.1556  1.0912  0.4922
   16DOPE  H15R 2006   0.344   3.660   5.406  1.0625 -1.1383  2.3709
   16DOPE  H15S 2007   0.470   3.782   5.373 -0.7127 -0.5860 -0.9165
   16DOPE  C216 2008   0.313   3.848   5.512  0.2957  0.0138  0.4766
   16DOPE  H16R 2009   0.219   3.808   5.556  0.5213  1.3178  2.2731
   16DOPE  H16S 2010   0.287   3.921   5.432  2.0991  0.2328  0.0611
   16DOPE  C217 2011   0.377   3.928   5.624 -0.1734  0.4805 -0.4439
   16DOPE  H17R 2012   0.483   3.934   5.591 -0.5980 -1.3236 -2.3695
   16DOPE  H17S 2013   0.369   3.870   5.719 -0.0908  1.7033  0.3306
   16DOPE  C218 2014   0.311   4.063   5.650 -0.0584  0.1917  0.1710
   16DOPE  H18R 2015   0.378   4.121   5.717  2.3521 -2.0598 -0.1395
   16DOPE  H18S 2016   0.215   4.041   5.701 -0.6978 -0.4663 -1.2498
   16DOPE  H18T 2017   0.291   4.121   5.557  0.8149 -0.1702 -0.2524
   16DOPE   C33 2018  -0.195   2.935   6.192 -0.3229 -0.7442 -0.1456
   16DOPE   H3X 2019  -0.179   3.036   6.235  0.4914 -1.0920  0.3997
   16DOPE   H3Y 2020  -0.299   2.930   6.154 -0.6037  0.6955  0.3864
   16DOPE   C34 2021  -0.098   2.928   6.074  0.0526 -0.1602 -0.5413
   16DOPE   H4X 2022   0.005   2.938   6.115 -1.1048  0.1160  2.5103
   16DOPE   H4Y 2023  -0.121   2.836   6.016 -3.3460 -1.2439  2.1683
   16DOPE   C35 2024  -0.117   3.052   5.981  0.8844 -0.7001 -0.7441
   16DOPE   H5X 2025  -0.089   3.141   6.040  1.4665 -1.1927 -0.2603
   16DOPE   H5Y 2026  -0.226   3.069   5.973  0.8199  0.8020  2.0484
   16DOPE   C36 2027  -0.026   3.049   5.860  0.4605 -0.0866  0.3924
   16DOPE   H6X 2028  -0.037   2.947   5.818  1.9331 -0.1424  0.0727
   16DOPE   H6Y 2029   0.079   3.070   5.891  0.5532 -0.2127  0.1588
   16DOPE   C37 2030  -0.073   3.149   5.763 -0.6900  0.3354  0.2178
   16DOPE   H7X 2031  -0.178   3.123   5.735 -1.8619  0.9384  3.5900
   16DOPE   H7Y 2032  -0.071   3.246   5.817 -0.1300 -0.3035  1.3661
   16DOPE   C38 2033   0.023   3.162   5.642 -0.2478 -0.2839  0.3624
   16DOPE   H8X 2034   0.118   3.209   5.676 -0.7168  0.4397  0.7054
   16DOPE   H8Y 2035  -0.004   3.250   5.579  2.3964 -0.2127 -0.7929
   16DOPE   C39 2036   0.057   3.044   5.562 -0.2534  0.6057  0.4770
   16DOPE   H9X 2037   0.121   2.968   5.610  0.9871  0.3917 -1.3908
   16DOPE  C310 2038   0.010   3.010   5.441 -0.0487 -0.1064 -0.9060
   16DOPE  H10X 2039   0.052   2.925   5.386 -0.2406  0.7597 -2.4337
   16DOPE  C311 2040  -0.075   3.092   5.352  0.4623  0.6489  1.1042
   16DOPE  H11X 2041  -0.139   3.169   5.400 -2.1100 -0.0307 -0.9947
   16DOPE  H11Y 2042  -0.011   3.155   5.287 -2.0008  1.1909 -0.9613
   16DOPE  C312 2043  -0.174   3.013   5.261 -0.1223 -0.2394 -0.0582
   16DOPE  H12X 2044  -0.245   3.093   5.231 -0.2743 -1.1461 -2.2806
   16DOPE  H12Y 2045  -0.227   2.936   5.322 -2.4644 -0.3949 -2.1527
   16DOPE  C313 2046  -0.113   2.969   5.135  0.2996 -0.3690 -0.7904
   16DOPE  H13X 2047  -0.074   3.058   5.080  1.4543  1.1199  2.1830
   16DOPE  H13Y 2048  -0.028   2.899   5.152 -0.7268 -2.1680 -2.6170
   16DOPE  C314 2049  -0.226   2.902   5.053  0.0096 -0.1997  1.1380
   16DOPE  H14X 2050  -0.171   2.863   4.965 -1.9848  0.9992 -0.7392
   16DOPE  H14Y 2051  -0.289   2.990   5.027  0.2654 -0.7003 -1.3921
   16DOPE  C315 2052  -0.307   2.794   5.136  0.0949  1.1880 -0.3305
   16DOPE  H15X 2053  -0.370   2.848   5.210 -0.5570  0.3902 -0.2911
   16DOPE  H15Y 2054  -0.235   2.729   5.190 -0.3295 -0.3669 -1.5599
   16DOPE  C316 2055  -0.403   2.704   5.061  0.5147  0.2093  0.2930
   16DOPE  H16X 2056  -0.464   2.644   5.131 -0.9509  1.6129  0.2838
   16DOPE  H16Y 2057  -0.360   2.629   4.991 -0.9513  0.7299 -1.2679
   16DOPE  C317 2058  -0.503   2.801   5.000  0.0833  0.0463  0.1914
   16DOPE  H17X 2059  -0.539   2.869   5.080  3.1485  0.6132  1.2175
   16DOPE  H17Y 2060  -0.449   2.852   4.917 -1.6070  0.3418 -0.7734
   16DOPE  C318 2061  -0.627   2.745   4.930 -0.1276 -0.1322 -0.1795
   16DOPE  H18X 2062  -0.690   2.690   5.003 -1.3601  0.8294 -0.4854
   16DOPE  H18Y 2063  -0.685   2.825   4.880  2.1320  0.6653 -1.6625
   16DOPE  H18Z 2064  -0.588   2.681   4.848 -3.4808 -1.1836 -1.0937
   17DOPE     N 2065   2.652   6.777   7.527 -0.0980  0.3140  0.0010
   17DOPE   HN1 2066   2.667   6.677   7.554  1.9424  0.8873  1.2431
   17DOPE   HN2 2067   2.614   6.829   7.609 -0.4080  0.1373 -0.0312
   17DOPE   HN3 2068   2.590   6.765   7.445  2.1273 -1.9424 -1.4841
   17DOPE   C12 2069   2.785   6.825   7.480  0.6095 -0.3670  0.1301
   17DOPE  H12A 2070   2.855   6.794   7.561  1.8509 -0.6650 -1.0121
   17DOPE  H12B 2071   2.788   6.936   7.476  2.0709 -0.3192  1.3699
   17DOPE   C11 2072   2.820   6.778   7.343 -0.4525 -0.4091  0.1127
   17DOPE  H11A 2073   2.912   6.838   7.323 -0.6681 -0.2422 -0.4010
   17DOPE  H11B 2074   2.750   6.808   7.262 -0.1502 -0.9483 -0.3559
   17DOPE     P 2075   2.928   6.580   7.221 -0.2554  0.4545  0.2208
   17DOPE   O13 2076   2.898   6.433   7.213  0.6540  0.1343  0.6984
   17DOPE   O14 2077   3.068   6.621   7.226 -0.3437 -0.1414 -0.2968
   17DOPE   O11 2078   2.856   6.650   7.093 -0.0800 -0.1349  0.2415
   17DOPE   O12 2079   2.862   6.639   7.349 -0.3218 -0.2249 -0.3201
   17DOPE    C1 2080   2.716   6.619   7.064  0.2460  0.5948  0.6921
   17DOPE    HA 2081   2.655   6.710   7.083  0.5745  1.3826 -1.6849
   17DOPE    HB 2082   2.691   6.528   7.123 -0.4104  1.3905  1.6737
   17DOPE    C2 2083   2.700   6.600   6.910  0.3675 -0.2895  0.3884
   17DOPE    HS 2084   2.746   6.500   6.894 -0.8890 -0.7919 -0.2578
   17DOPE   O21 2085   2.753   6.712   6.832  0.0294  0.5685 -0.1311
   17DOPE   C21 2086   2.794   6.671   6.714  0.7356  0.7206  0.1308
   17DOPE   O22 2087   2.811   6.553   6.689 -0.4537 -0.5246 -0.2020
   17DOPE   C22 2088   2.806   6.790   6.619 -0.2141 -0.3326 -0.3582
   17DOPE   H2R 2089   2.846   6.866   6.688  0.1491 -0.1861 -0.7299
   17DOPE   H2S 2090   2.708   6.814   6.572  0.4096 -2.4594 -3.0009
   17DOPE    C3 2091   2.545   6.585   6.871 -0.1224  0.4362 -0.0631
   17DOPE    HX 2092   2.478   6.661   6.915 -1.2447 -1.2418  1.2300
   17DOPE    HY 2093   2.513   6.490   6.918  1.8887 -0.7734 -1.0115
   17DOPE   O31 2094   2.520   6.595   6.735  0.1988 -0.7864  0.0448
   17DOPE   C31 2095   2.510   6.479   6.668  0.0320 -0.9127  0.6957
   17DOPE   O32 2096   2.521   6.365   6.716  0.2852 -0.6817  0.2267
   17DOPE   C32 2097   2.513   6.513   6.521  0.0446 -1.0741  0.1375
   17DOPE   H2X 2098   2.442   6.598   6.524  2.8626  1.4953  3.3709
   17DOPE   H2Y 2099   2.611   6.562   6.501  0.3714 -1.0927  1.5313
   17DOPE   C23 2100   2.895   6.758   6.496  0.5031 -0.0808  0.1921
   17DOPE   H3R 2101   2.842   6.696   6.421  0.4827  2.1548 -1.7783
   17DOPE   H3S 2102   2.976   6.700   6.545 -1.4099 -0.4566  3.1898
   17DOPE   C24 2103   2.972   6.876   6.443  0.4867  0.3349  0.3924
   17DOPE   H4R 2104   3.054   6.895   6.516  0.7180  1.7098 -0.1851
   17DOPE   H4S 2105   2.898   6.958   6.445  0.5552  0.4148 -0.1860
   17DOPE   C25 2106   3.046   6.847   6.309  0.6636  0.3642  0.1800
   17DOPE   H5R 2107   2.980   6.776   6.254  2.6258 -1.1098 -0.3947
   17DOPE   H5S 2108   3.138   6.786   6.324 -0.0428 -0.8450 -0.2450
   17DOPE   C26 2109   3.068   6.969   6.226 -0.1175 -0.2671  0.5230
   17DOPE   H6R 2110   3.168   7.003   6.259  0.3882 -1.2963  0.0663
   17DOPE   H6S 2111   2.992   7.049   6.242  1.6490  1.7991 -0.7982
   17DOPE   C27 2112   3.062   6.951   6.072  0.3361 -0.7426 -0.3697
   17DOPE   H7R 2113   2.967   6.903   6.041  0.6131 -0.8833 -1.0104
   17DOPE   H7S 2114   3.136   6.873   6.042  0.0376 -1.1650 -0.0253
   17DOPE   C28 2115   3.095   7.086   6.002 -0.3945 -0.2048  0.2942
   17DOPE   H8R 2116   3.182   7.132   6.054  0.1276  1.1237 -1.6335
   17DOPE   H8S 2117   3.010   7.157   6.019 -0.4757 -0.1749 -0.2135
   17DOPE   C29 2118   3.131   7.068   5.857  0.3286 -0.4475  0.0579
   17DOPE   H9R 2119   3.234   7.037   5.833  0.6779  0.0515  0.8706
   17DOPE  C210 2120   3.042   7.098   5.756  0.0457  0.0866 -0.2708
   17DOPE  H10R 2121   3.077   7.093   5.652  0.2330 -0.2938 -0.1947
   17DOPE  C211 2122   2.895   7.136   5.769 -0.1001  0.3480  0.4016
   17DOPE  H11R 2123   2.875   7.172   5.872  0.7952  1.1993  0.2846
   17DOPE  H11S 2124   2.843   7.038   5.756 -1.7465  0.8698  2.4841
   17DOPE  C212 2125   2.835   7.232   5.664 -0.4324  0.2107  0.1526
   17DOPE  H12R 2126   2.868   7.331   5.702 -0.1137  0.0223  0.3695
   17DOPE  H12S 2127   2.725   7.218   5.673 -0.6556  1.4275 -0.5131
   17DOPE  C213 2128   2.858   7.206   5.513  0.3039  0.4198 -0.6591
   17DOPE  H13R 2129   2.804   7.115   5.479 -1.5453  0.9252  0.7243
   17DOPE  H13S 2130   2.962   7.203   5.475  1.6013  1.4867  2.4821
   17DOPE  C214 2131   2.776   7.319   5.441  0.2780  0.4770 -0.5862
   17DOPE  H14R 2132   2.819   7.417   5.471 -3.3026  1.2088  3.0708
   17DOPE  H14S 2133   2.670   7.312   5.476 -0.5002 -0.0551 -2.8866
   17DOPE  C215 2134   2.767   7.301   5.291  0.5368  0.0112  0.2693
   17DOPE  H15R 2135   2.684   7.247   5.241  0.6379  1.9828 -2.2101
   17DOPE  H15S 2136   2.862   7.256   5.255  0.7127  0.4442  0.1805
   17DOPE  C216 2137   2.743   7.435   5.225 -0.4662 -0.8530  0.1611
   17DOPE  H16R 2138   2.827   7.496   5.263  0.2052 -1.6327 -0.0344
   17DOPE  H16S 2139   2.657   7.487   5.272 -0.2714  0.9523 -1.3991
   17DOPE  C217 2140   2.743   7.445   5.067  0.4725  0.5691 -0.4148
   17DOPE  H17R 2141   2.741   7.550   5.030 -1.4754 -0.0461 -2.3140
   17DOPE  H17S 2142   2.655   7.406   5.012  0.0245  1.5342 -0.4081
   17DOPE  C218 2143   2.869   7.373   5.011  0.3703  0.5630  0.5212
   17DOPE  H18R 2144   2.859   7.265   5.034  1.0312  0.0313 -1.5167
   17DOPE  H18S 2145   2.961   7.405   5.065  1.0994 -0.5083 -0.0482
   17DOPE  H18T 2146   2.876   7.383   4.901 -0.8533 -2.5772  0.0482
   17DOPE   C33 2147   2.465   6.403   6.432 -0.0479 -0.3980  0.0303
   17DOPE   H3X 2148   2.391   6.336   6.481 -1.1660  0.1588 -0.8279
   17DOPE   H3Y 2149   2.546   6.331   6.410  0.5668  0.2156  0.2811
   17DOPE   C34 2150   2.419   6.450   6.294  0.3013  0.0963  0.4481
   17DOPE   H4X 2151   2.348   6.372   6.261 -0.3417  0.5171  0.8222
   17DOPE   H4Y 2152   2.362   6.545   6.287  2.1672  1.2167 -0.2533
   17DOPE   C35 2153   2.521   6.460   6.183 -0.9542  0.5557 -0.3190
   17DOPE   H5X 2154   2.589   6.373   6.170  0.8984  1.7457  0.9273
   17DOPE   H5Y 2155   2.587   6.546   6.210 -1.5790  1.1710 -0.7051
   17DOPE   C36 2156   2.470   6.503   6.044  0.2459 -0.4504  0.1032
   17DOPE   H6X 2157   2.555   6.510   5.972  1.0776 -1.8627  0.8893
   17DOPE   H6Y 2158   2.427   6.605   6.049 -0.6768 -0.7849 -0.6827
   17DOPE   C37 2159   2.364   6.413   5.979  0.2702  0.0663 -0.3057
   17DOPE   H7X 2160   2.400   6.319   5.932  1.0503  0.5961 -0.7839
   17DOPE   H7Y 2161   2.294   6.393   6.063  0.7927 -1.5954 -0.2247
   17DOPE   C38 2162   2.277   6.488   5.872  1.0116  0.3694  1.0335
   17DOPE   H8X 2163   2.231   6.579   5.917 -3.0171 -1.5643  1.2539
   17DOPE   H8Y 2164   2.191   6.422   5.849  0.5504  0.9858  0.9691
   17DOPE   C39 2165   2.369   6.535   5.759 -0.0997  0.3820  0.1180
   17DOPE   H9X 2166   2.445   6.608   5.793  1.2607 -0.1468 -1.6551
   17DOPE  C310 2167   2.376   6.511   5.624  0.0976 -0.3761 -0.5518
   17DOPE  H10X 2168   2.465   6.531   5.562 -0.0156  0.0257 -0.5869
   17DOPE  C311 2169   2.282   6.429   5.545  0.1421  0.1721 -0.2290
   17DOPE  H11X 2170   2.340   6.338   5.520 -0.5851 -0.3157 -0.1577
   17DOPE  H11Y 2171   2.193   6.417   5.611  2.1772  2.6804  3.3041
   17DOPE  C312 2172   2.243   6.496   5.416 -0.6589 -0.2579 -1.0885
   17DOPE  H12X 2173   2.180   6.585   5.437  0.0598 -0.2629  1.3511
   17DOPE  H12Y 2174   2.174   6.428   5.361  2.5477 -1.2578 -4.3216
   17DOPE  C313 2175   2.357   6.530   5.310  0.1687 -0.5412 -0.0997
   17DOPE  H13X 2176   2.435   6.599   5.348  0.3595 -0.2805 -0.9465
   17DOPE  H13Y 2177   2.406   6.435   5.280  1.2832  0.3798 -1.3053
   17DOPE  C314 2178   2.292   6.587   5.185  0.3243 -0.0668  0.3527
   17DOPE  H14X 2179   2.253   6.683   5.225  1.3144  1.1804 -1.4972
   17DOPE  H14Y 2180   2.216   6.521   5.137  0.1028 -0.2061  0.8951
   17DOPE  C315 2181   2.404   6.637   5.086 -0.0967  0.1988 -0.2392
   17DOPE  H15X 2182   2.454   6.548   5.042 -0.1274  0.5231 -0.9458
   17DOPE  H15Y 2183   2.483   6.688   5.145 -0.1646 -0.0304  0.0538
   17DOPE  C316 2184   2.362   6.731   4.977 -0.2247  0.2626 -0.6422
   17DOPE  H16X 2185   2.459   6.782   4.957  1.6160 -2.5822  0.3773
   17DOPE  H16Y 2186   2.296   6.807   5.023  1.6509  0.8689  1.1935
   17DOPE  C317 2187   2.307   6.672   4.848  0.8121 -0.2245  0.1012
   17DOPE  H17X 2188   2.359   6.584   4.804  1.9585  0.7299 -0.5180
   17DOPE  H17Y 2189   2.200   6.650   4.869  0.6212  0.3796 -0.2218
   17DOPE  C318 2190   2.308   6.775   4.729  0.4300  0.3885 -0.0554
   17DOPE  H18X 2191   2.401   6.829   4.699 -1.2786  2.1102 -2.7121
   17DOPE  H18Y 2192   2.277   6.731   4.632  1.8112 -0.0465 -0.3256
   17DOPE  H18Z 2193   2.243   6.861   4.754  1.8958  1.7227 -0.6290
   18DOPE     N 2194   6.414   2.580   6.767 -0.2754 -0.3383  0.2795
   18DOPE   HN1 2195   6.471   2.663   6.792 -0.2089 -0.3856  0.2863
   18DOPE   HN2 2196   6.391   2.517   6.847 -1.6977 -2.8888 -1.9788
   18DOPE   HN3 2197   6.463   2.523   6.695 -1.6137 -0.9187 -0.2016
   18DOPE   C12 2198   6.289   2.632   6.699 -0.3541 -0.3401 -0.1030
   18DOPE  H12A 2199   6.220   2.657   6.783  0.4017 -0.0704  0.4476
   18DOPE  H12B 2200   6.241   2.546   6.649  0.0752 -1.3432  1.1650
   18DOPE   C11 2201   6.328   2.752   6.606 -0.0692  0.5708 -0.9174
   18DOPE  H11A 2202   6.234   2.772   6.550 -0.4793 -2.0098 -1.2739
   18DOPE  H11B 2203   6.409   2.714   6.540 -0.3914  0.3226 -1.1728
   18DOPE     P 2204   6.281   2.990   6.704 -0.1598  0.2915 -0.3628
   18DOPE   O13 2205   6.359   3.086   6.780 -0.1885 -0.1422  0.3678
   18DOPE   O14 2206   6.153   2.944   6.764  0.0222 -0.1087  0.3448
   18DOPE   O11 2207   6.262   3.039   6.557  0.0037  0.1664 -0.0659
   18DOPE   O12 2208   6.375   2.861   6.684 -0.2411  0.1389  0.1812
   18DOPE    C1 2209   6.356   3.063   6.457  0.3455 -0.4273  0.0687
   18DOPE    HA 2210   6.318   3.002   6.372 -0.9033  0.5195 -0.0865
   18DOPE    HB 2211   6.454   3.018   6.483  0.6474 -0.3281 -0.8461
   18DOPE    C2 2212   6.382   3.208   6.426  0.4206 -0.4243 -0.2281
   18DOPE    HS 2213   6.411   3.263   6.518 -0.8860 -0.8699  0.4759
   18DOPE   O21 2214   6.264   3.272   6.375 -0.7587  0.5357  0.2638
   18DOPE   C21 2215   6.257   3.400   6.397  0.1926 -0.8178  0.1847
   18DOPE   O22 2216   6.338   3.470   6.456 -0.6344  0.2291  0.3667
   18DOPE   C22 2217   6.128   3.438   6.326 -0.7960  0.3345  0.8697
   18DOPE   H2R 2218   6.043   3.436   6.398 -0.2930 -1.4048  1.4706
   18DOPE   H2S 2219   6.103   3.359   6.252  0.4078  0.0735  0.7174
   18DOPE    C3 2220   6.501   3.219   6.325  0.7743  0.6355 -0.5914
   18DOPE    HX 2221   6.516   3.328   6.309 -0.6323  0.8756 -0.4434
   18DOPE    HY 2222   6.472   3.184   6.224  1.1027 -0.5516 -0.2860
   18DOPE   O31 2223   6.621   3.149   6.356 -0.3245 -0.5423 -0.0702
   18DOPE   C31 2224   6.703   3.206   6.444 -0.0733 -0.1177 -0.0337
   18DOPE   O32 2225   6.684   3.293   6.525 -0.0857 -0.4632 -0.1988
   18DOPE   C32 2226   6.842   3.135   6.424 -0.1329 -0.2861 -0.2442
   18DOPE   H2X 2227   6.895   3.130   6.522  1.3894 -0.2042 -1.0342
   18DOPE   H2Y 2228   6.830   3.028   6.395 -0.2980 -0.7730  1.4461
   18DOPE   C23 2229   6.124   3.584   6.257 -0.6416  0.6437  0.4077
   18DOPE   H3R 2230   6.210   3.601   6.190  0.6156 -1.3257  1.4528
   18DOPE   H3S 2231   6.127   3.667   6.331  0.7035  0.8432  0.1415
   18DOPE   C24 2232   6.000   3.602   6.165 -0.1106 -0.4963  0.3796
   18DOPE   H4R 2233   5.912   3.568   6.223 -0.4209 -2.0900 -0.9675
   18DOPE   H4S 2234   6.009   3.517   6.095  0.7312  0.3769 -0.6068
   18DOPE   C25 2235   5.991   3.736   6.097 -0.2559 -0.4957 -0.2093
   18DOPE   H5R 2236   5.905   3.733   6.026  0.4410 -1.8102 -1.0280
   18DOPE   H5S 2237   6.082   3.763   6.040  0.5869  0.9019  1.7224
   18DOPE   C26 2238   5.963   3.844   6.195 -0.5523 -0.0056  0.1676
   18DOPE   H6R 2239   6.050   3.853   6.264  0.3152  4.5561 -1.1593
   18DOPE   H6S 2240   5.868   3.817   6.246  0.2562 -1.3054  1.0473
   18DOPE   C27 2241   5.949   3.988   6.144 -0.0950  0.2173 -0.0779
   18DOPE   H7R 2242   6.048   4.026   6.112 -1.4074  2.2572 -2.0378
   18DOPE   H7S 2243   5.917   4.046   6.234  1.9690 -2.6824  2.7722
   18DOPE   C28 2244   5.841   4.026   6.032  0.0469  0.7009  0.0162
   18DOPE   H8R 2245   5.818   4.134   6.047 -3.0860 -0.0111  1.0449
   18DOPE   H8S 2246   5.747   3.975   6.063  2.0248 -2.0105  2.1152
   18DOPE   C29 2247   5.888   3.990   5.896 -0.3334  0.4090  0.3351
   18DOPE   H9R 2248   5.973   3.921   5.892 -0.6976 -0.0011 -0.7327
   18DOPE  C210 2249   5.828   4.025   5.780 -0.3231 -0.5692 -0.2863
   18DOPE  H10R 2250   5.869   3.998   5.681 -0.4854 -0.0081 -0.5135
   18DOPE  C211 2251   5.700   4.100   5.775 -0.2550  0.3440 -1.1995
   18DOPE  H11R 2252   5.736   4.197   5.734  0.7187  0.3526 -0.3658
   18DOPE  H11S 2253   5.648   4.111   5.874  0.5283 -0.7237 -0.6546
   18DOPE  C212 2254   5.594   4.020   5.695 -0.4555 -0.3149  0.1300
   18DOPE  H12R 2255   5.497   4.074   5.696  0.3124  1.1293  1.6483
   18DOPE  H12S 2256   5.579   3.921   5.744  0.3350 -0.8646 -0.6953
   18DOPE  C213 2257   5.626   3.977   5.546  0.3974  0.7683 -0.1506
   18DOPE  H13R 2258   5.721   3.919   5.544  0.4978  0.9287 -1.9966
   18DOPE  H13S 2259   5.647   4.067   5.484  1.4378 -0.4243 -1.6071
   18DOPE  C214 2260   5.514   3.891   5.494 -0.1890 -0.3342  0.7926
   18DOPE  H14R 2261   5.421   3.953   5.486  0.8031  1.0417 -0.7517
   18DOPE  H14S 2262   5.503   3.815   5.574  1.0522 -0.0031  1.3088
   18DOPE  C215 2263   5.556   3.821   5.366  0.0461  0.0698 -0.1362
   18DOPE  H15R 2264   5.482   3.744   5.335 -0.8912  1.4283 -1.4391
   18DOPE  H15S 2265   5.649   3.761   5.375 -0.9441 -1.7267 -1.2743
   18DOPE  C216 2266   5.574   3.912   5.246  0.0884  0.2430 -0.3632
   18DOPE  H16R 2267   5.656   3.985   5.261 -0.3519  1.0542 -1.6705
   18DOPE  H16S 2268   5.478   3.969   5.237  0.7628  1.3412 -0.8736
   18DOPE  C217 2269   5.614   3.846   5.113  0.2673 -0.3507  0.2468
   18DOPE  H17R 2270   5.610   3.929   5.040 -1.1032 -0.4841  0.1491
   18DOPE  H17S 2271   5.533   3.777   5.083  0.7781 -0.2373 -1.5144
   18DOPE  C218 2272   5.747   3.778   5.114  0.3868 -0.4922  0.7164
   18DOPE  H18R 2273   5.746   3.691   5.184 -1.9323 -3.1672 -2.3130
   18DOPE  H18S 2274   5.834   3.847   5.124 -0.6381  1.0351 -0.4256
   18DOPE  H18T 2275   5.762   3.735   5.012 -0.6758  3.0996 -1.0998
   18DOPE   C33 2276   6.940   3.220   6.333  0.3663  0.4513 -0.5875
   18DOPE   H3X 2277   7.024   3.147   6.332 -0.7622 -1.0682  2.1366
   18DOPE   H3Y 2278   6.977   3.311   6.385 -1.1524 -0.3363  2.1332
   18DOPE   C34 2279   6.896   3.223   6.186  0.9855  0.3910  0.3556
   18DOPE   H4X 2280   6.872   3.118   6.158  1.0138  0.4846 -0.0326
   18DOPE   H4Y 2281   6.805   3.285   6.176  1.3125  0.5194 -4.0531
   18DOPE   C35 2282   7.005   3.285   6.095  0.0224  0.2957  0.1050
   18DOPE   H5X 2283   7.095   3.220   6.095 -0.3438 -0.2304  0.9242
   18DOPE   H5Y 2284   7.036   3.383   6.137  1.8943  0.0089 -0.5595
   18DOPE   C36 2285   6.958   3.303   5.948  0.3012 -0.9230  0.1402
   18DOPE   H6X 2286   6.861   3.357   5.949  0.5048 -0.5627  0.5490
   18DOPE   H6Y 2287   6.955   3.199   5.908 -0.1727 -0.6420 -0.5721
   18DOPE   C37 2288   7.055   3.389   5.857 -0.4133  0.9307 -0.0743
   18DOPE   H7X 2289   7.099   3.476   5.910 -2.9544  2.2810  0.0016
   18DOPE   H7Y 2290   7.142   3.329   5.822 -1.5550 -0.3665 -0.8309
   18DOPE   C38 2291   6.987   3.437   5.728 -0.0374  0.5482 -0.3202
   18DOPE   H8X 2292   6.914   3.512   5.766 -1.4939 -1.7291  1.7372
   18DOPE   H8Y 2293   6.919   3.359   5.687 -0.1260  0.7835 -0.6198
   18DOPE   C39 2294   7.076   3.502   5.629  0.0602 -0.0538  0.4056
   18DOPE   H9X 2295   7.131   3.589   5.667 -0.2198  0.3044 -0.0025
   18DOPE  C310 2296   7.094   3.463   5.503 -0.1369 -0.6189  0.0659
   18DOPE  H10X 2297   7.164   3.519   5.439 -0.7984 -0.1626 -0.2802
   18DOPE  C311 2298   7.036   3.339   5.444 -0.7821 -0.2034 -0.0370
   18DOPE  H11X 2299   7.115   3.261   5.445  1.1357  1.5863  2.8343
   18DOPE  H11Y 2300   6.951   3.301   5.504 -1.2161  0.6378 -0.1056
   18DOPE  C312 2301   6.986   3.360   5.294 -0.4475  0.2415 -0.5456
   18DOPE  H12X 2302   7.074   3.386   5.231  0.6246  0.7715  1.0895
   18DOPE  H12Y 2303   6.907   3.437   5.290 -0.6140  0.0605 -0.7517
   18DOPE  C313 2304   6.920   3.228   5.237  0.0545  0.0563  0.0338
   18DOPE  H13X 2305   6.989   3.145   5.262  1.7084  0.9137 -1.4519
   18DOPE  H13Y 2306   6.822   3.219   5.289 -0.0230 -0.1872 -0.1527
   18DOPE  C314 2307   6.909   3.230   5.090  0.3337 -0.1710  0.1659
   18DOPE  H14X 2308   6.896   3.124   5.059  1.4425 -0.2253 -0.1707
   18DOPE  H14Y 2309   7.002   3.268   5.043 -1.3036  2.1287 -1.4741
   18DOPE  C315 2310   6.791   3.308   5.039 -0.6475 -0.4551 -0.1742
   18DOPE  H15X 2311   6.792   3.414   5.071 -1.1947 -0.6063  0.3667
   18DOPE  H15Y 2312   6.692   3.275   5.079 -1.6468  0.0565 -2.0901
   18DOPE  C316 2313   6.767   3.297   4.886 -0.2854  0.1767 -0.3590
   18DOPE  H16X 2314   6.749   3.193   4.854 -0.9985  0.6053 -1.3990
   18DOPE  H16Y 2315   6.863   3.329   4.839  0.2727  0.0662  0.6664
   18DOPE  C317 2316   6.653   3.388   4.844  0.1260  0.1552 -0.0102
   18DOPE  H17X 2317   6.651   3.490   4.888 -0.7257  0.3737 -0.5358
   18DOPE  H17Y 2318   6.675   3.387   4.735 -1.3591 -2.7407 -0.3695
   18DOPE  C318 2319   6.513   3.322   4.869  0.0391 -0.6176  0.5937
   18DOPE  H18X 2320   6.499   3.319   4.979  2.7633  0.8951  1.0560
   18DOPE  H18Y 2321   6.436   3.387   4.822  1.9317  1.2344 -0.0946
   18DOPE  H18Z 2322   6.505   3.218   4.830 -0.7009 -0.1729 -0.4989
   19DOPE     N 2323   5.743   2.602   6.929  0.2415 -0.9678 -0.2060
   19DOPE   HN1 2324   5.807   2.584   6.848  0.0111 -1.8240 -0.2074
   19DOPE   HN2 2325   5.657   2.651   6.895  0.2943  0.0845  1.1216
   19DOPE   HN3 2326   5.789   2.674   6.988 -0.6884 -1.3873  1.0614
   19DOPE   C12 2327   5.731   2.472   7.001 -0.2908  0.1732 -0.0199
   19DOPE  H12A 2328   5.661   2.407   6.944 -0.7491  1.8741 -1.4829
   19DOPE  H12B 2329   5.680   2.484   7.099 -0.6228 -0.9436 -0.0402
   19DOPE   C11 2330   5.873   2.413   7.025 -0.2400  0.4169 -0.4381
   19DOPE  H11A 2331   5.866   2.318   7.083  0.9345  0.2893 -0.4755
   19DOPE  H11B 2332   5.927   2.484   7.091 -2.0758  0.8586  0.6652
   19DOPE     P 2333   6.081   2.342   6.888 -0.1203  0.5650  0.0005
   19DOPE   O13 2334   6.096   2.201   6.935 -0.3881  0.4761 -0.2102
   19DOPE   O14 2335   6.155   2.444   6.960 -0.2852 -0.5925 -0.4258
   19DOPE   O11 2336   6.116   2.351   6.733  0.7719 -0.2030 -0.3346
   19DOPE   O12 2337   5.933   2.376   6.899  0.8160 -0.2238  0.3246
   19DOPE    C1 2338   6.024   2.283   6.638 -0.3495 -0.4742  0.2090
   19DOPE    HA 2339   5.921   2.320   6.656  1.1112  3.8833  0.8465
   19DOPE    HB 2340   6.025   2.172   6.637  4.0655 -0.6494 -2.0102
   19DOPE    C2 2341   6.065   2.324   6.492 -0.7620  0.6398 -0.0854
   19DOPE    HS 2342   6.168   2.282   6.482 -1.8655 -2.0053 -1.4628
   19DOPE   O21 2343   6.064   2.466   6.474  0.1149  0.1567  0.1816
   19DOPE   C21 2344   6.137   2.513   6.371  0.1864  0.1640 -0.6295
   19DOPE   O22 2345   6.248   2.475   6.340  1.0900  0.2293 -0.6728
   19DOPE   C22 2346   6.062   2.620   6.300  0.2213 -0.1588 -0.4831
   19DOPE   H2R 2347   6.002   2.677   6.374  0.9427 -0.9559  0.7533
   19DOPE   H2S 2348   5.995   2.584   6.220 -1.1241  4.2527 -1.5944
   19DOPE    C3 2349   5.964   2.261   6.390  0.0501  0.1804  0.2515
   19DOPE    HX 2350   5.869   2.314   6.408 -0.5564 -1.0253  0.7447
   19DOPE    HY 2351   5.946   2.155   6.420  1.9646 -0.0222  0.8513
   19DOPE   O31 2352   6.023   2.260   6.258  0.2021  0.4003  0.3990
   19DOPE   C31 2353   5.928   2.243   6.161  0.1724 -0.1697  0.1925
   19DOPE   O32 2354   5.810   2.222   6.184 -0.8029 -0.0770 -0.0312
   19DOPE   C32 2355   5.999   2.246   6.019 -0.4979  0.0786  0.0038
   19DOPE   H2X 2356   6.022   2.352   5.996  0.8266 -0.0603  0.5623
   19DOPE   H2Y 2357   6.102   2.207   6.034 -0.5554  0.4248  1.5089
   19DOPE   C23 2358   6.173   2.712   6.238 -0.1911  0.4572 -0.1328
   19DOPE   H3R 2359   6.238   2.650   6.173 -1.3984 -1.2948  0.2636
   19DOPE   H3S 2360   6.239   2.747   6.321  3.3002 -1.7618 -1.7001
   19DOPE   C24 2361   6.123   2.826   6.158 -0.3316  0.2116  0.1474
   19DOPE   H4R 2362   6.180   2.919   6.182 -1.7405  0.6875  1.9342
   19DOPE   H4S 2363   6.020   2.850   6.192  1.1233  4.2419  2.5013
   19DOPE   C25 2364   6.134   2.806   6.004  0.5114  0.5387 -0.9240
   19DOPE   H5R 2365   6.101   2.707   5.967  0.6744  0.2055 -0.1931
   19DOPE   H5S 2366   6.242   2.806   5.980  0.7757  0.4419  0.2113
   19DOPE   C26 2367   6.060   2.920   5.933  0.5625 -0.5454  0.1235
   19DOPE   H6R 2368   6.098   3.016   5.974 -1.4713  0.3464  0.0374
   19DOPE   H6S 2369   5.950   2.916   5.948  0.5346 -3.8332 -0.3234
   19DOPE   C27 2370   6.076   2.902   5.780  0.0227  0.2335 -0.3898
   19DOPE   H7R 2371   6.021   2.808   5.755  1.8213 -0.3874 -2.3438
   19DOPE   H7S 2372   6.184   2.897   5.754  0.0035 -3.0932 -0.2539
   19DOPE   C28 2373   6.005   3.009   5.696 -0.0803 -0.2867 -0.1840
   19DOPE   H8R 2374   6.046   3.109   5.721  1.8487 -0.5633 -1.9533
   19DOPE   H8S 2375   5.894   3.019   5.706  0.1526  2.3857  0.5643
   19DOPE   C29 2376   6.027   2.970   5.549  0.1111  0.4673  0.8326
   19DOPE   H9R 2377   5.982   2.871   5.534  1.4728 -0.0183 -0.3111
   19DOPE  C210 2378   6.086   3.037   5.449  0.0502 -0.1747  0.3358
   19DOPE  H10R 2379   6.094   2.989   5.350  3.5940 -0.2731  0.5253
   19DOPE  C211 2380   6.162   3.171   5.461  0.0657 -0.1974  0.1143
   19DOPE  H11R 2381   6.118   3.235   5.540 -0.4227  0.7810 -0.9203
   19DOPE  H11S 2382   6.160   3.222   5.362 -2.1057 -1.6737 -0.6791
   19DOPE  C212 2383   6.316   3.156   5.491  0.5608 -0.3485 -0.0918
   19DOPE  H12R 2384   6.366   3.074   5.434  0.4013 -2.9354  3.1716
   19DOPE  H12S 2385   6.326   3.126   5.597  1.9441 -2.4760 -0.7332
   19DOPE  C213 2386   6.392   3.285   5.471 -0.1520 -0.0397  0.3512
   19DOPE  H13R 2387   6.364   3.372   5.534 -0.1565  1.5406 -1.7394
   19DOPE  H13S 2388   6.360   3.320   5.371 -1.0889 -1.1137  0.2565
   19DOPE  C214 2389   6.540   3.273   5.469  0.1599  0.2453  0.6018
   19DOPE  H14R 2390   6.569   3.202   5.389  2.5049  3.1603 -1.3480
   19DOPE  H14S 2391   6.580   3.228   5.563  1.0336 -1.0481 -0.3588
   19DOPE  C215 2392   6.618   3.403   5.436 -0.3085 -0.1618 -0.8749
   19DOPE  H15R 2393   6.611   3.429   5.328  1.1862  1.7872 -0.5561
   19DOPE  H15S 2394   6.727   3.386   5.451  0.0242  1.8498 -0.7352
   19DOPE  C216 2395   6.581   3.519   5.542  0.2670  0.7928  1.3873
   19DOPE  H16R 2396   6.606   3.478   5.642  0.1600 -0.6039  0.8638
   19DOPE  H16S 2397   6.473   3.545   5.543  0.2309  0.6602  1.1230
   19DOPE  C217 2398   6.661   3.648   5.512 -0.4349 -0.0593  0.0580
   19DOPE  H17R 2399   6.624   3.702   5.422  0.2815 -0.9403 -0.7805
   19DOPE  H17S 2400   6.766   3.617   5.495 -0.1616 -0.3757  2.0565
   19DOPE  C218 2401   6.659   3.741   5.629  0.0794  0.1254 -0.2808
   19DOPE  H18R 2402   6.712   3.693   5.714 -2.0206  0.4375  1.2806
   19DOPE  H18S 2403   6.554   3.751   5.665 -0.6413 -2.1134 -1.5725
   19DOPE  H18T 2404   6.700   3.838   5.596  1.9786 -0.2829  0.7307
   19DOPE   C33 2405   5.922   2.185   5.894  0.3326  0.1725 -0.3694
   19DOPE   H3X 2406   5.835   2.251   5.874 -0.6322 -0.3415  1.8519
   19DOPE   H3Y 2407   5.866   2.097   5.930 -1.1709  0.9011 -0.8705
   19DOPE   C34 2408   6.002   2.167   5.772  0.2529 -0.0370  0.1730
   19DOPE   H4X 2409   6.060   2.258   5.746  2.1621  0.1396  4.2541
   19DOPE   H4Y 2410   6.076   2.088   5.799 -0.5348 -1.5616 -1.8183
   19DOPE   C35 2411   5.918   2.119   5.651  0.6299  0.0595 -0.2602
   19DOPE   H5X 2412   5.838   2.196   5.647  1.2583  0.8233  1.1466
   19DOPE   H5Y 2413   5.876   2.017   5.664  0.4000  0.1235 -0.4920
   19DOPE   C36 2414   5.998   2.116   5.516  0.0495 -1.0263  0.0382
   19DOPE   H6X 2415   6.070   2.031   5.507  0.9011 -0.1250 -2.6961
   19DOPE   H6Y 2416   6.067   2.203   5.513 -0.9478 -0.1962  0.5063
   19DOPE   C37 2417   5.921   2.106   5.390 -0.1024 -0.2747  0.1233
   19DOPE   H7X 2418   5.867   2.009   5.386 -0.8971  0.1836 -2.0114
   19DOPE   H7Y 2419   5.847   2.187   5.372 -0.6294 -1.0634 -1.5092
   19DOPE   C38 2420   6.021   2.104   5.273  0.6808 -0.7331  0.0852
   19DOPE   H8X 2421   6.094   2.020   5.280  3.5968  1.5528 -0.6667
   19DOPE   H8Y 2422   6.078   2.199   5.283 -0.6804 -0.0090  1.2185
   19DOPE   C39 2423   5.956   2.120   5.137  0.3982  0.2453  0.0250
   19DOPE   H9X 2424   5.930   2.020   5.098  0.9834  0.5077 -1.0810
   19DOPE  C310 2425   5.934   2.228   5.060 -0.1156  0.6531 -0.0939
   19DOPE  H10X 2426   5.883   2.235   4.963 -0.0372  2.8166 -0.0431
   19DOPE  C311 2427   5.993   2.365   5.096  0.5495  0.2222  0.2966
   19DOPE  H11X 2428   5.903   2.431   5.088  0.0137 -0.4209  0.8574
   19DOPE  H11Y 2429   6.019   2.377   5.203  1.2422  1.7294 -0.0119
   19DOPE  C312 2430   6.110   2.419   5.011  0.0795  0.5012  0.1267
   19DOPE  H12X 2431   6.059   2.447   4.916 -0.5009 -1.6012 -0.2274
   19DOPE  H12Y 2432   6.181   2.337   4.987  0.7493  0.7324  1.2706
   19DOPE  C313 2433   6.191   2.530   5.082 -0.9238 -0.0801  0.8233
   19DOPE  H13X 2434   6.135   2.615   5.126  2.3957  0.4201  4.7487
   19DOPE  H13Y 2435   6.245   2.492   5.171  3.5218  1.1241 -1.0746
   19DOPE  C314 2436   6.312   2.588   4.994  0.1889  1.0339 -0.5735
   19DOPE  H14X 2437   6.273   2.666   4.925 -0.6151  0.6020 -0.6208
   19DOPE  H14Y 2438   6.350   2.500   4.937 -1.3988 -0.9323  1.2521
   19DOPE  C315 2439   6.422   2.645   5.085 -0.2596  0.4415  0.1184
   19DOPE  H15X 2440   6.506   2.653   5.013 -1.8178  0.6131 -1.7685
   19DOPE  H15Y 2441   6.457   2.582   5.170  1.9495  1.2644 -0.1379
   19DOPE  C316 2442   6.394   2.783   5.126  0.2589  0.1733  0.1626
   19DOPE  H16X 2443   6.332   2.779   5.218  3.4017 -0.7088  2.3983
   19DOPE  H16Y 2444   6.345   2.840   5.044 -0.2742 -0.7097 -0.1425
   19DOPE  C317 2445   6.516   2.869   5.169 -0.3114 -0.4295 -0.3468
   19DOPE  H17X 2446   6.545   2.855   5.275  0.7011 -1.0396 -0.6930
   19DOPE  H17Y 2447   6.604   2.837   5.109  1.5577 -1.7820  2.8761
   19DOPE  C318 2448   6.487   3.015   5.140  0.1699  0.2811 -0.1830
   19DOPE  H18X 2449   6.410   3.040   5.216 -1.5569 -2.5028 -0.8457
   19DOPE  H18Y 2450   6.571   3.086   5.153 -0.6233  0.8041  2.6877
   19DOPE  H18Z 2451   6.436   3.047   5.047  0.6136  3.7705  0.6517
   20DOPE     N 2452   5.340   6.786   6.880  0.1209  0.9405 -0.7804
   20DOPE   HN1 2453   5.414   6.715   6.859 -1.1233 -0.6894  0.1109
   20DOPE   HN2 2454   5.313   6.840   6.796 -0.2333 -0.7753 -1.8180
   20DOPE   HN3 2455   5.386   6.841   6.955 -0.0511  0.4667 -0.3223
   20DOPE   C12 2456   5.213   6.716   6.924  0.3278  0.6786  0.3157
   20DOPE  H12A 2457   5.149   6.804   6.945 -1.6046 -0.9876  1.8111
   20DOPE  H12B 2458   5.238   6.651   7.011 -0.9108  0.2521  0.3749
   20DOPE   C11 2459   5.149   6.632   6.815  0.1249  0.4047 -0.8352
   20DOPE  H11A 2460   5.146   6.675   6.713  2.6373  1.5407 -0.4892
   20DOPE  H11B 2461   5.043   6.614   6.846  0.4733  0.9265  0.7790
   20DOPE     P 2462   5.169   6.376   6.881  0.1975 -0.2646  0.4253
   20DOPE   O13 2463   5.110   6.407   7.014 -0.0627 -0.0590 -0.0310
   20DOPE   O14 2464   5.279   6.277   6.862  0.7716 -0.2509 -0.7376
   20DOPE   O11 2465   5.050   6.335   6.783  0.1387 -0.0562  0.0173
   20DOPE   O12 2466   5.217   6.507   6.813 -0.1613  0.5298  0.4551
   20DOPE    C1 2467   5.059   6.310   6.644 -0.9561 -0.1702  0.4324
   20DOPE    HA 2468   4.983   6.231   6.627 -1.0459 -0.0543  0.3007
   20DOPE    HB 2469   5.155   6.263   6.613 -1.8414 -0.8124 -1.4935
   20DOPE    C2 2470   5.036   6.436   6.554  0.0849  0.0505  0.1594
   20DOPE    HS 2471   5.096   6.525   6.583  0.3965 -0.2063  0.3042
   20DOPE   O21 2472   4.899   6.459   6.581 -0.2256  0.1473  0.0772
   20DOPE   C21 2473   4.846   6.570   6.528 -0.1411 -0.1671  0.2376
   20DOPE   O22 2474   4.911   6.659   6.474  0.2138  0.0518 -0.1589
   20DOPE   C22 2475   4.701   6.591   6.564  0.7415 -0.6510 -0.0309
   20DOPE   H2R 2476   4.701   6.656   6.654 -0.0911  0.2627 -0.6740
   20DOPE   H2S 2477   4.659   6.492   6.591  0.1897 -0.6671 -0.9098
   20DOPE    C3 2478   5.075   6.417   6.404 -0.3054  0.2412  0.0504
   20DOPE    HX 2479   5.176   6.373   6.398  0.1599  1.4597 -1.6885
   20DOPE    HY 2480   5.086   6.517   6.358  0.1118 -0.3365 -1.1596
   20DOPE   O31 2481   4.968   6.332   6.340 -0.4034 -0.5353  0.2455
   20DOPE   C31 2482   4.997   6.210   6.303  0.0768  0.5762 -0.4501
   20DOPE   O32 2483   5.105   6.153   6.321 -0.4111  0.1760  0.5194
   20DOPE   C32 2484   4.877   6.140   6.241  0.0825  0.6513  0.6172
   20DOPE   H2X 2485   4.814   6.103   6.324 -0.9395  3.1829  1.0697
   20DOPE   H2Y 2486   4.818   6.210   6.177 -0.0051  0.0934  0.0814
   20DOPE   C23 2487   4.623   6.645   6.441 -0.1773  0.0932  1.0358
   20DOPE   H3R 2488   4.667   6.743   6.411 -1.5844  0.5607  0.3808
   20DOPE   H3S 2489   4.516   6.657   6.467 -0.0921 -1.0508  1.9579
   20DOPE   C24 2490   4.645   6.560   6.318  0.8961  0.2717  0.0690
   20DOPE   H4R 2491   4.617   6.456   6.347  1.5472  0.0414 -0.1193
   20DOPE   H4S 2492   4.748   6.548   6.279  0.5283 -1.2048 -0.4960
   20DOPE   C25 2493   4.569   6.602   6.188  0.9917  0.1736  0.5554
   20DOPE   H5R 2494   4.596   6.705   6.157 -0.8561  0.2940 -0.8480
   20DOPE   H5S 2495   4.459   6.594   6.201  0.7906 -0.0226 -1.0395
   20DOPE   C26 2496   4.608   6.511   6.073  0.0278 -0.1887  0.0568
   20DOPE   H6R 2497   4.718   6.517   6.058 -0.2669  0.6699 -2.1339
   20DOPE   H6S 2498   4.565   6.566   5.987  0.9645  1.6434  0.7024
   20DOPE   C27 2499   4.562   6.364   6.086  0.4722 -0.2022 -0.4947
   20DOPE   H7R 2500   4.455   6.351   6.112  0.3257  1.5754 -0.1061
   20DOPE   H7S 2501   4.606   6.323   6.179 -1.6404 -3.3904 -0.7474
   20DOPE   C28 2502   4.606   6.278   5.966 -1.0564 -0.1057  0.2112
   20DOPE   H8R 2503   4.566   6.177   5.986  1.6861 -1.4436 -0.6685
   20DOPE   H8S 2504   4.716   6.270   5.973 -1.0118 -2.0501 -1.6059
   20DOPE   C29 2505   4.563   6.335   5.836  0.9119 -0.3753  0.1968
   20DOPE   H9R 2506   4.455   6.320   5.818  1.7326 -3.0078 -3.6092
   20DOPE  C210 2507   4.624   6.409   5.745  0.8486  0.3317 -0.2037
   20DOPE  H10R 2508   4.562   6.451   5.664  0.4399 -1.9670 -1.1553
   20DOPE  C211 2509   4.770   6.451   5.756  0.5865 -0.4501  0.4342
   20DOPE  H11R 2510   4.807   6.456   5.860  1.1791  1.2173  0.1759
   20DOPE  H11S 2511   4.782   6.553   5.712  0.2411 -0.3029  0.6762
   20DOPE  C212 2512   4.870   6.364   5.685  0.2420  0.2050  0.0002
   20DOPE  H12R 2513   4.864   6.267   5.738 -0.7593  0.8715  1.1377
   20DOPE  H12S 2514   4.973   6.406   5.693  0.0431  1.3554 -2.4385
   20DOPE  C213 2515   4.837   6.346   5.540 -0.3373 -0.0255  0.8881
   20DOPE  H13R 2516   4.741   6.295   5.518 -0.2977 -0.5003  1.7851
   20DOPE  H13S 2517   4.902   6.261   5.514 -0.7386  0.0528 -0.4665
   20DOPE  C214 2518   4.872   6.472   5.451  0.1098  0.7300  0.1669
   20DOPE  H14R 2519   4.952   6.535   5.496  0.8588 -0.1737  0.1464
   20DOPE  H14S 2520   4.780   6.531   5.434  0.1268 -0.1271 -3.8815
   20DOPE  C215 2521   4.922   6.436   5.317  0.8340  0.0749  0.3795
   20DOPE  H15R 2522   5.012   6.377   5.345  0.4361  0.8309  3.5208
   20DOPE  H15S 2523   4.957   6.529   5.268  2.6949 -0.8984 -0.2615
   20DOPE  C216 2524   4.824   6.360   5.218 -0.3247 -0.0306 -0.2204
   20DOPE  H16R 2525   4.733   6.420   5.237  0.2291  0.4590  1.0563
   20DOPE  H16S 2526   4.808   6.253   5.241 -1.5679  0.4475  1.3918
   20DOPE  C217 2527   4.862   6.360   5.073 -0.6728  0.9160  0.3939
   20DOPE  H17R 2528   4.972   6.370   5.063 -0.4326 -1.8304 -0.7355
   20DOPE  H17S 2529   4.820   6.449   5.022 -2.9405  0.5884  1.5646
   20DOPE  C218 2530   4.819   6.236   4.989  0.3597  0.7233  0.3343
   20DOPE  H18R 2531   4.711   6.229   5.012  0.0633  1.3054 -0.7958
   20DOPE  H18S 2532   4.869   6.144   5.026 -0.8308  0.2320  0.7620
   20DOPE  H18T 2533   4.844   6.253   4.882  0.9615 -2.0988 -0.0665
   20DOPE   C33 2534   4.903   6.010   6.161 -0.0012  0.3615  0.2073
   20DOPE   H3X 2535   4.807   5.953   6.160 -0.7055  1.3875 -2.7400
   20DOPE   H3Y 2536   4.989   5.952   6.201  0.5327 -0.6137 -2.1573
   20DOPE   C34 2537   4.934   6.045   6.011  0.2038 -0.3775 -0.5083
   20DOPE   H4X 2538   4.840   6.076   5.959  0.7868  2.7474  0.0943
   20DOPE   H4Y 2539   4.994   6.138   6.011 -0.8162  0.3158 -1.7642
   20DOPE   C35 2540   5.002   5.930   5.934 -0.1002 -0.7830  0.3448
   20DOPE   H5X 2541   4.939   5.839   5.945  1.3967 -1.9092 -0.1022
   20DOPE   H5Y 2542   5.107   5.910   5.966  1.0218  0.2465 -2.4126
   20DOPE   C36 2543   5.002   5.952   5.779 -0.3899  0.5911  0.5316
   20DOPE   H6X 2544   5.027   6.055   5.746 -0.0064  0.7695  1.3428
   20DOPE   H6Y 2545   4.901   5.922   5.745  0.7084 -1.6283 -0.9956
   20DOPE   C37 2546   5.091   5.846   5.706  0.1257 -0.3241  0.4953
   20DOPE   H7X 2547   5.201   5.859   5.711  0.1398  0.9404 -1.9809
   20DOPE   H7Y 2548   5.060   5.751   5.755  1.0923 -0.0322  1.7340
   20DOPE   C38 2549   5.068   5.828   5.557  0.2463  0.7526 -0.0140
   20DOPE   H8X 2550   4.971   5.774   5.545  0.8742 -0.8949  1.8238
   20DOPE   H8Y 2551   5.141   5.747   5.535 -2.3883 -2.0724  0.9277
   20DOPE   C39 2552   5.091   5.952   5.474 -0.2177  0.6161  0.0596
   20DOPE   H9X 2553   5.027   6.039   5.495  2.8058  2.5731  1.8815
   20DOPE  C310 2554   5.200   5.967   5.394 -0.2454 -0.7114 -0.1896
   20DOPE  H10X 2555   5.211   6.056   5.331  0.4474  0.3599  1.3829
   20DOPE  C311 2556   5.300   5.860   5.362 -0.4735 -0.0776  0.6044
   20DOPE  H11X 2557   5.382   5.864   5.437  0.6133 -1.0895 -0.4980
   20DOPE  H11Y 2558   5.257   5.758   5.365 -0.6460 -0.0562 -0.8647
   20DOPE  C312 2559   5.382   5.884   5.229  0.3065 -0.1190  0.8902
   20DOPE  H12X 2560   5.461   5.806   5.219  1.2096  0.8528  0.2906
   20DOPE  H12Y 2561   5.418   5.989   5.234  2.0305 -0.6959  1.6082
   20DOPE  C313 2562   5.290   5.857   5.112  0.4066 -0.1212  0.3415
   20DOPE  H13X 2563   5.252   5.753   5.106 -1.2415  0.5160 -1.2674
   20DOPE  H13Y 2564   5.208   5.932   5.121 -0.1026 -0.5325 -0.6909
   20DOPE  C314 2565   5.366   5.885   4.984 -0.2412 -0.4204  0.3016
   20DOPE  H14X 2566   5.436   5.800   4.978 -1.0113 -1.1356  1.0961
   20DOPE  H14Y 2567   5.422   5.980   5.000 -1.6678  0.4703  0.2777
   20DOPE  C315 2568   5.281   5.910   4.857 -0.0193 -0.0444  0.1870
   20DOPE  H15X 2569   5.195   5.978   4.877 -0.4740 -0.0312 -1.6383
   20DOPE  H15Y 2570   5.233   5.816   4.822 -0.4623  1.1577 -2.7586
   20DOPE  C316 2571   5.361   5.946   4.736  0.0450  0.5316 -0.3996
   20DOPE  H16X 2572   5.430   5.860   4.721 -1.4768 -0.5985 -1.2002
   20DOPE  H16Y 2573   5.435   6.029   4.748  1.6388 -0.9892  0.8272
   20DOPE  C317 2574   5.289   5.968   4.607 -0.3978 -0.4171  0.6413
   20DOPE  H17X 2575   5.216   6.050   4.621 -1.2430 -1.2815  1.4746
   20DOPE  H17Y 2576   5.360   5.992   4.525  0.1692 -1.4306  0.8247
   20DOPE  C318 2577   5.201   5.844   4.560 -0.8428  0.0129 -0.4662
   20DOPE  H18X 2578   5.263   5.754   4.538 -1.1832  0.1814 -2.2673
   20DOPE  H18Y 2579   5.116   5.812   4.623 -0.8818 -3.1883 -1.9229
   20DOPE  H18Z 2580   5.167   5.872   4.459 -2.2303  0.9443  0.2355
   21DOPE     N 2581   2.901   6.907   7.000 -0.1775  0.4958 -0.1675
   21DOPE   HN1 2582   2.848   6.821   7.024 -0.3564  0.9347  1.0821
   21DOPE   HN2 2583   2.952   6.889   6.910 -0.2341  0.0862 -0.1196
   21DOPE   HN3 2584   2.968   6.914   7.079  1.3491 -0.9585 -1.2472
   21DOPE   C12 2585   2.812   7.026   6.972 -0.0979  0.0921  0.6838
   21DOPE  H12A 2586   2.774   7.017   6.868  1.9195  1.3730 -0.2366
   21DOPE  H12B 2587   2.882   7.113   6.967 -1.0934  1.0660  2.6982
   21DOPE   C11 2588   2.713   7.050   7.082  0.1023  0.3617 -0.2587
   21DOPE  H11A 2589   2.667   7.150   7.071 -0.6822 -0.1231 -1.6313
   21DOPE  H11B 2590   2.763   7.042   7.181  1.2197  1.4529 -0.7135
   21DOPE     P 2591   2.464   6.988   7.079  0.2248 -0.1973 -0.0769
   21DOPE   O13 2592   2.457   7.104   7.169 -0.0928 -0.2709  0.1152
   21DOPE   O14 2593   2.378   6.870   7.096 -0.1833  0.3388 -0.1906
   21DOPE   O11 2594   2.437   7.039   6.939 -0.0892  0.0646 -0.4907
   21DOPE   O12 2595   2.615   6.945   7.089 -0.4290 -0.0235 -0.5796
   21DOPE    C1 2596   2.457   6.973   6.815 -0.1645  0.5447 -0.0257
   21DOPE    HA 2597   2.426   6.866   6.821 -2.8058  1.2799  1.4496
   21DOPE    HB 2598   2.566   6.966   6.801  0.5225 -1.2119  4.3644
   21DOPE    C2 2599   2.388   7.048   6.704  0.2621 -0.0439  0.2457
   21DOPE    HS 2600   2.289   7.071   6.748  0.0479 -1.1714  0.3679
   21DOPE   O21 2601   2.388   6.963   6.588  0.4476 -0.0359 -0.3743
   21DOPE   C21 2602   2.294   6.991   6.503 -0.7969  0.1428  0.0049
   21DOPE   O22 2603   2.210   7.085   6.511  0.8380  0.6985 -0.3748
   21DOPE   C22 2604   2.298   6.893   6.386  0.0406 -0.2050  0.0050
   21DOPE   H2R 2605   2.242   6.935   6.301 -0.4609  0.9343  0.8740
   21DOPE   H2S 2606   2.254   6.796   6.418  1.3185 -0.2947  1.6626
   21DOPE    C3 2607   2.468   7.175   6.667  0.4601 -0.4135 -0.0410
   21DOPE    HX 2608   2.477   7.238   6.758  3.1894 -0.0046 -0.5118
   21DOPE    HY 2609   2.402   7.222   6.590  1.9175 -0.7972 -1.5964
   21DOPE   O31 2610   2.598   7.141   6.610  0.6097  0.6016 -0.1701
   21DOPE   C31 2611   2.701   7.205   6.670  0.4154  0.2400 -0.1245
   21DOPE   O32 2612   2.702   7.268   6.777  0.4006 -0.0098  0.1914
   21DOPE   C32 2613   2.819   7.168   6.581 -0.1563  0.7095  0.4490
   21DOPE   H2X 2614   2.839   7.062   6.609  0.8328  0.6304 -0.4867
   21DOPE   H2Y 2615   2.781   7.162   6.476  2.5807  2.6463 -0.7699
   21DOPE   C23 2616   2.439   6.861   6.336  0.2104  0.0996  0.1682
   21DOPE   H3R 2617   2.425   6.789   6.252 -3.6290 -4.0213  3.7762
   21DOPE   H3S 2618   2.487   6.796   6.412 -1.3218 -0.0893  1.0165
   21DOPE   C24 2619   2.519   6.986   6.297 -0.0522  0.0227 -0.9924
   21DOPE   H4R 2620   2.537   7.048   6.387  0.6822  1.1433 -1.8831
   21DOPE   H4S 2621   2.454   7.056   6.239 -1.1551 -0.2143 -0.0742
   21DOPE   C25 2622   2.642   6.967   6.212  0.3932 -0.6270  0.7931
   21DOPE   H5R 2623   2.714   6.923   6.284  0.0496 -0.2335  1.3905
   21DOPE   H5S 2624   2.671   7.068   6.176  0.5713 -0.7304  0.6475
   21DOPE   C26 2625   2.631   6.884   6.081 -0.4142 -0.3202  0.2392
   21DOPE   H6R 2626   2.639   6.775   6.103  0.5614 -0.3960 -0.4629
   21DOPE   H6S 2627   2.723   6.918   6.029 -0.9247 -0.3775 -0.7066
   21DOPE   C27 2628   2.508   6.920   5.998 -0.1705 -0.1236 -0.4674
   21DOPE   H7R 2629   2.497   7.031   6.006 -0.1957 -0.2049  0.9459
   21DOPE   H7S 2630   2.412   6.875   6.032 -0.9143  1.3019 -0.6049
   21DOPE   C28 2631   2.544   6.903   5.853 -0.4101 -0.4540 -0.2059
   21DOPE   H8R 2632   2.561   6.794   5.845 -2.2433 -0.7471 -0.5945
   21DOPE   H8S 2633   2.634   6.962   5.827 -0.6927 -0.4177 -1.1460
   21DOPE   C29 2634   2.428   6.950   5.765 -0.6664  0.9654 -0.1598
   21DOPE   H9R 2635   2.340   6.989   5.819 -2.3311 -3.2719  0.5802
   21DOPE  C210 2636   2.428   6.956   5.634 -0.0943 -0.3910  0.8615
   21DOPE  H10R 2637   2.337   6.998   5.588  0.8430  1.1113  0.3039
   21DOPE  C211 2638   2.528   6.910   5.532 -0.2114 -1.1754 -0.6216
   21DOPE  H11R 2639   2.508   6.808   5.492  1.0470 -2.4111  1.6895
   21DOPE  H11S 2640   2.630   6.918   5.574 -0.1348 -3.3893 -0.2909
   21DOPE  C212 2641   2.525   7.005   5.409  0.2567 -0.0596  0.5486
   21DOPE  H12R 2642   2.623   7.001   5.357 -1.0380  0.9249 -2.2237
   21DOPE  H12S 2643   2.523   7.109   5.448  0.6461 -0.2912  1.1971
   21DOPE  C213 2644   2.408   6.963   5.310 -0.0886 -0.4372  0.0348
   21DOPE  H13R 2645   2.316   6.961   5.372  1.1884  1.1351  2.1384
   21DOPE  H13S 2646   2.426   6.856   5.286 -0.5735 -0.3381 -0.7872
   21DOPE  C214 2647   2.389   7.052   5.185  0.3587 -0.4177 -0.4003
   21DOPE  H14R 2648   2.365   7.159   5.202  1.9175  0.5176 -3.4701
   21DOPE  H14S 2649   2.295   7.020   5.134  1.3982 -1.4027 -1.7532
   21DOPE  C215 2650   2.500   7.051   5.087 -0.7288  0.0762 -0.3565
   21DOPE  H15R 2651   2.555   6.955   5.097  1.7845  1.5519  1.0346
   21DOPE  H15S 2652   2.578   7.124   5.117  0.5082 -1.4217  0.1957
   21DOPE  C216 2653   2.455   7.073   4.941 -0.0279 -0.2148 -0.0133
   21DOPE  H16R 2654   2.422   7.179   4.928  2.2556  0.6443  0.6408
   21DOPE  H16S 2655   2.367   7.007   4.933 -0.0669 -0.8663  3.7702
   21DOPE  C217 2656   2.555   7.047   4.832 -0.0841 -0.7807 -0.0123
   21DOPE  H17R 2657   2.509   7.087   4.739 -1.8309  0.7616  1.4458
   21DOPE  H17S 2658   2.576   6.938   4.823  1.2492 -0.6326  0.9095
   21DOPE  C218 2659   2.683   7.123   4.870  0.1114 -0.5556 -0.1600
   21DOPE  H18R 2660   2.661   7.225   4.906  0.9802 -0.8913  1.4571
   21DOPE  H18S 2661   2.755   7.126   4.785 -0.3633  0.4187 -0.5355
   21DOPE  H18T 2662   2.722   7.076   4.963 -1.1876 -1.5843 -0.0998
   21DOPE   C33 2663   2.947   7.254   6.598 -0.1189  0.4215 -0.0283
   21DOPE   H3X 2664   3.035   7.199   6.558 -0.3021 -1.5240  2.0180
   21DOPE   H3Y 2665   2.986   7.257   6.702 -1.4306 -2.4154  0.6687
   21DOPE   C34 2666   2.948   7.393   6.539  0.8665 -0.4354  0.1030
   21DOPE   H4X 2667   2.878   7.451   6.602  1.3292 -0.7869  0.9564
   21DOPE   H4Y 2668   3.049   7.438   6.553  0.7378 -0.5075  1.2969
   21DOPE   C35 2669   2.919   7.402   6.389  0.0703  0.9970 -0.4222
   21DOPE   H5X 2670   2.822   7.352   6.368 -0.5873  2.3889 -0.8338
   21DOPE   H5Y 2671   2.997   7.341   6.340  1.1039  1.0930  1.0174
   21DOPE   C36 2672   2.931   7.544   6.325  0.0466 -0.0327 -0.4213
   21DOPE   H6X 2673   3.017   7.597   6.370 -0.7786  0.7278  0.2771
   21DOPE   H6Y 2674   2.839   7.603   6.342 -1.8282 -2.8325 -0.2406
   21DOPE   C37 2675   2.952   7.538   6.172  0.1632 -0.3342  0.7165
   21DOPE   H7X 2676   2.969   7.641   6.133  0.1853 -1.0788 -1.3389
   21DOPE   H7Y 2677   3.042   7.478   6.148  0.3923 -0.7861  2.5905
   21DOPE   C38 2678   2.842   7.479   6.082  0.5890  0.3023  0.0317
   21DOPE   H8X 2679   2.820   7.380   6.126  0.9482  0.3193  0.2606
   21DOPE   H8Y 2680   2.875   7.463   5.977 -0.3551  0.4536 -0.2941
   21DOPE   C39 2681   2.718   7.564   6.061  0.2256 -0.5938 -0.0504
   21DOPE   H9X 2682   2.658   7.571   6.153  0.9545  0.3697  0.3773
   21DOPE  C310 2683   2.693   7.644   5.953  0.1057 -0.6809 -0.1676
   21DOPE  H10X 2684   2.604   7.708   5.943  0.4203 -0.5283 -2.4941
   21DOPE  C311 2685   2.767   7.648   5.824 -0.4328 -0.1053  0.2400
   21DOPE  H11X 2686   2.833   7.737   5.833 -2.3319  1.2753  1.1856
   21DOPE  H11Y 2687   2.828   7.557   5.806  0.4714  0.1419  1.9264
   21DOPE  C312 2688   2.677   7.670   5.697 -0.3008  0.4612  0.5801
   21DOPE  H12X 2689   2.596   7.594   5.698  3.2463 -3.6832  1.5115
   21DOPE  H12Y 2690   2.739   7.645   5.608 -2.2173  1.1752 -1.0265
   21DOPE  C313 2691   2.628   7.816   5.699 -0.0490 -0.1402 -0.0263
   21DOPE  H13X 2692   2.567   7.833   5.790 -0.5935  1.5742 -0.6676
   21DOPE  H13Y 2693   2.706   7.894   5.714 -1.4578  0.9076  2.4093
   21DOPE  C314 2694   2.530   7.846   5.579 -0.4732 -0.1162 -0.1320
   21DOPE  H14X 2695   2.505   7.954   5.579 -0.8530 -0.2040  0.0825
   21DOPE  H14Y 2696   2.434   7.792   5.592 -0.5564 -0.7070 -2.6590
   21DOPE  C315 2697   2.575   7.799   5.437  0.5876 -0.1071  0.1669
   21DOPE  H15X 2698   2.587   7.689   5.431 -2.5113 -0.5324 -0.0317
   21DOPE  H15Y 2699   2.673   7.843   5.412  0.4915 -0.6740 -1.2877
   21DOPE  C316 2700   2.470   7.836   5.334  0.0713 -0.1394  0.0196
   21DOPE  H16X 2701   2.466   7.947   5.326 -2.3293 -0.1708  0.1726
   21DOPE  H16Y 2702   2.372   7.824   5.384  0.6287  0.6044  1.3204
   21DOPE  C317 2703   2.486   7.780   5.197 -0.6706  0.5147  0.2948
   21DOPE  H17X 2704   2.480   7.669   5.199  1.7654  0.3274 -0.0039
   21DOPE  H17Y 2705   2.403   7.813   5.130 -0.1750  1.5937  0.1941
   21DOPE  C318 2706   2.613   7.827   5.122 -0.5982  0.5730 -0.1004
   21DOPE  H18X 2707   2.609   7.792   5.016  2.2011  0.3795 -0.2210
   21DOPE  H18Y 2708   2.617   7.937   5.132 -1.0588  0.7674 -1.6789
   21DOPE  H18Z 2709   2.695   7.780   5.180 -1.1671  2.1475  2.0730
   22DOPE     N 2710   7.263   3.806   7.246 -0.2219 -0.6635  0.0688
   22DOPE   HN1 2711   7.314   3.768   7.328  0.2878 -0.5800 -0.2060
   22DOPE   HN2 2712   7.325   3.799   7.163 -0.9490  1.4510 -0.7207
   22DOPE   HN3 2713   7.252   3.907   7.267  1.7487 -0.3402 -0.2186
   22DOPE   C12 2714   7.124   3.745   7.222 -0.1726 -0.2465 -0.9600
   22DOPE  H12A 2715   7.057   3.793   7.297  3.2222 -0.5158  2.6025
   22DOPE  H12B 2716   7.128   3.635   7.238 -1.1037 -0.0860  0.5747
   22DOPE   C11 2717   7.067   3.776   7.087 -0.2874 -0.9326  0.0491
   22DOPE  H11A 2718   7.060   3.883   7.059 -0.1895 -0.7544  0.6939
   22DOPE  H11B 2719   6.962   3.740   7.088 -1.2185  1.5752 -0.4635
   22DOPE     P 2720   7.258   3.762   6.896  0.1651  0.1247 -0.1214
   22DOPE   O13 2721   7.319   3.655   6.820 -0.2259  0.2402  0.4110
   22DOPE   O14 2722   7.345   3.835   6.985 -0.0448 -0.4200 -0.5768
   22DOPE   O11 2723   7.194   3.865   6.788 -0.3089  0.0723  0.0622
   22DOPE   O12 2724   7.141   3.698   6.986  0.2827  0.2799 -0.1341
   22DOPE    C1 2725   7.062   3.867   6.748  0.4407 -0.2584 -0.1640
   22DOPE    HA 2726   7.037   3.943   6.671  1.8270  0.1152 -0.2558
   22DOPE    HB 2727   6.991   3.882   6.832 -0.2414 -3.0282 -0.1279
   22DOPE    C2 2728   7.021   3.734   6.670 -0.4427 -0.3093 -0.3947
   22DOPE    HS 2729   7.020   3.648   6.740  0.9804 -0.1586 -0.1541
   22DOPE   O21 2730   7.118   3.725   6.567 -0.1725  0.1562  0.2157
   22DOPE   C21 2731   7.157   3.609   6.542  0.6456 -0.6983 -0.2212
   22DOPE   O22 2732   7.105   3.503   6.567  0.2743  0.4482  1.0156
   22DOPE   C22 2733   7.281   3.606   6.454  0.2800  0.1852 -0.7443
   22DOPE   H2R 2734   7.339   3.521   6.495 -1.3660  0.1966  1.8142
   22DOPE   H2S 2735   7.320   3.707   6.479 -1.3251  0.1875  2.0789
   22DOPE    C3 2736   6.881   3.760   6.611 -0.2855  0.0545 -0.8619
   22DOPE    HX 2737   6.877   3.855   6.554  0.3246  0.1301 -0.7802
   22DOPE    HY 2738   6.823   3.773   6.705  2.4093  1.3450  0.7377
   22DOPE   O31 2739   6.827   3.645   6.541  0.4031 -0.1329 -0.9191
   22DOPE   C31 2740   6.812   3.673   6.414  0.0990  0.8018 -0.2797
   22DOPE   O32 2741   6.846   3.774   6.361 -0.2613  0.0351  0.2164
   22DOPE   C32 2742   6.745   3.551   6.351 -0.0202  0.2048  0.0116
   22DOPE   H2X 2743   6.804   3.459   6.371  0.6283  0.3422 -1.1706
   22DOPE   H2Y 2744   6.646   3.541   6.400  0.2616  2.5407  1.1963
   22DOPE   C23 2745   7.246   3.582   6.305  0.1300 -0.2607  0.0835
   22DOPE   H3R 2746   7.174   3.499   6.289 -2.2171  1.4402  1.2016
   22DOPE   H3S 2747   7.342   3.554   6.256  0.0749 -0.9844  0.3727
   22DOPE   C24 2748   7.185   3.708   6.239  0.1762 -0.8452 -0.4714
   22DOPE   H4R 2749   7.252   3.796   6.237 -1.3401  0.4137  1.0930
   22DOPE   H4S 2750   7.100   3.742   6.302  2.4509 -0.2708  2.5520
   22DOPE   C25 2751   7.131   3.697   6.097  0.4036 -0.1079 -0.5230
   22DOPE   H5R 2752   7.035   3.641   6.091  0.8796 -0.7961 -2.6068
   22DOPE   H5S 2753   7.204   3.643   6.034 -1.3270 -1.8486 -1.1273
   22DOPE   C26 2754   7.105   3.836   6.035  0.2837 -0.2075  0.6581
   22DOPE   H6R 2755   7.200   3.893   6.042  0.2944 -0.3908  2.2423
   22DOPE   H6S 2756   7.036   3.885   6.107  2.0076  0.7235  1.7554
   22DOPE   C27 2757   7.051   3.825   5.896  0.0467  0.7418 -0.3779
   22DOPE   H7R 2758   6.959   3.763   5.902  0.8434 -0.4203 -0.0071
   22DOPE   H7S 2759   7.120   3.771   5.828  0.4254 -1.3493  1.5642
   22DOPE   C28 2760   7.029   3.968   5.838  0.5819 -0.2692 -0.8131
   22DOPE   H8R 2761   7.126   4.020   5.822  0.3145  0.2187 -0.8887
   22DOPE   H8S 2762   6.964   4.035   5.898  1.6056 -0.1557  0.1975
   22DOPE   C29 2763   6.987   3.953   5.691 -0.1562  0.6740  0.2905
   22DOPE   H9R 2764   7.016   3.855   5.649  0.2264  0.9298 -0.0609
   22DOPE  C210 2765   6.912   4.036   5.615 -0.6141 -0.0389 -0.1568
   22DOPE  H10R 2766   6.889   4.005   5.512  0.9846 -3.8373  0.4367
   22DOPE  C211 2767   6.876   4.176   5.655  0.0198 -0.1161  0.0114
   22DOPE  H11R 2768   6.914   4.253   5.585  1.6600  0.6984  1.7221
   22DOPE  H11S 2769   6.917   4.198   5.756  1.9336  1.1401 -1.0046
   22DOPE  C212 2770   6.722   4.198   5.664 -0.7169 -0.0995  1.0253
   22DOPE  H12R 2771   6.709   4.307   5.681  0.4833 -0.0270  1.6316
   22DOPE  H12S 2772   6.678   4.147   5.752 -0.0933  0.6769  1.8050
   22DOPE  C213 2773   6.651   4.169   5.528 -0.4708 -0.6362 -0.3545
   22DOPE  H13R 2774   6.662   4.061   5.508  2.0584 -0.8043  1.4515
   22DOPE  H13S 2775   6.707   4.225   5.449 -0.8486  1.7252  0.9519
   22DOPE  C214 2776   6.507   4.209   5.518  0.4713 -0.2583 -0.4338
   22DOPE  H14R 2777   6.508   4.320   5.524  1.3210 -0.2045 -1.2058
   22DOPE  H14S 2778   6.450   4.171   5.605 -0.7311  0.5651 -0.8440
   22DOPE  C215 2779   6.445   4.156   5.385 -0.7012 -0.2552  0.0950
   22DOPE  H15R 2780   6.461   4.046   5.377 -0.4936 -0.0958 -2.3099
   22DOPE  H15S 2781   6.515   4.193   5.307  0.9644 -1.9982  0.6712
   22DOPE  C216 2782   6.307   4.196   5.343  0.0674  0.1506  0.0940
   22DOPE  H16R 2783   6.303   4.303   5.316 -0.5859  0.2014  0.3524
   22DOPE  H16S 2784   6.229   4.192   5.423 -0.2566  1.1897 -0.1600
   22DOPE  C217 2785   6.255   4.134   5.212  0.2954  0.0607 -0.4398
   22DOPE  H17R 2786   6.145   4.145   5.198  0.3792 -0.9894 -2.1842
   22DOPE  H17S 2787   6.275   4.026   5.220  0.8892  0.1530 -0.6369
   22DOPE  C218 2788   6.320   4.190   5.081 -0.2311  0.5156  0.2131
   22DOPE  H18R 2789   6.302   4.299   5.071 -1.8336  0.2646  0.0797
   22DOPE  H18S 2790   6.286   4.140   4.988  0.9843 -0.5947  0.3333
   22DOPE  H18T 2791   6.430   4.176   5.078 -0.0952  1.6514 -1.0291
   22DOPE   C33 2792   6.733   3.572   6.198  0.0533  0.1409 -0.6711
   22DOPE   H3X 2793   6.806   3.511   6.141  0.9539 -0.1524  0.7430
   22DOPE   H3Y 2794   6.756   3.671   6.154  1.3687 -0.0366 -0.4227
   22DOPE   C34 2795   6.596   3.540   6.138  0.0920  0.2518 -0.5222
   22DOPE   H4X 2796   6.582   3.430   6.140  1.0369  0.0988 -1.4937
   22DOPE   H4Y 2797   6.513   3.592   6.191  0.9724 -0.9528  2.2226
   22DOPE   C35 2798   6.584   3.597   5.995 -0.7851  0.4015  0.4629
   22DOPE   H5X 2799   6.675   3.573   5.937 -0.9166 -3.4868  1.5781
   22DOPE   H5Y 2800   6.569   3.707   6.005  1.9547  0.8853  0.0893
   22DOPE   C36 2801   6.475   3.535   5.913  0.3253  0.6129  0.0937
   22DOPE   H6X 2802   6.463   3.585   5.814  2.2019  0.2507 -0.3569
   22DOPE   H6Y 2803   6.381   3.553   5.970  0.6080 -2.2749  1.6307
   22DOPE   C37 2804   6.486   3.387   5.884  0.2196 -0.2218  0.2041
   22DOPE   H7X 2805   6.572   3.369   5.815 -0.1334 -2.8632  0.3345
   22DOPE   H7Y 2806   6.514   3.334   5.978  1.9055  2.2832  1.2088
   22DOPE   C38 2807   6.359   3.320   5.817 -0.3601  0.1973  0.1497
   22DOPE   H8X 2808   6.396   3.227   5.768  0.5999  0.7248 -0.1423
   22DOPE   H8Y 2809   6.334   3.398   5.743 -0.6046 -1.3468 -1.4694
   22DOPE   C39 2810   6.248   3.286   5.913  0.0443  0.8942 -0.3854
   22DOPE   H9X 2811   6.263   3.202   5.982 -0.3910 -0.5323 -1.9591
   22DOPE  C310 2812   6.122   3.335   5.903 -0.2770  0.4113  0.4496
   22DOPE  H10X 2813   6.048   3.312   5.981 -2.4207 -0.6348 -1.7558
   22DOPE  C311 2814   6.078   3.449   5.814 -0.6643  0.2163  0.1570
   22DOPE  H11X 2815   6.094   3.546   5.866  0.7107  0.1341 -0.0832
   22DOPE  H11Y 2816   6.127   3.456   5.715 -0.6480 -0.8157  0.0809
   22DOPE  C312 2817   5.930   3.425   5.792  0.3748 -0.1788 -0.0311
   22DOPE  H12X 2818   5.879   3.448   5.888 -0.1752 -2.7576  0.3765
   22DOPE  H12Y 2819   5.901   3.321   5.766 -1.8388  0.5545 -0.7712
   22DOPE  C313 2820   5.868   3.505   5.674  0.1173  0.4590  0.0848
   22DOPE  H13X 2821   5.759   3.515   5.694  0.3120  0.9843  0.9635
   22DOPE  H13Y 2822   5.910   3.607   5.661  1.8414 -0.2171  0.0744
   22DOPE  C314 2823   5.885   3.437   5.537  0.6440  0.7071  0.2221
   22DOPE  H14X 2824   5.849   3.333   5.550 -0.2497  1.1031  1.0695
   22DOPE  H14Y 2825   5.990   3.421   5.504  0.5998  0.0695  0.3843
   22DOPE  C315 2826   5.809   3.511   5.430  0.2585  0.6289 -0.6313
   22DOPE  H15X 2827   5.867   3.596   5.388 -1.5766  1.2953 -1.9456
   22DOPE  H15Y 2828   5.719   3.554   5.479 -1.7766 -0.5081 -3.1070
   22DOPE  C316 2829   5.747   3.428   5.316  0.0527  0.2388 -0.0671
   22DOPE  H16X 2830   5.690   3.497   5.250  1.8498 -0.1601 -2.1530
   22DOPE  H16Y 2831   5.688   3.345   5.360  0.1919  0.5535  0.7356
   22DOPE  C317 2832   5.851   3.368   5.219 -0.4536 -0.9147  0.0931
   22DOPE  H17X 2833   5.911   3.452   5.178 -2.0988  1.2128  1.8512
   22DOPE  H17Y 2834   5.912   3.302   5.285  1.2720  0.6124  0.0829
   22DOPE  C318 2835   5.787   3.292   5.114 -0.3106 -0.7150  0.6290
   22DOPE  H18X 2836   5.709   3.350   5.060 -0.4718 -0.9918  0.5631
   22DOPE  H18Y 2837   5.855   3.261   5.032  1.0458  0.2038  1.3688
   22DOPE  H18Z 2838   5.745   3.194   5.147 -2.1224 -1.2545 -2.7340
   23DOPE     N 2839   4.665   0.379   6.745  0.3048  0.2325 -0.0389
   23DOPE   HN1 2840   4.664   0.439   6.661  0.0475 -2.1609 -1.8488
   23DOPE   HN2 2841   4.562   0.378   6.764  0.2488  0.7126 -0.3023
   23DOPE   HN3 2842   4.722   0.424   6.820  1.4146 -0.7954 -0.2310
   23DOPE   C12 2843   4.709   0.239   6.725 -0.1178  0.0435  0.1087
   23DOPE  H12A 2844   4.815   0.239   6.759  0.0054 -1.8683 -0.2047
   23DOPE  H12B 2845   4.715   0.223   6.616 -0.0009  1.6716 -0.1471
   23DOPE   C11 2846   4.626   0.144   6.813 -0.3808  0.6869  0.1085
   23DOPE  H11A 2847   4.659   0.041   6.788 -1.1210  0.8352 -1.6048
   23DOPE  H11B 2848   4.523   0.152   6.772  0.1079  2.0600 -0.9184
   23DOPE     P 2849   4.733   0.149   7.057  0.1166 -0.0882 -0.6079
   23DOPE   O13 2850   4.670   0.115   7.190 -0.2910 -0.7391  0.3304
   23DOPE   O14 2851   4.826   0.260   7.053  0.0076 -0.0689  0.3311
   23DOPE   O11 2852   4.792   0.015   6.995 -0.3004  0.2004  0.1606
   23DOPE   O12 2853   4.623   0.181   6.951  1.1227  0.1738 -0.0588
   23DOPE    C1 2854   4.924  -0.028   7.019  0.2902 -0.4249 -0.9361
   23DOPE    HA 2855   4.912  -0.132   7.057 -0.8516 -0.8062 -2.2600
   23DOPE    HB 2856   4.978   0.021   7.103  1.1559 -1.6955 -0.7186
   23DOPE    C2 2857   5.014  -0.013   6.889 -0.3322  0.6653 -0.2673
   23DOPE    HS 2858   5.001   0.095   6.866 -1.0408  0.8384  0.8362
   23DOPE   O21 2859   4.957  -0.097   6.787  0.2049  0.1812  0.7174
   23DOPE   C21 2860   4.956  -0.046   6.664  0.4960  0.2336 -0.2174
   23DOPE   O22 2861   5.014   0.055   6.623 -0.0400  0.1236 -0.4089
   23DOPE   C22 2862   4.876  -0.134   6.577  0.1181  0.5814  0.8535
   23DOPE   H2R 2863   4.816  -0.214   6.626  0.0742  0.3962  0.5018
   23DOPE   H2S 2864   4.939  -0.184   6.500  0.9992  0.2515  1.7636
   23DOPE    C3 2865   5.160  -0.055   6.923  0.0210  0.1826  0.0874
   23DOPE    HX 2866   5.159  -0.165   6.938  1.0569  0.0486 -0.7107
   23DOPE    HY 2867   5.179  -0.007   7.022 -0.8062  0.9193 -0.0934
   23DOPE   O31 2868   5.253  -0.006   6.825  0.4402 -0.6215  0.3214
   23DOPE   C31 2869   5.302  -0.091   6.732  0.0745 -0.2957  0.4237
   23DOPE   O32 2870   5.257  -0.201   6.707  0.2655  0.3600  0.1105
   23DOPE   C32 2871   5.417  -0.026   6.657 -0.4299 -0.7863 -0.3339
   23DOPE   H2X 2872   5.419   0.085   6.663  1.7235 -0.7744 -0.5605
   23DOPE   H2Y 2873   5.516  -0.057   6.697  0.4362 -0.4337 -2.1067
   23DOPE   C23 2874   4.767  -0.056   6.496 -0.3869  0.6987  0.5024
   23DOPE   H3R 2875   4.798   0.040   6.449 -2.4552  1.7881  1.2238
   23DOPE   H3S 2876   4.684  -0.041   6.568 -1.6354 -0.3524 -0.6575
   23DOPE   C24 2877   4.706  -0.142   6.385  0.1981 -1.0109 -0.0775
   23DOPE   H4R 2878   4.647  -0.218   6.440  1.1545 -0.2084  2.1628
   23DOPE   H4S 2879   4.784  -0.187   6.320  1.5633  2.2824 -0.9327
   23DOPE   C25 2880   4.613  -0.062   6.293 -0.5071  0.0104 -0.1257
   23DOPE   H5R 2881   4.676   0.015   6.245 -2.0128  1.8722  0.7416
   23DOPE   H5S 2882   4.532  -0.005   6.344  0.0968 -0.1469  1.0469
   23DOPE   C26 2883   4.545  -0.155   6.193  0.2263  0.4897 -0.0546
   23DOPE   H6R 2884   4.485  -0.238   6.238  0.2538  2.3150  3.7331
   23DOPE   H6S 2885   4.626  -0.208   6.137  1.0749  0.6938  0.9429
   23DOPE   C27 2886   4.445  -0.081   6.102 -0.6482 -0.3845 -0.4123
   23DOPE   H7R 2887   4.474   0.026   6.102 -0.2266 -0.4903 -1.1049
   23DOPE   H7S 2888   4.346  -0.082   6.153 -0.8616  1.1385 -0.7595
   23DOPE   C28 2889   4.445  -0.139   5.956 -0.1483 -0.1499  0.7847
   23DOPE   H8R 2890   4.399  -0.240   5.950 -1.5073  0.4228  1.0424
   23DOPE   H8S 2891   4.549  -0.138   5.917 -0.7599  1.1889 -0.9469
   23DOPE   C29 2892   4.362  -0.050   5.862  0.6948 -0.2127  0.2647
   23DOPE   H9R 2893   4.300   0.017   5.923  1.0265 -0.7707  1.2400
   23DOPE  C210 2894   4.358  -0.037   5.730  0.5572 -0.3814 -0.3229
   23DOPE  H10R 2895   4.274   0.021   5.689  0.0369 -1.9402 -1.5655
   23DOPE  C211 2896   4.439  -0.113   5.632 -0.2440  0.1269  0.2679
   23DOPE  H11R 2897   4.373  -0.177   5.569 -0.1007 -0.0234  0.2708
   23DOPE  H11S 2898   4.524  -0.166   5.678  1.0719  0.5562 -1.5573
   23DOPE  C212 2899   4.504  -0.017   5.528 -0.2224  0.2028  0.5800
   23DOPE  H12R 2900   4.599  -0.061   5.493  0.0044  1.4598 -0.4372
   23DOPE  H12S 2901   4.541   0.069   5.587  1.8430 -1.3134  1.5970
   23DOPE  C213 2902   4.419   0.029   5.408 -0.0424 -0.0608 -0.5506
   23DOPE  H13R 2903   4.449   0.127   5.367  0.4144 -0.2667 -0.7175
   23DOPE  H13S 2904   4.315   0.031   5.446  0.4718 -0.0975  0.9367
   23DOPE  C214 2905   4.423  -0.066   5.283  0.6122  0.4920  0.1349
   23DOPE  H14R 2906   4.351  -0.041   5.202  1.0016  0.7855 -0.1204
   23DOPE  H14S 2907   4.391  -0.168   5.314  0.0239  0.8528  0.7410
   23DOPE  C215 2908   4.561  -0.071   5.212  0.0758  0.0784 -0.0675
   23DOPE  H15R 2909   4.621  -0.122   5.290 -0.9319  0.8467  1.2492
   23DOPE  H15S 2910   4.600   0.023   5.167 -1.0337  0.3561 -0.4656
   23DOPE  C216 2911   4.564  -0.165   5.084  0.1835 -0.7038  0.0693
   23DOPE  H16R 2912   4.519  -0.265   5.102  0.6301 -1.5164 -2.8870
   23DOPE  H16S 2913   4.674  -0.173   5.079  0.4797  2.4090 -0.4793
   23DOPE  C217 2914   4.512  -0.110   4.956 -0.2698  1.1617  0.6125
   23DOPE  H17R 2915   4.552  -0.011   4.925  0.3031  0.2474 -1.8615
   23DOPE  H17S 2916   4.403  -0.099   4.974 -0.3524  1.2539  0.0696
   23DOPE  C218 2917   4.526  -0.215   4.842 -0.3202  0.0170 -0.1642
   23DOPE  H18R 2918   4.465  -0.301   4.875  0.2440 -1.1750 -2.0894
   23DOPE  H18S 2919   4.635  -0.236   4.833 -0.2952  0.5880 -1.5566
   23DOPE  H18T 2920   4.498  -0.180   4.740 -0.0010 -0.7087 -0.5102
   23DOPE   C33 2921   5.418  -0.075   6.509  0.5017 -0.1149 -0.4632
   23DOPE   H3X 2922   5.399  -0.184   6.507 -2.9516  0.3778 -1.6567
   23DOPE   H3Y 2923   5.517  -0.056   6.462  0.5529 -2.8042 -1.6023
   23DOPE   C34 2924   5.311   0.001   6.434  0.6542  0.1445  0.1007
   23DOPE   H4X 2925   5.222  -0.065   6.432  1.2510 -0.6616 -0.9228
   23DOPE   H4Y 2926   5.282   0.104   6.463  0.0475  0.6515 -2.0664
   23DOPE   C35 2927   5.359   0.027   6.290 -0.2563 -0.4655  0.0624
   23DOPE   H5X 2928   5.367  -0.077   6.250 -0.3340  0.2887 -2.0796
   23DOPE   H5Y 2929   5.457   0.078   6.282 -0.1282 -0.5272  1.1970
   23DOPE   C36 2930   5.248   0.090   6.205 -0.3489 -0.3159  0.1646
   23DOPE   H6X 2931   5.236   0.199   6.224 -1.7381 -0.2985 -0.7042
   23DOPE   H6Y 2932   5.158   0.026   6.217 -1.9174  1.9260  1.0196
   23DOPE   C37 2933   5.282   0.074   6.059 -0.8062  0.0015 -0.4210
   23DOPE   H7X 2934   5.390   0.085   6.036 -0.5465 -0.2912  0.6095
   23DOPE   H7Y 2935   5.241  -0.024   6.026 -0.7698  0.1144 -0.8063
   23DOPE   C38 2936   5.192   0.161   5.972  0.0735 -0.0912 -0.1155
   23DOPE   H8X 2937   5.084   0.143   5.990 -0.3781  1.8799 -0.6280
   23DOPE   H8Y 2938   5.209   0.120   5.870  1.1987  0.4107 -0.1439
   23DOPE   C39 2939   5.220   0.314   5.989  0.3244  0.5536 -0.0748
   23DOPE   H9X 2940   5.260   0.340   6.088  1.5970  1.0819 -0.7062
   23DOPE  C310 2941   5.214   0.404   5.891 -0.7477  0.3759 -0.3832
   23DOPE  H10X 2942   5.241   0.506   5.924  0.4936 -0.8473  2.7645
   23DOPE  C311 2943   5.161   0.395   5.752  0.0034  0.4351 -0.7701
   23DOPE  H11X 2944   5.248   0.370   5.688 -0.7641 -0.9238 -1.3141
   23DOPE  H11Y 2945   5.085   0.315   5.741 -0.5638  1.0037 -1.1055
   23DOPE  C312 2946   5.104   0.521   5.687 -0.0000  0.5698 -0.4594
   23DOPE  H12X 2947   5.180   0.601   5.690  0.4445  0.3379 -3.2700
   23DOPE  H12Y 2948   5.024   0.568   5.749  1.0176  1.8367 -0.0693
   23DOPE  C313 2949   5.064   0.497   5.542 -0.3046  0.2229  0.2846
   23DOPE  H13X 2950   5.144   0.483   5.466 -2.5844 -0.3343 -2.1823
   23DOPE  H13Y 2951   5.003   0.404   5.530  0.0093  0.1183 -0.5013
   23DOPE  C314 2952   4.983   0.616   5.482  0.7630 -0.4673  0.1899
   23DOPE  H14X 2953   5.050   0.699   5.452  1.1389 -1.0297 -0.5714
   23DOPE  H14Y 2954   4.920   0.659   5.562  1.0478 -2.3721  1.4981
   23DOPE  C315 2955   4.911   0.576   5.349 -0.2104 -0.3803 -0.3944
   23DOPE  H15X 2956   4.839   0.493   5.361 -3.6732  2.2290 -1.6291
   23DOPE  H15Y 2957   4.989   0.542   5.277 -0.0570  0.8503 -0.8310
   23DOPE  C316 2958   4.842   0.699   5.284  0.0411  0.3029 -0.5403
   23DOPE  H16X 2959   4.905   0.789   5.269 -1.5384  1.2452 -2.0436
   23DOPE  H16Y 2960   4.760   0.718   5.357  1.5104 -0.0486  1.2634
   23DOPE  C317 2961   4.776   0.668   5.150  0.3436 -0.5076  0.3200
   23DOPE  H17X 2962   4.859   0.654   5.078 -0.4573  2.5348 -1.3660
   23DOPE  H17Y 2963   4.712   0.578   5.165  0.4337 -0.5623  0.3777
   23DOPE  C318 2964   4.689   0.781   5.105 -0.6040 -0.7121  0.2113
   23DOPE  H18X 2965   4.628   0.749   5.018  1.7071 -2.4461 -0.8793
   23DOPE  H18Y 2966   4.620   0.808   5.188 -0.6635  0.0087 -0.0626
   23DOPE  H18Z 2967   4.743   0.876   5.086  0.8801 -1.5779 -0.0700
   24DOPE     N 2968   4.957   5.625   7.035  0.0182 -0.1685 -0.0304
   24DOPE   HN1 2969   4.910   5.533   7.021 -1.4830  0.3980  1.0146
   24DOPE   HN2 2970   4.873   5.675   7.072 -0.2480 -1.3361  1.0314
   24DOPE   HN3 2971   4.989   5.670   6.947 -1.8526  0.4471 -0.4474
   24DOPE   C12 2972   5.076   5.616   7.135  0.5715 -0.6272  0.1908
   24DOPE  H12A 2973   5.026   5.567   7.221 -2.1121  0.9761 -0.3458
   24DOPE  H12B 2974   5.095   5.722   7.164 -2.4287  0.4260 -1.2577
   24DOPE   C11 2975   5.205   5.564   7.074 -0.4909 -0.4812  0.0374
   24DOPE  H11A 2976   5.193   5.457   7.047 -0.0246 -0.4394 -0.3403
   24DOPE  H11B 2977   5.287   5.555   7.148 -0.8759 -0.1546  0.5112
   24DOPE     P 2978   5.376   5.727   6.953  0.0553  0.0843 -0.1037
   24DOPE   O13 2979   5.487   5.665   7.026 -0.3520 -0.0673  0.1261
   24DOPE   O14 2980   5.345   5.865   6.977 -0.0036 -0.4745  0.0317
   24DOPE   O11 2981   5.401   5.717   6.797  0.1069 -0.4698 -0.3320
   24DOPE   O12 2982   5.248   5.650   6.972 -0.4835  0.5781  0.2231
   24DOPE    C1 2983   5.345   5.610   6.715 -0.6160 -0.2666 -0.0679
   24DOPE    HA 2984   5.255   5.559   6.755  1.6876 -4.2640  0.5064
   24DOPE    HB 2985   5.430   5.540   6.716  0.0362  0.5156  0.3507
   24DOPE    C2 2986   5.340   5.665   6.574 -0.0367 -0.2482 -0.1262
   24DOPE    HS 2987   5.279   5.602   6.506  0.8445 -0.7158 -0.5104
   24DOPE   O21 2988   5.476   5.663   6.530  0.3531  0.1680 -0.0994
   24DOPE   C21 2989   5.513   5.550   6.467 -0.5627  0.0475  0.3772
   24DOPE   O22 2990   5.436   5.459   6.435  0.2273 -0.3119 -0.0163
   24DOPE   C22 2991   5.658   5.549   6.437  0.3715 -0.1375  0.8757
   24DOPE   H2R 2992   5.668   5.472   6.357  0.0263  0.4131  0.2879
   24DOPE   H2S 2993   5.730   5.535   6.520 -0.4810  0.4595  1.7262
   24DOPE    C3 2994   5.288   5.813   6.572  0.4551  0.2691  0.1041
   24DOPE    HX 2995   5.349   5.890   6.623 -0.1261  0.5468  0.3873
   24DOPE    HY 2996   5.187   5.809   6.620 -0.1913 -1.0845 -1.2812
   24DOPE   O31 2997   5.261   5.845   6.436 -0.1088 -0.3617  0.4817
   24DOPE   C31 2998   5.350   5.918   6.364  0.1546 -0.3935  0.5044
   24DOPE   O32 2999   5.455   5.960   6.408  0.3795  0.3403  0.2549
   24DOPE   C32 3000   5.302   5.943   6.227  0.5788  0.3571 -0.3124
   24DOPE   H2X 3001   5.198   5.907   6.208  0.7533  0.6257 -1.9719
   24DOPE   H2Y 3002   5.309   6.050   6.198  1.3008  0.4734  0.2644
   24DOPE   C23 3003   5.694   5.688   6.376 -0.1930  0.0684  0.9528
   24DOPE   H3R 3004   5.717   5.767   6.450 -0.9086 -0.3693  1.6580
   24DOPE   H3S 3005   5.615   5.723   6.305  1.1980  1.3769 -0.0224
   24DOPE   C24 3006   5.824   5.680   6.282  0.2356  0.6175 -0.5028
   24DOPE   H4R 3007   5.806   5.599   6.209 -0.5321  1.4256 -1.2371
   24DOPE   H4S 3008   5.905   5.654   6.354 -0.3033 -1.1225 -0.4805
   24DOPE   C25 3009   5.857   5.813   6.216  0.1209  0.0638 -0.5408
   24DOPE   H5R 3010   5.831   5.884   6.297  0.6175 -1.8782  1.4190
   24DOPE   H5S 3011   5.782   5.826   6.134 -1.7364 -0.9114  0.9293
   24DOPE   C26 3012   5.998   5.827   6.158  0.2934 -0.1180  0.4213
   24DOPE   H6R 3013   5.998   5.923   6.102 -1.2157 -0.4143 -0.1454
   24DOPE   H6S 3014   6.021   5.743   6.090  1.0517  1.5030 -1.4235
   24DOPE   C27 3015   6.101   5.841   6.262 -0.1929  0.3165 -0.1587
   24DOPE   H7R 3016   6.091   5.751   6.327 -1.9170  0.3900 -0.2793
   24DOPE   H7S 3017   6.070   5.929   6.323 -1.3891 -0.7858  0.8850
   24DOPE   C28 3018   6.247   5.827   6.203  0.5238 -0.4190 -0.7144
   24DOPE   H8R 3019   6.248   5.726   6.155  0.0441 -1.9196  2.2117
   24DOPE   H8S 3020   6.319   5.818   6.287  1.3815  1.3740 -1.2252
   24DOPE   C29 3021   6.300   5.942   6.121  0.8385 -0.0961  0.2193
   24DOPE   H9R 3022   6.280   6.038   6.170 -0.8873  0.0502 -0.6683
   24DOPE  C210 3023   6.347   5.940   5.992  0.5963 -0.1331 -0.3023
   24DOPE  H10R 3024   6.396   6.033   5.959 -0.0718  1.7342  3.4304
   24DOPE  C211 3025   6.357   5.815   5.905  0.4121  0.6302 -0.2706
   24DOPE  H11R 3026   6.301   5.725   5.936  2.4247 -0.5357  0.1774
   24DOPE  H11S 3027   6.466   5.793   5.900  0.4756  1.1697 -2.4763
   24DOPE  C212 3028   6.331   5.854   5.762  0.2968  0.4128 -0.2101
   24DOPE  H12R 3029   6.387   5.786   5.695 -0.7246 -0.9918  0.3293
   24DOPE  H12S 3030   6.369   5.956   5.740  2.3988 -0.0283  1.0801
   24DOPE  C213 3031   6.179   5.846   5.722 -0.0499  0.1992 -0.4745
   24DOPE  H13R 3032   6.123   5.899   5.802 -0.1354 -0.3187 -0.1892
   24DOPE  H13S 3033   6.158   5.737   5.724  0.8997 -0.0392 -1.9209
   24DOPE  C214 3034   6.160   5.902   5.577 -0.0364  0.1417  0.3239
   24DOPE  H14R 3035   6.171   6.012   5.575 -2.5582  0.4479 -2.3387
   24DOPE  H14S 3036   6.055   5.880   5.548 -0.3429 -0.1482  1.5980
   24DOPE  C215 3037   6.250   5.843   5.465  0.4411  0.6675  0.5748
   24DOPE  H15R 3038   6.209   5.743   5.438  1.0632  0.1799  1.3892
   24DOPE  H15S 3039   6.357   5.839   5.492  0.0309  0.6697  2.2892
   24DOPE  C216 3040   6.234   5.924   5.334 -1.0867  0.4854  0.1318
   24DOPE  H16R 3041   6.266   6.029   5.351  1.6496  0.0644 -1.7047
   24DOPE  H16S 3042   6.129   5.914   5.301 -0.9646  1.3790 -0.5977
   24DOPE  C217 3043   6.320   5.872   5.218 -0.2012  0.0131 -0.5836
   24DOPE  H17R 3044   6.427   5.870   5.247  0.1318  0.0611 -1.7372
   24DOPE  H17S 3045   6.313   5.938   5.128  2.0621 -1.6865 -2.1039
   24DOPE  C218 3046   6.272   5.732   5.178  0.2590  0.2890  0.0606
   24DOPE  H18R 3047   6.330   5.699   5.089 -1.5766 -2.5938 -0.2055
   24DOPE  H18S 3048   6.166   5.743   5.145  0.4671  2.4534 -0.0136
   24DOPE  H18T 3049   6.295   5.658   5.258  1.8319 -1.6914 -2.1086
   24DOPE   C33 3050   5.397   5.881   6.120  0.1947  0.0930 -0.2743
   24DOPE   H3X 3051   5.361   5.778   6.102  0.2232 -0.1180  0.8501
   24DOPE   H3Y 3052   5.498   5.877   6.167 -0.9455 -3.7243  2.3290
   24DOPE   C34 3053   5.407   5.954   5.985  1.2255  0.5039  0.4418
   24DOPE   H4X 3054   5.303   5.974   5.951  1.5367 -2.2404 -2.5938
   24DOPE   H4Y 3055   5.455   6.053   6.001  1.3796  0.5318 -0.1559
   24DOPE   C35 3056   5.468   5.878   5.865 -0.2851 -0.7550 -1.0205
   24DOPE   H5X 3057   5.431   5.775   5.845 -0.3130 -1.1557  0.8691
   24DOPE   H5Y 3058   5.574   5.852   5.886 -0.3502 -0.4114 -0.2178
   24DOPE   C36 3059   5.454   5.954   5.730  0.1543  0.3339 -0.0573
   24DOPE   H6X 3060   5.350   5.983   5.701  0.8386  1.7672 -1.2200
   24DOPE   H6Y 3061   5.486   5.882   5.652 -0.7249 -1.4951  1.2026
   24DOPE   C37 3062   5.542   6.083   5.719  0.2209 -0.0569  0.3567
   24DOPE   H7X 3063   5.491   6.166   5.773 -0.5027 -0.5761  0.4853
   24DOPE   H7Y 3064   5.642   6.067   5.765  0.9611 -1.8390 -1.6575
   24DOPE   C38 3065   5.567   6.109   5.570  0.1038  0.0574  0.5710
   24DOPE   H8X 3066   5.468   6.091   5.521  0.6528  0.9578 -0.9545
   24DOPE   H8Y 3067   5.637   6.039   5.520 -0.1326  1.4681 -1.9207
   24DOPE   C39 3068   5.622   6.251   5.545 -1.0857 -0.1860 -1.2346
   24DOPE   H9X 3069   5.669   6.296   5.634 -2.2480  1.0629 -1.2178
   24DOPE  C310 3070   5.633   6.304   5.421  0.4144 -0.6410  0.0044
   24DOPE  H10X 3071   5.677   6.404   5.404  1.2937 -0.7891  1.2285
   24DOPE  C311 3072   5.582   6.237   5.299 -0.0361  0.1370  0.3897
   24DOPE  H11X 3073   5.652   6.175   5.239 -1.0139 -0.6715  0.0495
   24DOPE  H11Y 3074   5.494   6.175   5.327  0.5946 -0.8720  0.1812
   24DOPE  C312 3075   5.528   6.345   5.203  0.0920  0.4679  0.3772
   24DOPE  H12X 3076   5.613   6.407   5.169  0.3223  0.8183  1.5382
   24DOPE  H12Y 3077   5.456   6.421   5.241 -0.8747 -0.6669  0.8756
   24DOPE  C313 3078   5.463   6.295   5.075 -0.3214 -0.0874 -0.2788
   24DOPE  H13X 3079   5.543   6.257   5.007  0.4667 -0.2313  0.6987
   24DOPE  H13Y 3080   5.407   6.204   5.107  0.7326 -1.2428 -1.5813
   24DOPE  C314 3081   5.376   6.397   4.999  0.1800 -0.1250 -0.2510
   24DOPE  H14X 3082   5.448   6.475   4.966 -0.7166  0.8897  0.1163
   24DOPE  H14Y 3083   5.301   6.443   5.067 -1.3559 -1.5585 -0.8877
   24DOPE  C315 3084   5.296   6.329   4.883 -0.2106  0.8545 -0.6365
   24DOPE  H15X 3085   5.260   6.234   4.929 -1.2883  0.4554 -2.2178
   24DOPE  H15Y 3086   5.364   6.306   4.799  1.3457 -2.0756  1.2308
   24DOPE  C316 3087   5.178   6.408   4.835  0.6378 -0.2498  0.1660
   24DOPE  H16X 3088   5.204   6.510   4.800  3.9388 -1.2286 -0.5468
   24DOPE  H16Y 3089   5.114   6.423   4.925  1.1033 -1.6070  0.7493
   24DOPE  C317 3090   5.087   6.337   4.735  0.0081 -0.5223  0.0521
   24DOPE  H17X 3091   5.143   6.314   4.642 -0.8768  2.3450 -1.2850
   24DOPE  H17Y 3092   5.052   6.245   4.786  1.5222 -1.1529  0.0068
   24DOPE  C318 3093   4.977   6.430   4.687 -0.5988  0.5616  0.1962
   24DOPE  H18X 3094   4.901   6.451   4.766 -1.8488 -0.2022 -0.7537
   24DOPE  H18Y 3095   5.024   6.530   4.673  1.6304 -0.5321 -0.5040
   24DOPE  H18Z 3096   4.933   6.395   4.591  0.0161 -0.6391  0.3305
   25DOPE     N 3097   5.694   5.229   6.922  1.0511 -0.2330  0.1527
   25DOPE   HN1 3098   5.679   5.329   6.947  0.7547 -0.6731  1.8168
   25DOPE   HN2 3099   5.633   5.171   6.982  0.7340 -0.3807 -0.3069
   25DOPE   HN3 3100   5.795   5.204   6.932  1.8171  2.3343 -0.4191
   25DOPE   C12 3101   5.672   5.198   6.768 -0.2336 -0.0812 -1.1360
   25DOPE  H12A 3102   5.576   5.238   6.728  0.4812  1.5577 -1.3165
   25DOPE  H12B 3103   5.664   5.088   6.764 -0.9010 -0.2428  1.9964
   25DOPE   C11 3104   5.794   5.238   6.681 -0.4117 -0.1548  0.1743
   25DOPE  H11A 3105   5.752   5.226   6.580 -0.2733  0.2238  0.0723
   25DOPE  H11B 3106   5.881   5.171   6.699 -1.0510 -0.8034  0.9510
   25DOPE     P 3107   5.969   5.422   6.742  0.2724  0.0460  0.1366
   25DOPE   O13 3108   5.986   5.370   6.871  0.3757  0.0453  0.0194
   25DOPE   O14 3109   5.976   5.569   6.731  0.4748  0.0468  0.4946
   25DOPE   O11 3110   6.062   5.347   6.639  0.1232 -0.0279  0.0136
   25DOPE   O12 3111   5.831   5.371   6.694  0.7407 -0.3758  0.3156
   25DOPE    C1 3112   6.036   5.379   6.497  0.5918  0.1009 -0.3421
   25DOPE    HA 3113   6.060   5.487   6.485 -1.8711  0.7197 -0.2928
   25DOPE    HB 3114   5.932   5.372   6.457  1.2896 -1.4151 -2.0200
   25DOPE    C2 3115   6.120   5.281   6.410 -0.4043 -0.3770  0.1994
   25DOPE    HS 3116   6.229   5.302   6.417 -0.8364  1.5743  1.8497
   25DOPE   O21 3117   6.078   5.296   6.272 -0.0224 -0.3916  0.2230
   25DOPE   C21 3118   6.132   5.410   6.212 -0.1017  0.9374 -0.0441
   25DOPE   O22 3119   6.219   5.475   6.266  0.3366  0.0741  0.3576
   25DOPE   C22 3120   6.059   5.435   6.083  0.3454  0.1848 -0.1248
   25DOPE   H2R 3121   5.979   5.508   6.106 -1.6576 -1.9529  0.1178
   25DOPE   H2S 3122   5.999   5.344   6.061  0.8170  0.3139 -2.1308
   25DOPE    C3 3123   6.095   5.124   6.452  0.0838 -0.1015  0.0282
   25DOPE    HX 3124   5.984   5.113   6.446 -0.1114  2.1027 -1.4085
   25DOPE    HY 3125   6.126   5.102   6.556 -4.9502 -1.7443  1.4840
   25DOPE   O31 3126   6.154   5.035   6.358  0.4766 -0.4071  0.5132
   25DOPE   C31 3127   6.277   4.993   6.389  0.3870 -0.7343  0.3158
   25DOPE   O32 3128   6.337   5.009   6.494 -0.0557  0.4750  0.7326
   25DOPE   C32 3129   6.325   4.904   6.272 -0.1243  0.3522  0.3167
   25DOPE   H2X 3130   6.313   4.795   6.293 -1.9624  0.2017 -1.2467
   25DOPE   H2Y 3131   6.261   4.917   6.182 -0.0873 -1.9354 -0.1093
   25DOPE   C23 3132   6.144   5.479   5.968 -0.0216 -0.3930 -0.0873
   25DOPE   H3R 3133   6.241   5.425   5.960 -0.2470 -0.7934 -0.1397
   25DOPE   H3S 3134   6.163   5.588   5.984  0.6714 -0.5806  0.4185
   25DOPE   C24 3135   6.085   5.461   5.830  0.4185 -0.7272  0.1451
   25DOPE   H4R 3136   6.010   5.539   5.803 -0.3353 -1.2462  0.7074
   25DOPE   H4S 3137   6.031   5.366   5.810 -1.1834 -0.2312  1.8770
   25DOPE   C25 3138   6.185   5.459   5.717  0.3812  0.0867 -0.2537
   25DOPE   H5R 3139   6.256   5.374   5.714  0.8775  0.4856 -0.0660
   25DOPE   H5S 3140   6.241   5.555   5.711  0.0738  0.4555  1.9059
   25DOPE   C26 3141   6.119   5.455   5.576  0.0418  0.1741  0.1710
   25DOPE   H6R 3142   6.059   5.546   5.555  1.7891  0.9720 -1.7425
   25DOPE   H6S 3143   6.046   5.371   5.583 -0.0529  0.2438  0.0039
   25DOPE   C27 3144   6.214   5.419   5.458  0.2644 -0.1985  1.4792
   25DOPE   H7R 3145   6.258   5.319   5.478 -1.7566 -1.3899  0.2943
   25DOPE   H7S 3146   6.290   5.499   5.441 -1.1951  0.8063 -0.7464
   25DOPE   C28 3147   6.136   5.418   5.318  0.3952 -0.4680  0.7413
   25DOPE   H8R 3148   6.095   5.518   5.292  1.0285 -0.6828 -1.3104
   25DOPE   H8S 3149   6.041   5.366   5.343 -0.2588  1.6502  3.0530
   25DOPE   C29 3150   6.221   5.351   5.213 -0.8714  0.2254 -0.7867
   25DOPE   H9R 3151   6.248   5.415   5.128  1.1433 -1.3373 -1.3960
   25DOPE  C210 3152   6.249   5.221   5.200 -0.0955  0.7612  1.1616
   25DOPE  H10R 3153   6.301   5.191   5.108  0.6808 -1.1399  2.1778
   25DOPE  C211 3154   6.215   5.102   5.288  0.5334  0.1198  0.0430
   25DOPE  H11R 3155   6.155   5.132   5.377  0.9238  2.7216 -0.4761
   25DOPE  H11S 3156   6.315   5.070   5.326  0.7949 -0.4101 -1.0761
   25DOPE  C212 3157   6.162   4.979   5.204 -0.4683 -0.7562 -0.6645
   25DOPE  H12R 3158   6.232   4.945   5.125 -0.3333 -1.1041 -0.3989
   25DOPE  H12S 3159   6.067   5.016   5.159  0.1787  2.5795  0.3952
   25DOPE  C213 3160   6.141   4.857   5.286  0.0344 -0.2495 -1.0175
   25DOPE  H13R 3161   6.061   4.878   5.361  1.3211 -0.9836  0.6384
   25DOPE  H13S 3162   6.228   4.819   5.344  0.6342  1.5274 -0.6959
   25DOPE  C214 3163   6.100   4.732   5.209 -0.2872  0.9863 -1.0611
   25DOPE  H14R 3164   6.017   4.761   5.141  0.8583  0.8001 -2.5786
   25DOPE  H14S 3165   6.064   4.654   5.280  0.8836  1.5873  0.2467
   25DOPE  C215 3166   6.211   4.666   5.124  0.3008 -0.0395 -0.5714
   25DOPE  H15R 3167   6.286   4.631   5.199 -1.2753  0.2412  1.2126
   25DOPE  H15S 3168   6.257   4.733   5.048  1.0543 -1.4110 -1.3561
   25DOPE  C216 3169   6.168   4.542   5.055 -0.3460  0.8518  0.1088
   25DOPE  H16R 3170   6.132   4.466   5.128 -1.0612 -1.2353 -2.2490
   25DOPE  H16S 3171   6.253   4.492   5.003 -2.6739 -1.8273 -1.4791
   25DOPE  C217 3172   6.067   4.575   4.941 -0.1336  0.8563 -0.4701
   25DOPE  H17R 3173   6.104   4.648   4.865 -0.5951  0.9025 -0.6584
   25DOPE  H17S 3174   5.971   4.619   4.976 -0.4684  1.0561 -1.5679
   25DOPE  C218 3175   6.019   4.454   4.865 -0.3375 -0.5639  0.6416
   25DOPE  H18R 3176   5.945   4.486   4.789 -1.0262 -1.5870  0.8519
   25DOPE  H18S 3177   5.963   4.383   4.930 -1.4946 -0.3636 -0.1097
   25DOPE  H18T 3178   6.098   4.401   4.808  1.2091  0.0726  2.1029
   25DOPE   C33 3179   6.475   4.919   6.236 -0.0673  0.1376 -0.7708
   25DOPE   H3X 3180   6.495   4.864   6.141  0.8662  0.6776 -0.9060
   25DOPE   H3Y 3181   6.536   4.883   6.322  0.0592  0.0975 -0.8775
   25DOPE   C34 3182   6.503   5.067   6.204 -0.3054  0.2272 -0.3392
   25DOPE   H4X 3183   6.410   5.099   6.153 -0.3490 -0.7425 -0.8919
   25DOPE   H4Y 3184   6.526   5.123   6.298  0.5181 -1.0853  0.2705
   25DOPE   C35 3185   6.611   5.099   6.096 -0.3879  0.2263  0.5111
   25DOPE   H5X 3186   6.623   5.020   6.018 -2.2600  1.7213 -1.4046
   25DOPE   H5Y 3187   6.712   5.094   6.143 -0.2971 -1.8594  0.2102
   25DOPE   C36 3188   6.601   5.246   6.041 -0.1508  0.5057  0.9405
   25DOPE   H6X 3189   6.699   5.299   6.034  0.6891 -1.2173 -1.2144
   25DOPE   H6Y 3190   6.538   5.304   6.113  1.2798  2.6398  0.5698
   25DOPE   C37 3191   6.534   5.256   5.895 -0.0814 -0.2038  0.5736
   25DOPE   H7X 3192   6.439   5.199   5.902 -0.7863  0.7900 -0.5547
   25DOPE   H7Y 3193   6.501   5.361   5.879 -3.2512 -1.2772 -0.9059
   25DOPE   C38 3194   6.629   5.215   5.776 -0.3881 -0.5652  0.2522
   25DOPE   H8X 3195   6.630   5.104   5.775 -1.9483 -0.6182  0.9868
   25DOPE   H8Y 3196   6.730   5.255   5.798 -0.4455 -0.2358 -0.0777
   25DOPE   C39 3197   6.579   5.281   5.649 -0.7348 -0.2264 -0.3369
   25DOPE   H9X 3198   6.550   5.386   5.666  1.0673  0.1850  0.4706
   25DOPE  C310 3199   6.560   5.240   5.525  0.7316  0.1462 -0.3702
   25DOPE  H10X 3200   6.531   5.316   5.450 -1.6696 -0.9052 -0.5948
   25DOPE  C311 3201   6.608   5.108   5.466 -0.7721 -0.0148 -0.5838
   25DOPE  H11X 3202   6.653   5.034   5.536  0.2287  0.7618 -0.3848
   25DOPE  H11Y 3203   6.523   5.047   5.429 -0.1823 -0.0662 -1.9137
   25DOPE  C312 3204   6.718   5.129   5.357 -0.4034  0.0915  0.2579
   25DOPE  H12X 3205   6.701   5.215   5.288  0.5453  0.8445  0.9528
   25DOPE  H12Y 3206   6.721   5.032   5.302 -0.9868 -0.3936  1.0726
   25DOPE  C313 3207   6.853   5.155   5.424 -0.6442 -0.3156 -0.1638
   25DOPE  H13X 3208   6.837   5.232   5.503 -1.4313 -2.0475  1.4643
   25DOPE  H13Y 3209   6.882   5.069   5.488  0.7779 -0.1400 -0.5393
   25DOPE  C314 3210   6.976   5.191   5.338 -0.1830  0.7533 -0.1149
   25DOPE  H14X 3211   6.950   5.157   5.235 -1.3324  0.1278  0.3637
   25DOPE  H14Y 3212   7.074   5.145   5.363 -0.6904  0.0845  0.6786
   25DOPE  C315 3213   6.990   5.342   5.331  0.1834 -0.2101 -0.1752
   25DOPE  H15X 3214   6.983   5.378   5.436  2.4837 -0.9063  0.2740
   25DOPE  H15Y 3215   6.909   5.390   5.272  0.7051  2.0507  0.8282
   25DOPE  C316 3216   7.132   5.393   5.274  0.0966 -0.7690 -0.1052
   25DOPE  H16X 3217   7.211   5.329   5.319  0.8807  1.1545  1.4336
   25DOPE  H16Y 3218   7.153   5.499   5.300 -0.1393 -0.9159  0.7286
   25DOPE  C317 3219   7.125   5.382   5.123 -0.0958  0.2530  0.3656
   25DOPE  H17X 3220   7.056   5.298   5.099 -1.5686  1.0722  1.5504
   25DOPE  H17Y 3221   7.069   5.472   5.091 -0.2094  1.0199  2.5747
   25DOPE  C318 3222   7.256   5.351   5.046 -0.0326  0.3695 -0.1027
   25DOPE  H18X 3223   7.311   5.258   5.070 -0.3024  0.2186 -0.0602
   25DOPE  H18Y 3224   7.246   5.355   4.935 -1.7508  1.4405  0.0456
   25DOPE  H18Z 3225   7.321   5.439   5.065 -0.0412  0.6129 -1.1585
   26DOPE     N 3226   1.330   5.370   7.116 -0.3511  0.3235  0.0534
   26DOPE   HN1 3227   1.412   5.372   7.180 -0.6535 -0.3280  0.4722
   26DOPE   HN2 3228   1.269   5.454   7.131 -1.6236 -0.6379  0.5045
   26DOPE   HN3 3229   1.278   5.282   7.135  1.5942 -1.0153 -0.5274
   26DOPE   C12 3230   1.375   5.376   6.975 -0.3481 -0.6133 -0.4690
   26DOPE  H12A 3231   1.426   5.278   6.962 -0.1272 -0.7525  1.1713
   26DOPE  H12B 3232   1.444   5.462   6.959 -0.3679 -1.0655 -3.6798
   26DOPE   C11 3233   1.272   5.401   6.869  0.4189 -0.3345  0.5237
   26DOPE  H11A 3234   1.228   5.301   6.846 -1.0547  0.1362  1.1826
   26DOPE  H11B 3235   1.321   5.445   6.780  0.2212 -1.5806 -0.2172
   26DOPE     P 3236   1.015   5.471   6.901  0.2323  0.1368 -0.0151
   26DOPE   O13 3237   0.939   5.586   6.946 -0.3543 -0.1070 -0.2249
   26DOPE   O14 3238   0.980   5.338   6.956 -0.4478 -0.2301  0.1497
   26DOPE   O11 3239   1.013   5.461   6.749 -0.2954 -0.2307  0.1348
   26DOPE   O12 3240   1.172   5.495   6.919  0.0919  0.0929 -0.0322
   26DOPE    C1 3241   1.083   5.548   6.661 -0.2953 -0.2884 -0.0626
   26DOPE    HA 3242   1.189   5.519   6.653  0.4173  1.1237  2.9340
   26DOPE    HB 3243   1.076   5.650   6.705 -1.7817 -0.0294 -0.8140
   26DOPE    C2 3244   1.019   5.532   6.522  0.0998  0.5879 -0.1556
   26DOPE    HS 3245   1.017   5.422   6.504 -1.3572  0.6499 -0.4618
   26DOPE   O21 3246   1.094   5.608   6.424  0.4210 -0.7821 -0.4904
   26DOPE   C21 3247   1.216   5.558   6.388  0.4270  0.2518  0.4821
   26DOPE   O22 3248   1.253   5.447   6.418 -1.1711  0.6159 -0.7379
   26DOPE   C22 3249   1.280   5.659   6.295  0.2455  0.0788  0.0544
   26DOPE   H2R 3250   1.317   5.736   6.366  2.4204  1.8155 -2.7481
   26DOPE   H2S 3251   1.201   5.705   6.232 -1.1562 -0.4323  1.4086
   26DOPE    C3 3252   0.873   5.588   6.519 -0.1633 -0.4920  0.6858
   26DOPE    HX 3253   0.864   5.694   6.552  0.4128 -1.3301  3.8630
   26DOPE    HY 3254   0.810   5.534   6.593  0.4194 -2.5585 -0.2799
   26DOPE   O31 3255   0.811   5.570   6.395 -0.1501 -0.2093 -0.3327
   26DOPE   C31 3256   0.821   5.672   6.303  0.6872  0.0820  0.3623
   26DOPE   O32 3257   0.884   5.773   6.325 -0.5092  0.3995 -0.1487
   26DOPE   C32 3258   0.724   5.633   6.181  0.2777  0.2065 -0.0008
   26DOPE   H2X 3259   0.732   5.525   6.158 -0.6965 -0.4425  2.3900
   26DOPE   H2Y 3260   0.623   5.655   6.221  0.5071  1.8499 -0.2296
   26DOPE   C23 3261   1.406   5.607   6.222 -0.0815  0.3663  0.1932
   26DOPE   H3R 3262   1.376   5.510   6.175 -2.6899  1.4147 -0.4869
   26DOPE   H3S 3263   1.485   5.579   6.295  0.5114  0.1242 -0.5324
   26DOPE   C24 3264   1.466   5.698   6.117 -0.3353 -0.4962  0.2200
   26DOPE   H4R 3265   1.574   5.678   6.106 -0.6957 -1.1781 -2.8283
   26DOPE   H4S 3266   1.457   5.802   6.154 -0.3870 -0.6793  0.7378
   26DOPE   C25 3267   1.397   5.691   5.977 -0.0916 -0.8470 -0.7940
   26DOPE   H5R 3268   1.289   5.720   5.977  0.0617 -0.2219  0.1376
   26DOPE   H5S 3269   1.393   5.585   5.945 -0.4263 -1.1427  0.1964
   26DOPE   C26 3270   1.475   5.772   5.864  0.1350 -0.0554  0.1069
   26DOPE   H6R 3271   1.578   5.733   5.854  0.5408  1.3022 -1.2873
   26DOPE   H6S 3272   1.470   5.877   5.898 -0.0927 -0.3315  0.9535
   26DOPE   C27 3273   1.397   5.763   5.732  1.0109  0.1027  0.1260
   26DOPE   H7R 3274   1.292   5.794   5.750 -0.1376 -2.5932 -1.4027
   26DOPE   H7S 3275   1.398   5.658   5.695 -2.6581  0.0502 -0.1897
   26DOPE   C28 3276   1.442   5.863   5.625  0.6316  0.4522 -0.8514
   26DOPE   H8R 3277   1.445   5.966   5.668 -0.4241  0.2759 -0.3284
   26DOPE   H8S 3278   1.361   5.875   5.550 -1.8130 -0.5966  1.4550
   26DOPE   C29 3279   1.580   5.827   5.567  0.4572 -0.6223 -0.7584
   26DOPE   H9R 3280   1.628   5.737   5.608 -0.1776 -0.8939 -0.6002
   26DOPE  C210 3281   1.621   5.861   5.445  0.6096  0.5712 -0.4189
   26DOPE  H10R 3282   1.721   5.824   5.420  0.3098 -2.3751  2.0816
   26DOPE  C211 3283   1.556   5.960   5.357  0.8044  0.3684 -0.3126
   26DOPE  H11R 3284   1.634   6.037   5.344  2.1251 -0.1372  3.4033
   26DOPE  H11S 3285   1.466   6.008   5.400  0.4426 -0.2146 -0.4043
   26DOPE  C212 3286   1.512   5.894   5.230 -0.1467  0.2858 -0.1239
   26DOPE  H12R 3287   1.586   5.832   5.176  0.0875  1.8799 -1.7464
   26DOPE  H12S 3288   1.496   5.977   5.157  0.9466 -0.4033 -1.1868
   26DOPE  C213 3289   1.379   5.814   5.240  0.1076 -0.0604  0.2289
   26DOPE  H13R 3290   1.304   5.848   5.315 -0.7226  2.5887 -1.6551
   26DOPE  H13S 3291   1.402   5.718   5.291 -1.7950  0.7284  2.7885
   26DOPE  C214 3292   1.312   5.786   5.100 -0.1248  0.2032  0.2866
   26DOPE  H14R 3293   1.229   5.713   5.112 -0.7690  0.8533 -0.1645
   26DOPE  H14S 3294   1.385   5.734   5.034 -0.8363  0.7033 -0.9235
   26DOPE  C215 3295   1.263   5.916   5.040 -0.9339  0.6189  1.0735
   26DOPE  H15R 3296   1.348   5.958   4.983 -1.4417 -1.8197 -1.7529
   26DOPE  H15S 3297   1.232   5.982   5.123 -0.0225  2.1409  0.2443
   26DOPE  C216 3298   1.153   5.899   4.932  0.2717 -1.0706 -0.1222
   26DOPE  H16R 3299   1.130   5.998   4.888  1.4351 -1.2793 -1.2626
   26DOPE  H16S 3300   1.056   5.861   4.971 -0.0649 -0.3797 -0.2724
   26DOPE  C217 3301   1.198   5.815   4.809  0.6596 -0.0715  0.1264
   26DOPE  H17R 3302   1.254   5.729   4.851  0.4795 -0.1678  0.1711
   26DOPE  H17S 3303   1.263   5.868   4.736 -0.8566  0.6607 -0.7525
   26DOPE  C218 3304   1.074   5.772   4.727 -0.1144  0.6103 -0.7352
   26DOPE  H18R 3305   0.980   5.763   4.785 -1.6556  3.5652 -2.5717
   26DOPE  H18S 3306   1.099   5.676   4.677  2.4886  0.3642  0.8334
   26DOPE  H18T 3307   1.059   5.851   4.651 -0.5465 -0.6136 -1.9641
   26DOPE   C33 3308   0.755   5.715   6.058  0.1808 -0.0987 -0.2502
   26DOPE   H3X 3309   0.848   5.673   6.014 -0.1081 -0.1107 -0.8469
   26DOPE   H3Y 3310   0.771   5.823   6.079 -1.3774  0.2343 -0.7108
   26DOPE   C34 3311   0.636   5.709   5.961  0.6570 -0.1883  0.2953
   26DOPE   H4X 3312   0.598   5.605   5.966 -0.4220  0.0791 -1.4317
   26DOPE   H4Y 3313   0.553   5.767   6.008  1.8016  0.1913  1.9200
   26DOPE   C35 3314   0.651   5.769   5.821  0.3577 -0.2668  0.0565
   26DOPE   H5X 3315   0.696   5.696   5.750 -0.0883  0.7737 -1.3361
   26DOPE   H5Y 3316   0.715   5.858   5.837  0.2665 -0.2194  0.1584
   26DOPE   C36 3317   0.520   5.814   5.760  0.5144  0.2092  0.3268
   26DOPE   H6X 3318   0.469   5.894   5.817  1.4062  0.9121  0.1583
   26DOPE   H6Y 3319   0.448   5.729   5.752  1.0052 -0.1340 -0.6169
   26DOPE   C37 3320   0.534   5.869   5.617 -0.2086 -0.3087 -0.3306
   26DOPE   H7X 3321   0.610   5.949   5.599  1.2662 -2.0553 -2.3732
   26DOPE   H7Y 3322   0.584   5.793   5.553  2.5521  2.6763 -2.0351
   26DOPE   C38 3323   0.399   5.900   5.549 -0.2199  0.2495 -0.5084
   26DOPE   H8X 3324   0.367   5.987   5.610  2.6765  0.2076  1.2301
   26DOPE   H8Y 3325   0.320   5.823   5.559  1.4301 -1.2600  1.7292
   26DOPE   C39 3326   0.419   5.927   5.402  0.0849  0.2891  0.0686
   26DOPE   H9X 3327   0.507   5.991   5.385  0.9691 -0.4139  1.7882
   26DOPE  C310 3328   0.346   5.881   5.302 -0.0930  0.2460  0.2540
   26DOPE  H10X 3329   0.385   5.912   5.204  1.1736  0.6243  0.8574
   26DOPE  C311 3330   0.227   5.788   5.308 -0.0877  0.3006  0.1324
   26DOPE  H11X 3331   0.183   5.788   5.410  0.6550  1.4615  0.4698
   26DOPE  H11Y 3332   0.153   5.820   5.232  0.3398  3.7224  0.9754
   26DOPE  C312 3333   0.253   5.636   5.277 -0.3959 -0.9108 -0.3659
   26DOPE  H12X 3334   0.327   5.634   5.194 -0.9078  1.7519 -0.9572
   26DOPE  H12Y 3335   0.153   5.603   5.240 -0.8074  0.1658 -0.2226
   26DOPE  C313 3336   0.298   5.558   5.398  0.6379  0.4010 -0.4445
   26DOPE  H13X 3337   0.371   5.614   5.461 -0.1244  1.7375 -0.7048
   26DOPE  H13Y 3338   0.209   5.547   5.464  0.6381 -0.6344 -0.6019
   26DOPE  C314 3339   0.368   5.427   5.365  0.3030  0.8321  0.1558
   26DOPE  H14X 3340   0.457   5.451   5.303  0.6038 -1.3365 -0.3516
   26DOPE  H14Y 3341   0.307   5.354   5.307 -2.2065  2.7110  0.2716
   26DOPE  C315 3342   0.413   5.347   5.492  0.3105 -0.8038 -0.2991
   26DOPE  H15X 3343   0.458   5.416   5.567 -0.5357 -0.8098  0.2339
   26DOPE  H15Y 3344   0.484   5.265   5.468 -0.6327 -1.7826  0.1720
   26DOPE  C316 3345   0.296   5.290   5.570  0.7384  0.5651 -0.1835
   26DOPE  H16X 3346   0.263   5.194   5.524 -1.3370  1.5240 -0.8120
   26DOPE  H16Y 3347   0.213   5.360   5.588 -1.0074 -1.5802  0.5861
   26DOPE  C317 3348   0.325   5.260   5.714  0.3756  0.1834 -0.0954
   26DOPE  H17X 3349   0.408   5.185   5.711  1.8573  1.7969 -1.0380
   26DOPE  H17Y 3350   0.362   5.345   5.775  0.7691  0.3775 -0.6041
   26DOPE  C318 3351   0.193   5.205   5.785 -0.5365  0.2879 -0.3787
   26DOPE  H18X 3352   0.161   5.109   5.739 -0.8235  0.6104 -0.8631
   26DOPE  H18Y 3353   0.236   5.182   5.885  1.6419 -0.4211 -1.4213
   26DOPE  H18Z 3354   0.111   5.275   5.811  0.0956  0.5249  1.0676
   27DOPE     N 3355   6.256   6.361   6.971 -0.2656 -0.0137  0.4581
   27DOPE   HN1 3356   6.258   6.358   7.075  0.2430 -0.0352  0.4527
   27DOPE   HN2 3357   6.174   6.309   6.935  0.8578 -1.3306 -0.3429
   27DOPE   HN3 3358   6.345   6.328   6.929  1.1425  3.5749  0.2005
   27DOPE   C12 3359   6.239   6.506   6.924 -0.7943  0.3341  0.2200
   27DOPE  H12A 3360   6.225   6.501   6.814 -0.5508 -4.3744  0.1727
   27DOPE  H12B 3361   6.335   6.561   6.937  0.1044 -0.8471 -1.0932
   27DOPE   C11 3362   6.129   6.589   6.992 -0.7172  0.0786 -0.0439
   27DOPE  H11A 3363   6.127   6.693   6.950  0.6445  0.2670  0.2967
   27DOPE  H11B 3364   6.170   6.592   7.095  1.7127 -0.0990 -0.9374
   27DOPE     P 3365   5.900   6.552   6.882 -0.0676  0.3204  0.1609
   27DOPE   O13 3366   5.826   6.677   6.910 -0.0244  0.2969  0.2190
   27DOPE   O14 3367   5.817   6.429   6.866  0.2553  0.1020  0.4105
   27DOPE   O11 3368   5.997   6.561   6.759 -0.5022 -0.0605 -0.0167
   27DOPE   O12 3369   6.004   6.528   6.999 -0.6600  0.4070  0.6597
   27DOPE    C1 3370   6.016   6.695   6.704 -0.1847 -0.4940 -0.4566
   27DOPE    HA 3371   6.109   6.707   6.644 -1.1794 -1.1686 -2.1986
   27DOPE    HB 3372   6.021   6.773   6.783 -0.3486  0.2711 -1.1756
   27DOPE    C2 3373   5.899   6.737   6.616 -0.1770  0.3794  0.0944
   27DOPE    HS 3374   5.813   6.754   6.684  1.1193  2.1509  1.3824
   27DOPE   O21 3375   5.893   6.634   6.517  0.0380 -0.1576  0.4853
   27DOPE   C21 3376   5.773   6.602   6.461  0.4659 -0.2665  0.1940
   27DOPE   O22 3377   5.672   6.660   6.494 -0.1691  0.1994 -0.4347
   27DOPE   C22 3378   5.790   6.488   6.358  0.4338 -0.4429 -0.1573
   27DOPE   H2R 3379   5.861   6.412   6.397 -1.7619 -2.2686  0.5458
   27DOPE   H2S 3380   5.838   6.531   6.267  0.5586 -0.2749 -0.0120
   27DOPE    C3 3381   5.925   6.876   6.548  0.3651  0.1036 -0.9131
   27DOPE    HX 3382   6.024   6.853   6.504  0.4272  0.7548 -1.1215
   27DOPE    HY 3383   5.941   6.952   6.627  0.8502 -0.1518 -0.7549
   27DOPE   O31 3384   5.836   6.922   6.446  0.1972 -0.0189 -0.4171
   27DOPE   C31 3385   5.733   6.997   6.489  0.5448 -0.0747  1.1320
   27DOPE   O32 3386   5.703   7.015   6.605 -0.2374 -0.0440  0.1156
   27DOPE   C32 3387   5.672   7.053   6.364  1.0086  0.0102 -0.4726
   27DOPE   H2X 3388   5.683   6.970   6.291 -0.2916 -0.5672 -0.0480
   27DOPE   H2Y 3389   5.562   7.063   6.377  1.0849 -0.4146  0.6008
   27DOPE   C23 3390   5.661   6.405   6.322 -0.1211 -0.6634  0.5239
   27DOPE   H3R 3391   5.611   6.369   6.415 -1.3757  0.5146  0.3502
   27DOPE   H3S 3392   5.701   6.314   6.273 -0.4313  0.2893 -1.5770
   27DOPE   C24 3393   5.566   6.468   6.227 -0.2893 -0.1500  0.2279
   27DOPE   H4R 3394   5.622   6.486   6.133  0.7655 -1.3958  0.5872
   27DOPE   H4S 3395   5.530   6.568   6.261  0.2252  0.3246 -0.5799
   27DOPE   C25 3396   5.439   6.380   6.206 -0.7454 -0.5135 -0.0748
   27DOPE   H5R 3397   5.372   6.380   6.294  0.0880 -0.7883  0.5738
   27DOPE   H5S 3398   5.481   6.279   6.186 -1.6335 -1.1424  1.1615
   27DOPE   C26 3399   5.366   6.427   6.086  0.5426 -0.1677  0.2865
   27DOPE   H6R 3400   5.424   6.419   5.992  1.1747  0.3783  0.6229
   27DOPE   H6S 3401   5.334   6.531   6.106 -0.0532 -0.2529 -0.2068
   27DOPE   C27 3402   5.235   6.345   6.064 -0.1126  0.2574 -0.3493
   27DOPE   H7R 3403   5.159   6.379   6.137 -0.0166 -1.0020  0.3623
   27DOPE   H7S 3404   5.259   6.237   6.061  0.3287  0.3565 -0.4569
   27DOPE   C28 3405   5.172   6.397   5.935 -0.0015 -0.2873 -0.4629
   27DOPE   H8R 3406   5.157   6.507   5.933  1.1432 -0.1371 -1.2388
   27DOPE   H8S 3407   5.064   6.370   5.932 -0.1251  0.2284 -2.2078
   27DOPE   C29 3408   5.241   6.348   5.811  0.6748 -0.3595  0.0868
   27DOPE   H9R 3409   5.288   6.249   5.815  1.8833  0.1936  0.1114
   27DOPE  C210 3410   5.281   6.420   5.703  0.3579  0.7713  0.2779
   27DOPE  H10R 3411   5.333   6.376   5.617 -0.8230  1.0377 -0.5940
   27DOPE  C211 3412   5.258   6.567   5.692 -0.2281 -0.1120  0.1694
   27DOPE  H11R 3413   5.342   6.626   5.735 -0.8703  1.0345 -0.1222
   27DOPE  H11S 3414   5.163   6.598   5.741 -0.6777 -0.9571 -0.1475
   27DOPE  C212 3415   5.237   6.610   5.537 -0.0354  0.7955 -0.5895
   27DOPE  H12R 3416   5.168   6.542   5.481  0.3759 -1.3094  1.3137
   27DOPE  H12S 3417   5.327   6.602   5.473 -0.5006  0.2468 -1.1934
   27DOPE  C213 3418   5.182   6.751   5.529  0.5298 -0.3452 -0.6534
   27DOPE  H13R 3419   5.268   6.816   5.554  0.7018 -0.8582  0.0953
   27DOPE  H13S 3420   5.112   6.770   5.614 -1.2020  0.0407 -2.0934
   27DOPE  C214 3421   5.115   6.794   5.396  0.3004 -0.0178 -0.0624
   27DOPE  H14R 3422   5.013   6.749   5.404  1.4970 -2.9678 -0.1606
   27DOPE  H14S 3423   5.157   6.730   5.316  0.2008  1.2761 -1.1881
   27DOPE  C215 3424   5.116   6.944   5.380 -0.3215  0.0107  0.1636
   27DOPE  H15R 3425   5.217   6.986   5.362 -0.3301 -0.5010 -1.1160
   27DOPE  H15S 3426   5.083   6.998   5.472  0.3596 -0.9325  0.9773
   27DOPE  C216 3427   5.039   6.978   5.249 -0.2133 -0.1753  0.7842
   27DOPE  H16R 3428   4.933   6.947   5.260 -0.7302  1.3075  0.2093
   27DOPE  H16S 3429   5.079   6.925   5.160 -0.1789 -3.3572  2.5601
   27DOPE  C217 3430   5.038   7.123   5.219  0.0483 -0.5628 -0.0594
   27DOPE  H17R 3431   5.138   7.158   5.186  0.0671  0.0084  0.5794
   27DOPE  H17S 3432   5.005   7.180   5.309 -2.1846  0.3186 -1.3521
   27DOPE  C218 3433   4.949   7.162   5.103 -0.6752  0.0444  0.5659
   27DOPE  H18R 3434   4.962   7.265   5.066 -0.1276  0.0213  0.6877
   27DOPE  H18S 3435   4.841   7.154   5.131 -0.2146 -0.9420  2.2124
   27DOPE  H18T 3436   4.971   7.101   5.013 -0.1745  1.2131 -0.1177
   27DOPE   C33 3437   5.756   7.172   6.299  0.2658 -0.6133 -0.6389
   27DOPE   H3X 3438   5.846   7.129   6.251  1.4015  0.4209  0.5134
   27DOPE   H3Y 3439   5.788   7.239   6.382  0.3089 -1.3169 -0.0765
   27DOPE   C34 3440   5.681   7.243   6.183 -0.5927  0.2498 -0.0938
   27DOPE   H4X 3441   5.582   7.287   6.208 -0.3255  0.9850 -0.2788
   27DOPE   H4Y 3442   5.743   7.327   6.143  1.3088 -2.2387 -2.8247
   27DOPE   C35 3443   5.661   7.154   6.058 -0.0511 -0.0193 -0.8383
   27DOPE   H5X 3444   5.587   7.077   6.087  0.4243 -0.4555 -0.7872
   27DOPE   H5Y 3445   5.754   7.103   6.028  0.9187  1.0431  0.2488
   27DOPE   C36 3446   5.621   7.242   5.941 -0.3496  0.0245  0.1194
   27DOPE   H6X 3447   5.697   7.319   5.914  1.4145 -1.6064  0.2563
   27DOPE   H6Y 3448   5.532   7.294   5.982 -0.5219 -1.9557  2.4815
   27DOPE   C37 3449   5.578   7.165   5.812 -0.3488 -0.1738 -0.9163
   27DOPE   H7X 3450   5.648   7.082   5.790  0.1746 -1.1333  3.4541
   27DOPE   H7Y 3451   5.477   7.125   5.833 -1.0061  2.8293  2.9927
   27DOPE   C38 3452   5.559   7.253   5.681 -0.5535  0.1626 -0.2581
   27DOPE   H8X 3453   5.657   7.256   5.629 -0.1559  1.1359  0.5206
   27DOPE   H8Y 3454   5.531   7.359   5.701 -0.6717  0.0224  0.3507
   27DOPE   C39 3455   5.461   7.180   5.588 -0.0721  0.2094 -0.8960
   27DOPE   H9X 3456   5.483   7.075   5.565  0.0169  0.0908 -0.2953
   27DOPE  C310 3457   5.344   7.236   5.544  0.1513  0.4638  0.0501
   27DOPE  H10X 3458   5.280   7.191   5.466 -0.2575  2.4670 -0.8383
   27DOPE  C311 3459   5.309   7.380   5.571  1.0311 -0.1406  0.2225
   27DOPE  H11X 3460   5.284   7.391   5.679  0.6643 -0.9759  0.2274
   27DOPE  H11Y 3461   5.405   7.430   5.545  0.7992  0.6172  0.7828
   27DOPE  C312 3462   5.197   7.443   5.487 -0.5838 -0.4835  0.0972
   27DOPE  H12X 3463   5.214   7.422   5.380  1.0766 -0.5097  0.3450
   27DOPE  H12Y 3464   5.209   7.553   5.499 -0.3641 -0.4507 -0.3853
   27DOPE  C313 3465   5.061   7.403   5.517  0.1716  0.2210  0.3346
   27DOPE  H13X 3466   5.053   7.297   5.486  1.3322  0.1098  0.3948
   27DOPE  H13Y 3467   5.046   7.410   5.627 -1.4655 -0.5830  0.2007
   27DOPE  C314 3468   4.954   7.486   5.443 -0.5162 -0.3391  0.0592
   27DOPE  H14X 3469   4.957   7.593   5.473 -2.2645 -0.1120 -0.4844
   27DOPE  H14Y 3470   4.852   7.450   5.468 -0.0300 -0.5862  1.8239
   27DOPE  C315 3471   4.970   7.485   5.286 -0.0007  0.3437 -0.2916
   27DOPE  H15X 3472   4.925   7.390   5.253  0.2041  0.7559 -1.8409
   27DOPE  H15Y 3473   5.077   7.495   5.258 -0.0988  0.7597 -0.5403
   27DOPE  C316 3474   4.881   7.595   5.225  0.4870 -0.9839  0.2638
   27DOPE  H16X 3475   4.904   7.701   5.250  0.9573 -0.7554 -1.0557
   27DOPE  H16Y 3476   4.781   7.579   5.269  0.2550  0.1247  0.1720
   27DOPE  C317 3477   4.861   7.571   5.075  0.3813  0.1257  0.1621
   27DOPE  H17X 3478   4.949   7.584   5.009  0.0602  1.6544  0.0019
   27DOPE  H17Y 3479   4.832   7.466   5.052  1.9317 -0.0591 -1.1905
   27DOPE  C318 3480   4.751   7.655   5.015  0.3147 -0.0748  0.5399
   27DOPE  H18X 3481   4.751   7.646   4.904  0.7514 -0.7904  0.5893
   27DOPE  H18Y 3482   4.652   7.616   5.045  0.3898 -0.3909  0.3849
   27DOPE  H18Z 3483   4.754   7.761   5.049 -1.2936  0.0828  0.2535
   28DOPE     N 3484   7.226   5.879   6.754  0.0960  0.2746 -0.4291
   28DOPE   HN1 3485   7.175   5.964   6.721  1.8701  0.5201 -2.7718
   28DOPE   HN2 3486   7.182   5.854   6.845 -2.6275 -0.6310 -1.8609
   28DOPE   HN3 3487   7.322   5.914   6.771  0.1099 -0.2732  0.7147
   28DOPE   C12 3488   7.237   5.767   6.647  0.1370 -0.0087  0.0599
   28DOPE  H12A 3489   7.289   5.679   6.691  0.4185 -0.4190 -1.0720
   28DOPE  H12B 3490   7.308   5.803   6.570  0.9318  2.2874  1.7510
   28DOPE   C11 3491   7.102   5.726   6.586 -0.0433  0.2066  0.1313
   28DOPE  H11A 3492   7.136   5.656   6.507 -1.3918 -0.5587  0.1958
   28DOPE  H11B 3493   7.043   5.798   6.526 -0.1072 -0.0265 -0.0870
   28DOPE     P 3494   6.877   5.720   6.722  0.3433  0.1650 -0.5652
   28DOPE   O13 3495   6.899   5.830   6.817 -1.1316 -0.1759  0.1344
   28DOPE   O14 3496   6.781   5.618   6.770 -0.2961  0.7340 -0.2634
   28DOPE   O11 3497   6.814   5.783   6.590 -0.3025  0.1939  0.1090
   28DOPE   O12 3498   7.018   5.657   6.678  0.3984 -0.0509  0.3601
   28DOPE    C1 3499   6.788   5.694   6.483 -0.0272 -0.1696 -0.2114
   28DOPE    HA 3500   6.683   5.661   6.499  0.2111 -0.7688  0.1516
   28DOPE    HB 3501   6.847   5.600   6.488 -0.5948 -0.4696  2.9494
   28DOPE    C2 3502   6.795   5.754   6.342 -0.0601 -0.2843 -0.2546
   28DOPE    HS 3503   6.903   5.754   6.314 -0.1551 -2.0319 -0.7213
   28DOPE   O21 3504   6.727   5.880   6.334  0.2076  0.3553 -0.2990
   28DOPE   C21 3505   6.814   5.990   6.348 -0.0663 -0.9330  0.5765
   28DOPE   O22 3506   6.931   5.986   6.361 -0.1607  0.0927 -0.1293
   28DOPE   C22 3507   6.738   6.123   6.325 -0.0701 -0.1576 -0.2628
   28DOPE   H2R 3508   6.727   6.191   6.413 -2.2907 -0.5409 -0.1964
   28DOPE   H2S 3509   6.635   6.097   6.293  0.5926 -2.0350 -0.9885
   28DOPE    C3 3510   6.723   5.653   6.249 -0.1259  0.1408 -0.4363
   28DOPE    HX 3511   6.615   5.653   6.274  0.0177  1.9948  0.3460
   28DOPE    HY 3512   6.756   5.552   6.281 -2.1142 -0.0004  1.3567
   28DOPE   O31 3513   6.758   5.677   6.106 -0.1020 -0.4171  0.2953
   28DOPE   C31 3514   6.868   5.611   6.065  0.0297 -0.0165  0.6797
   28DOPE   O32 3515   6.935   5.542   6.138 -0.5251 -0.4385 -0.9790
   28DOPE   C32 3516   6.894   5.625   5.913 -0.3013 -0.0227 -0.1969
   28DOPE   H2X 3517   6.970   5.706   5.909  2.1372 -2.1607  0.1316
   28DOPE   H2Y 3518   6.939   5.530   5.876 -2.2193 -0.7294 -0.8434
   28DOPE   C23 3519   6.795   6.219   6.207  0.4402 -0.1073  0.7628
   28DOPE   H3R 3520   6.896   6.233   6.253  0.6390 -2.2774  1.1129
   28DOPE   H3S 3521   6.746   6.318   6.211  1.4147  0.3777  0.9609
   28DOPE   C24 3522   6.815   6.146   6.072 -0.6087 -0.6307  0.1411
   28DOPE   H4R 3523   6.875   6.053   6.080  2.8070  1.1001 -2.4698
   28DOPE   H4S 3524   6.869   6.211   5.999 -0.0145 -1.2267  0.0406
   28DOPE   C25 3525   6.680   6.108   6.000 -0.5813  0.2375  0.4602
   28DOPE   H5R 3526   6.601   6.061   6.061 -0.8323  1.6320  1.2561
   28DOPE   H5S 3527   6.713   6.037   5.921  1.2716 -1.2308  2.4287
   28DOPE   C26 3528   6.612   6.222   5.918  0.4230 -0.4284 -0.2234
   28DOPE   H6R 3529   6.688   6.303   5.920 -0.3654  0.3306 -0.2582
   28DOPE   H6S 3530   6.521   6.251   5.975  0.6895 -2.8550  1.5720
   28DOPE   C27 3531   6.583   6.180   5.772  0.3552 -0.0592  0.7335
   28DOPE   H7R 3532   6.530   6.083   5.767 -0.4622  0.4269 -0.5565
   28DOPE   H7S 3533   6.676   6.165   5.714  0.9595  0.1397  1.6317
   28DOPE   C28 3534   6.507   6.295   5.699  0.1539 -0.0061  0.1962
   28DOPE   H8R 3535   6.581   6.376   5.683 -1.1213  0.9519 -1.1066
   28DOPE   H8S 3536   6.423   6.329   5.763  1.4439  2.8766  0.5189
   28DOPE   C29 3537   6.446   6.242   5.567 -0.0394 -0.7830 -0.8362
   28DOPE   H9R 3538   6.397   6.144   5.579  0.2840 -0.7441  1.0285
   28DOPE  C210 3539   6.489   6.275   5.445 -0.5379  0.2144  1.3451
   28DOPE  H10R 3540   6.451   6.212   5.363  1.9225 -1.5138  1.4056
   28DOPE  C211 3541   6.588   6.380   5.401 -0.1252 -0.7177 -0.4284
   28DOPE  H11R 3542   6.622   6.445   5.485 -1.6968 -0.3537 -0.0412
   28DOPE  H11S 3543   6.545   6.440   5.317  0.0454  0.3843  0.2485
   28DOPE  C212 3544   6.719   6.309   5.355 -0.3583  0.3978  0.4700
   28DOPE  H12R 3545   6.699   6.243   5.267  2.8784 -1.6069  1.0588
   28DOPE  H12S 3546   6.737   6.237   5.438 -2.6628  0.8765  1.4576
   28DOPE  C213 3547   6.853   6.389   5.341  0.2847 -0.7948  0.2514
   28DOPE  H13R 3548   6.886   6.417   5.444  0.4946 -0.5698  0.1238
   28DOPE  H13S 3549   6.847   6.484   5.284  1.0358 -1.0058 -0.1862
   28DOPE  C214 3550   6.968   6.310   5.276  0.7479 -0.0411  0.2059
   28DOPE  H14R 3551   6.958   6.209   5.320  2.3680  0.7356  2.4916
   28DOPE  H14S 3552   7.066   6.356   5.298  1.0128  1.1815 -2.9631
   28DOPE  C215 3553   6.964   6.293   5.126  0.3232  0.7713  0.6733
   28DOPE  H15R 3554   6.990   6.388   5.074  0.9830  0.0577 -0.3350
   28DOPE  H15S 3555   6.860   6.273   5.094  1.0657  2.0551 -3.0397
   28DOPE  C216 3556   7.063   6.184   5.070  0.7027 -0.1040 -0.2975
   28DOPE  H16R 3557   7.023   6.086   5.104 -0.6537 -0.0250 -1.5793
   28DOPE  H16S 3558   7.158   6.202   5.125  1.3446  1.2000 -1.7741
   28DOPE  C217 3559   7.069   6.193   4.913  0.0077 -0.2039  1.0274
   28DOPE  H17R 3560   7.073   6.298   4.877  0.0520 -1.3132 -2.5665
   28DOPE  H17S 3561   6.968   6.155   4.884  1.1656 -0.3491 -3.6559
   28DOPE  C218 3562   7.175   6.114   4.835 -0.2873  0.3712 -0.1744
   28DOPE  H18R 3563   7.150   6.009   4.861 -1.8748  0.8402  0.3074
   28DOPE  H18S 3564   7.281   6.124   4.870 -0.1993  0.1049 -0.3643
   28DOPE  H18T 3565   7.173   6.144   4.728 -0.5657  3.0994  0.5095
   28DOPE   C33 3566   6.762   5.652   5.830  0.0088 -0.3820 -0.2068
   28DOPE   H3X 3567   6.712   5.747   5.859  0.5803  0.2296 -1.1813
   28DOPE   H3Y 3568   6.691   5.566   5.838 -0.6376  0.1049 -0.5735
   28DOPE   C34 3569   6.794   5.655   5.676  0.3133 -0.6591  0.5812
   28DOPE   H4X 3570   6.902   5.683   5.666 -0.3846  1.7148 -1.3581
   28DOPE   H4Y 3571   6.778   5.554   5.633 -0.8594  0.1829 -1.0828
   28DOPE   C35 3572   6.725   5.762   5.590 -0.3758  0.2902  0.8584
   28DOPE   H5X 3573   6.762   5.861   5.622  0.4897 -0.1574  1.2591
   28DOPE   H5Y 3574   6.616   5.763   5.611 -0.4640 -0.3633  0.4627
   28DOPE   C36 3575   6.734   5.741   5.440  0.5062 -0.2076  0.0933
   28DOPE   H6X 3576   6.837   5.716   5.408 -0.2184 -2.8231 -0.4002
   28DOPE   H6Y 3577   6.709   5.835   5.386  1.3501 -0.7400 -1.2946
   28DOPE   C37 3578   6.646   5.617   5.396  0.2547 -0.0003  0.9754
   28DOPE   H7X 3579   6.693   5.529   5.445 -0.9099 -2.4629 -1.9947
   28DOPE   H7Y 3580   6.537   5.626   5.415 -0.2655 -0.7401 -1.3269
   28DOPE   C38 3581   6.652   5.603   5.244 -0.2899  0.3396 -0.5218
   28DOPE   H8X 3582   6.759   5.599   5.215 -0.1784 -0.2766 -0.0591
   28DOPE   H8Y 3583   6.610   5.693   5.194  2.3538  1.8479 -0.2240
   28DOPE   C39 3584   6.575   5.484   5.196 -0.0037 -0.0630  0.7797
   28DOPE   H9X 3585   6.490   5.455   5.259 -0.7994  0.1265 -0.1701
   28DOPE  C310 3586   6.602   5.408   5.084  0.1307 -0.1333  0.1486
   28DOPE  H10X 3587   6.540   5.320   5.060  1.7827 -0.8095 -1.9276
   28DOPE  C311 3588   6.721   5.439   4.990 -0.8591  0.4179  0.4071
   28DOPE  H11X 3589   6.790   5.521   5.021 -0.7026  0.0966  0.9303
   28DOPE  H11Y 3590   6.788   5.351   4.984  0.4418  1.4666 -1.4368
   28DOPE  C312 3591   6.665   5.461   4.853 -0.2559  0.6080  0.0614
   28DOPE  H12X 3592   6.597   5.547   4.866 -0.9966  0.1049 -0.4275
   28DOPE  H12Y 3593   6.601   5.375   4.823 -0.9794  1.1096  0.1521
   28DOPE  C313 3594   6.779   5.491   4.758  0.1562 -0.2613  0.0701
   28DOPE  H13X 3595   6.836   5.585   4.774 -0.3870 -0.3147  2.6763
   28DOPE  H13Y 3596   6.845   5.402   4.755  0.1828 -0.2414  0.0616
   28DOPE  C314 3597   6.726   5.516   4.613  0.1771 -0.4950  0.3191
   28DOPE  H14X 3598   6.637   5.451   4.601  0.8490 -1.3196 -0.3948
   28DOPE  H14Y 3599   6.802   5.501   4.533 -0.5657  1.6878 -0.8910
   28DOPE  C315 3600   6.689   5.662   4.582  0.6135 -0.5833  0.4218
   28DOPE  H15X 3601   6.783   5.721   4.583 -0.0549  0.5755 -1.3503
   28DOPE  H15Y 3602   6.627   5.694   4.668 -0.4714 -2.2573  0.3196
   28DOPE  C316 3603   6.611   5.686   4.449  0.1855 -0.2528  0.4102
   28DOPE  H16X 3604   6.569   5.789   4.453 -1.3377 -0.6706 -2.1669
   28DOPE  H16Y 3605   6.518   5.627   4.434  0.4369 -0.3994 -0.6546
   28DOPE  C317 3606   6.691   5.674   4.318 -0.7064  0.2718  0.1399
   28DOPE  H17X 3607   6.796   5.696   4.347 -0.0178  1.6582 -3.0096
   28DOPE  H17Y 3608   6.682   5.571   4.277  0.1892  0.7976 -1.4593
   28DOPE  C318 3609   6.656   5.787   4.219 -0.3748 -0.0407  1.0292
   28DOPE  H18X 3610   6.547   5.783   4.198  0.2974  0.5654 -3.3991
   28DOPE  H18Y 3611   6.692   5.882   4.264  2.2358 -0.8542  0.8054
   28DOPE  H18Z 3612   6.720   5.773   4.130  0.7972 -0.3868  1.8950
   29DOPE     N 3613   6.471   0.912   6.519  0.7117  0.4276 -0.1492
   29DOPE   HN1 3614   6.532   0.955   6.592  1.2430  0.8823 -0.8526
   29DOPE   HN2 3615   6.491   0.969   6.435  0.2136  1.4177  0.3931
   29DOPE   HN3 3616   6.370   0.921   6.539  0.7529 -1.7411  1.4709
   29DOPE   C12 3617   6.508   0.766   6.505 -0.0547  0.6783 -0.2372
   29DOPE  H12A 3618   6.418   0.703   6.490 -0.9175  1.7179  0.4463
   29DOPE  H12B 3619   6.548   0.738   6.605  0.1857  1.3640 -0.1317
   29DOPE   C11 3620   6.617   0.746   6.402 -0.0415 -0.4433 -0.3234
   29DOPE  H11A 3621   6.592   0.786   6.301  0.6570  0.9853  0.0594
   29DOPE  H11B 3622   6.632   0.636   6.394  0.0136 -0.3855 -1.1637
   29DOPE     P 3623   6.882   0.775   6.426 -0.2583  0.1273 -0.2910
   29DOPE   O13 3624   6.941   0.709   6.544  0.0205  0.7620 -0.7500
   29DOPE   O14 3625   6.949   0.897   6.376 -0.2809  0.1668  0.3314
   29DOPE   O11 3626   6.864   0.672   6.308  0.2451  0.1310 -0.0046
   29DOPE   O12 3627   6.737   0.807   6.457  0.0727  0.0318 -0.3080
   29DOPE    C1 3628   6.954   0.558   6.301 -0.0996  0.0336  0.1167
   29DOPE    HA 3629   6.919   0.482   6.374 -0.3916 -0.7470 -0.8080
   29DOPE    HB 3630   7.060   0.572   6.330  0.1881 -4.0438  1.7429
   29DOPE    C2 3631   6.951   0.503   6.156 -0.3875 -0.4613  0.8394
   29DOPE    HS 3632   7.014   0.412   6.151 -0.0759 -0.2149 -0.0727
   29DOPE   O21 3633   7.000   0.605   6.065 -0.0125  0.4108  0.3552
   29DOPE   C21 3634   7.135   0.628   6.071 -0.1669 -0.2567  0.2734
   29DOPE   O22 3635   7.214   0.559   6.139  0.3651  0.7310 -0.8197
   29DOPE   C22 3636   7.180   0.747   5.980 -0.5404 -0.2467  0.5193
   29DOPE   H2R 3637   7.283   0.719   5.950 -0.1220  3.7845 -2.7750
   29DOPE   H2S 3638   7.194   0.842   6.037 -1.6088  1.4787 -1.8878
   29DOPE    C3 3639   6.802   0.463   6.112 -0.2921 -0.0129 -0.3455
   29DOPE    HX 3640   6.744   0.554   6.138  0.3999 -0.1028  1.6769
   29DOPE    HY 3641   6.768   0.376   6.171  0.2590 -0.4272 -0.6223
   29DOPE   O31 3642   6.799   0.424   5.977  0.0984  0.1488  0.2492
   29DOPE   C31 3643   6.740   0.511   5.892 -0.0841  0.0444 -0.2411
   29DOPE   O32 3644   6.676   0.611   5.926  0.3835  0.4465 -0.6618
   29DOPE   C32 3645   6.788   0.482   5.750 -0.1587  0.3422  0.2228
   29DOPE   H2X 3646   6.871   0.548   5.717 -0.2057 -0.3214 -1.3379
   29DOPE   H2Y 3647   6.810   0.374   5.734  2.3823  0.7741  0.3613
   29DOPE   C23 3648   7.106   0.770   5.853  0.3670  0.4521  0.3105
   29DOPE   H3R 3649   7.009   0.819   5.878  0.8619  1.8093 -0.3056
   29DOPE   H3S 3650   7.092   0.673   5.802  1.4332  0.2270  0.4290
   29DOPE   C24 3651   7.174   0.866   5.760  0.0085  0.2142 -0.1852
   29DOPE   H4R 3652   7.274   0.822   5.738 -0.7629 -0.4988 -2.6676
   29DOPE   H4S 3653   7.183   0.960   5.819  1.2168 -0.1233  0.1916
   29DOPE   C25 3654   7.108   0.914   5.626 -1.1722  1.1455  0.3772
   29DOPE   H5R 3655   7.083   0.825   5.565  1.6396 -1.0988  2.2135
   29DOPE   H5S 3656   7.184   0.966   5.563 -2.2197  1.1461 -0.9204
   29DOPE   C26 3657   6.993   1.007   5.655  0.5912  0.3116  0.1046
   29DOPE   H6R 3658   7.021   1.097   5.714 -0.9246  2.4263 -2.1844
   29DOPE   H6S 3659   6.921   0.941   5.707  0.9844  0.1859  0.4892
   29DOPE   C27 3660   6.913   1.058   5.529 -0.0957  0.0326  0.3353
   29DOPE   H7R 3661   6.898   0.968   5.466 -0.8947 -0.7635  1.6046
   29DOPE   H7S 3662   6.992   1.112   5.473  0.5806 -0.7502  0.5100
   29DOPE   C28 3663   6.788   1.143   5.561 -0.0226 -0.0079 -0.1447
   29DOPE   H8R 3664   6.765   1.206   5.472 -1.6886  0.2841  0.4613
   29DOPE   H8S 3665   6.813   1.214   5.642  1.2744  1.2569 -1.5845
   29DOPE   C29 3666   6.665   1.064   5.589 -0.2412  0.1737  0.0978
   29DOPE   H9R 3667   6.651   1.029   5.692  2.0186  1.9169  1.0734
   29DOPE  C210 3668   6.569   1.031   5.500 -0.4796  0.0321  0.5080
   29DOPE  H10R 3669   6.472   0.991   5.533 -0.6637  0.3298  0.3375
   29DOPE  C211 3670   6.568   1.053   5.350 -0.0218 -0.0386  0.0723
   29DOPE  H11R 3671   6.668   1.033   5.305 -0.3668 -0.7285 -0.4053
   29DOPE  H11S 3672   6.543   1.158   5.323 -0.1801 -0.1373 -0.1708
   29DOPE  C212 3673   6.473   0.953   5.276  0.2022  0.8538  0.1967
   29DOPE  H12R 3674   6.372   0.961   5.322 -0.4796 -0.4331 -1.0004
   29DOPE  H12S 3675   6.502   0.849   5.300 -0.2264  0.9163  1.0047
   29DOPE  C213 3676   6.455   0.978   5.124  0.6322  0.0961  0.1013
   29DOPE  H13R 3677   6.556   0.985   5.078  1.2263 -2.8713  0.7395
   29DOPE  H13S 3678   6.393   1.070   5.120 -1.6417 -1.4094 -0.9625
   29DOPE  C214 3679   6.381   0.861   5.056 -0.1396  0.2381  0.3050
   29DOPE  H14R 3680   6.287   0.845   5.113  0.7040 -2.1270  1.1406
   29DOPE  H14S 3681   6.435   0.766   5.077  0.1660  0.7673  2.0500
   29DOPE  C215 3682   6.367   0.894   4.904 -0.2567 -0.6301 -0.4131
   29DOPE  H15R 3683   6.471   0.908   4.867 -0.6353  1.3447 -0.8345
   29DOPE  H15S 3684   6.315   0.991   4.892  2.8277  1.1019 -0.8123
   29DOPE  C216 3685   6.314   0.778   4.820  0.0342  0.5298  0.7851
   29DOPE  H16R 3686   6.390   0.697   4.812  0.6889  1.2968 -2.0766
   29DOPE  H16S 3687   6.306   0.815   4.715 -1.0207  0.2910  0.7734
   29DOPE  C217 3688   6.182   0.719   4.869 -0.7128 -0.2803  0.7909
   29DOPE  H17R 3689   6.102   0.796   4.865  0.4968  1.0205  0.9675
   29DOPE  H17S 3690   6.192   0.684   4.974 -3.2646 -0.2659  1.1115
   29DOPE  C218 3691   6.126   0.603   4.795  0.3808  0.4818  0.5563
   29DOPE  H18R 3692   6.191   0.515   4.811 -0.9505 -0.5283  0.6048
   29DOPE  H18S 3693   6.098   0.619   4.688  3.1621  0.6391 -0.2109
   29DOPE  H18T 3694   6.034   0.576   4.852  2.0318 -3.1065  1.7788
   29DOPE   C33 3695   6.664   0.509   5.655  0.5311 -0.0176 -1.0259
   29DOPE   H3X 3696   6.661   0.612   5.614 -0.6155  0.3606 -0.0857
   29DOPE   H3Y 3697   6.568   0.491   5.709  0.6729 -0.6540 -0.9849
   29DOPE   C34 3698   6.658   0.405   5.544 -0.5951 -0.0801  0.7932
   29DOPE   H4X 3699   6.753   0.397   5.487 -0.5898 -1.0807  0.9290
   29DOPE   H4Y 3700   6.625   0.308   5.587  0.9685 -1.7293 -1.4877
   29DOPE   C35 3701   6.549   0.442   5.446  0.1280 -0.1684  0.8009
   29DOPE   H5X 3702   6.561   0.548   5.414  1.0498 -0.1768  1.1119
   29DOPE   H5Y 3703   6.454   0.430   5.502  0.0255 -1.8217  0.3055
   29DOPE   C36 3704   6.540   0.341   5.333 -0.9834  0.0558  0.2773
   29DOPE   H6X 3705   6.538   0.235   5.365 -0.1145 -0.3970 -1.0459
   29DOPE   H6Y 3706   6.630   0.355   5.268  0.3208 -0.8905  1.8202
   29DOPE   C37 3707   6.413   0.362   5.247 -0.4469  0.3868 -0.2222
   29DOPE   H7X 3708   6.329   0.322   5.307  1.0106 -0.9715  1.0168
   29DOPE   H7Y 3709   6.401   0.471   5.227 -1.3768  0.7384  2.0077
   29DOPE   C38 3710   6.430   0.292   5.109  1.0695  0.5192  0.0078
   29DOPE   H8X 3711   6.449   0.184   5.127 -0.0675  0.2085 -0.6070
   29DOPE   H8Y 3712   6.525   0.331   5.066  0.9854  1.3420  0.5361
   29DOPE   C39 3713   6.318   0.303   5.006 -0.0511 -0.1021 -0.8531
   29DOPE   H9X 3714   6.319   0.383   4.930 -1.1827 -0.1023 -0.8781
   29DOPE  C310 3715   6.218   0.218   4.989 -0.3666 -0.2726 -0.8494
   29DOPE  H10X 3716   6.128   0.238   4.930 -0.4419  0.5575 -0.4665
   29DOPE  C311 3717   6.195   0.092   5.073 -0.2029 -0.0735  0.6378
   29DOPE  H11X 3718   6.290   0.071   5.127  0.3018 -0.4445 -0.3754
   29DOPE  H11Y 3719   6.117   0.109   5.150  0.6426 -1.3412  1.8378
   29DOPE  C312 3720   6.158  -0.036   4.987 -0.1316 -0.1036  0.1661
   29DOPE  H12X 3721   6.127  -0.116   5.058  1.4295 -0.7029  0.2099
   29DOPE  H12Y 3722   6.254  -0.074   4.946  0.4728  0.4524  1.0348
   29DOPE  C313 3723   6.050  -0.020   4.882  0.6034  0.2756  0.6199
   29DOPE  H13X 3724   6.086   0.059   4.813  1.4718 -0.3163  0.3773
   29DOPE  H13Y 3725   6.043  -0.117   4.828 -0.0242  0.4295  0.4179
   29DOPE  C314 3726   5.905   0.015   4.929 -0.4830  0.4919 -0.2303
   29DOPE  H14X 3727   5.900   0.123   4.954  0.5590  0.0974  1.8430
   29DOPE  H14Y 3728   5.888  -0.045   5.021  2.9964 -1.7743 -0.8885
   29DOPE  C315 3729   5.799  -0.019   4.824  0.1549  0.3141 -0.1892
   29DOPE  H15X 3730   5.822   0.029   4.727 -1.0685  0.3445 -0.4762
   29DOPE  H15Y 3731   5.707   0.022   4.871 -0.0828 -1.7222  1.2250
   29DOPE  C316 3732   5.771  -0.165   4.800 -0.0406  0.4122 -0.6110
   29DOPE  H16X 3733   5.737  -0.204   4.898 -0.2670  2.4209  0.1681
   29DOPE  H16Y 3734   5.873  -0.206   4.784 -0.5476 -1.5850  0.9658
   29DOPE  C317 3735   5.676  -0.193   4.686  0.2962  0.3003  0.5093
   29DOPE  H17X 3736   5.622  -0.289   4.701 -1.9412  1.5186  0.7000
   29DOPE  H17Y 3737   5.596  -0.117   4.682 -1.7900 -1.5424  3.2477
   29DOPE  C318 3738   5.749  -0.202   4.549  0.4557 -0.2141 -1.1063
   29DOPE  H18X 3739   5.799  -0.106   4.526 -2.1643  1.2924 -0.8310
   29DOPE  H18Y 3740   5.822  -0.286   4.557 -0.5893 -1.0065  0.7429
   29DOPE  H18Z 3741   5.681  -0.230   4.466  1.5048 -1.0947 -1.6931
   30DOPE     N 3742   0.485   6.181   6.968 -0.4758  0.4124 -0.1708
   30DOPE   HN1 3743   0.585   6.210   6.964 -1.2195  3.1853 -0.3084
   30DOPE   HN2 3744   0.440   6.203   7.059  1.2928  1.6850  0.4468
   30DOPE   HN3 3745   0.483   6.077   6.957  0.1719  0.2756  0.8711
   30DOPE   C12 3746   0.437   6.236   6.838  0.1786 -0.3970  0.5294
   30DOPE  H12A 3747   0.468   6.169   6.756  1.5575 -0.6527  1.2369
   30DOPE  H12B 3748   0.488   6.334   6.828 -1.2620  0.3133 -0.2302
   30DOPE   C11 3749   0.290   6.260   6.853 -0.4236 -0.5840  0.1389
   30DOPE  H11A 3750   0.251   6.298   6.757 -0.5224  3.3563  1.5753
   30DOPE  H11B 3751   0.267   6.331   6.936  0.1907 -0.7190  0.4285
   30DOPE     P 3752   0.149   6.048   6.773  0.4829  0.1655  0.3169
   30DOPE   O13 3753   0.038   5.976   6.838  0.8688  0.1025 -0.4224
   30DOPE   O14 3754   0.255   5.966   6.715 -0.0392 -0.3203  0.8026
   30DOPE   O11 3755   0.085   6.146   6.661  0.2687  0.2360 -0.3235
   30DOPE   O12 3756   0.217   6.143   6.881  0.2028  0.7506 -0.0783
   30DOPE    C1 3757   0.137   6.133   6.532 -0.3510 -0.1961  0.0748
   30DOPE    HA 3758   0.119   6.033   6.486 -0.0861 -0.8220  1.2985
   30DOPE    HB 3759   0.246   6.151   6.536  0.2232 -2.6148 -1.9259
   30DOPE    C2 3760   0.064   6.238   6.438 -0.3972  0.3807  0.9751
   30DOPE    HS 3761  -0.046   6.219   6.439 -0.4905  0.8638  0.3203
   30DOPE   O21 3762   0.122   6.226   6.302  0.2736 -0.2671 -0.6056
   30DOPE   C21 3763   0.059   6.148   6.224  0.2348 -0.1079  0.4385
   30DOPE   O22 3764  -0.037   6.070   6.248  0.3792 -0.1890 -0.4186
   30DOPE   C22 3765   0.111   6.162   6.078  0.0881  0.0181  1.0703
   30DOPE   H2R 3766   0.042   6.101   6.016  1.4191  0.0633 -0.5232
   30DOPE   H2S 3767   0.198   6.093   6.081 -0.6412 -1.1681 -1.7133
   30DOPE    C3 3768   0.068   6.383   6.494 -0.2610 -0.0152 -0.1154
   30DOPE    HX 3769   0.170   6.389   6.537  1.4473 -0.6200 -3.7314
   30DOPE    HY 3770  -0.014   6.389   6.568  0.2771 -0.4883  0.5315
   30DOPE   O31 3771   0.046   6.486   6.390 -0.5557 -0.2375 -0.1342
   30DOPE   C31 3772   0.137   6.578   6.370  0.1458  0.0426 -0.5131
   30DOPE   O32 3773   0.247   6.590   6.427  0.1979  0.1021 -0.0192
   30DOPE   C32 3774   0.106   6.649   6.242 -0.5574 -0.0647  0.2110
   30DOPE   H2X 3775   0.132   6.581   6.158 -0.5622 -0.3194  0.4143
   30DOPE   H2Y 3776  -0.003   6.671   6.238 -0.2774  1.6110  1.1243
   30DOPE   C23 3777   0.127   6.303   6.030  0.1494 -0.8182  0.1062
   30DOPE   H3R 3778   0.203   6.350   6.096 -1.9053  1.7392  0.8283
   30DOPE   H3S 3779   0.039   6.371   6.038  0.1326 -0.8721  0.3847
   30DOPE   C24 3780   0.188   6.306   5.890  0.1101  0.1341  0.2480
   30DOPE   H4R 3781   0.286   6.254   5.897  1.3482  2.3176  0.2406
   30DOPE   H4S 3782   0.202   6.409   5.850 -0.9223 -0.0232 -0.5649
   30DOPE   C25 3783   0.104   6.242   5.783 -0.2377  0.2720  0.3519
   30DOPE   H5R 3784   0.009   6.299   5.773  1.3062  2.9527 -0.1700
   30DOPE   H5S 3785   0.082   6.135   5.803  1.3960  0.0747  1.3002
   30DOPE   C26 3786   0.191   6.248   5.649 -0.1728 -0.9972  0.0951
   30DOPE   H6R 3787   0.264   6.164   5.657  0.7883 -0.1573  0.4906
   30DOPE   H6S 3788   0.243   6.346   5.639 -1.8618  0.1092  1.5898
   30DOPE   C27 3789   0.103   6.208   5.532 -0.1634  0.1110 -0.1287
   30DOPE   H7R 3790   0.011   6.270   5.524 -1.2126 -1.4438 -0.5872
   30DOPE   H7S 3791   0.076   6.103   5.558 -2.2502  0.9009  1.1537
   30DOPE   C28 3792   0.190   6.227   5.404  0.4381  0.0930  0.4290
   30DOPE   H8R 3793   0.282   6.168   5.422  0.4844  0.7027  2.4085
   30DOPE   H8S 3794   0.222   6.333   5.396 -1.8197  0.7436 -0.9301
   30DOPE   C29 3795   0.116   6.193   5.275  0.0679 -0.1590 -0.1868
   30DOPE   H9R 3796   0.089   6.086   5.278 -1.1058  0.1509  1.3820
   30DOPE  C210 3797   0.081   6.287   5.184  0.2552 -0.0207 -0.1309
   30DOPE  H10R 3798   0.019   6.264   5.096 -0.2206  0.5582  0.0435
   30DOPE  C211 3799   0.116   6.439   5.192  0.2123 -1.0418 -0.0421
   30DOPE  H11R 3800   0.212   6.462   5.244  0.5421 -0.2399 -0.9608
   30DOPE  H11S 3801   0.026   6.486   5.236 -0.3145  0.5558 -2.6061
   30DOPE  C212 3802   0.129   6.509   5.054 -0.9334 -0.4215  0.5334
   30DOPE  H12R 3803   0.225   6.481   5.005 -1.2536  0.9691 -0.9644
   30DOPE  H12S 3804   0.144   6.617   5.072 -0.1263 -0.7493  1.9814
   30DOPE  C213 3805  -0.003   6.490   4.969 -0.4506  0.0370 -0.2646
   30DOPE  H13R 3806  -0.092   6.502   5.034 -0.4855 -3.9590  0.6889
   30DOPE  H13S 3807   0.007   6.389   4.924  0.1676  0.8289 -1.9682
   30DOPE  C214 3808  -0.002   6.594   4.861  0.0785  0.4361  0.0640
   30DOPE  H14R 3809   0.101   6.587   4.819  0.5856  0.8735  1.2017
   30DOPE  H14S 3810  -0.016   6.698   4.899 -0.6497  0.0688  0.8187
   30DOPE  C215 3811  -0.102   6.554   4.754  0.4609 -0.3473  0.5983
   30DOPE  H15R 3812  -0.075   6.451   4.722  2.8389  0.3867  0.0918
   30DOPE  H15S 3813  -0.083   6.622   4.669 -0.2624 -0.4777  0.3230
   30DOPE  C216 3814  -0.250   6.563   4.807  0.2105 -0.3603  0.0826
   30DOPE  H16R 3815  -0.257   6.650   4.876  0.8487 -0.2212 -0.0218
   30DOPE  H16S 3816  -0.261   6.472   4.870  0.7852 -1.3364 -1.1753
   30DOPE  C217 3817  -0.359   6.571   4.702  0.3861 -0.9091  0.8152
   30DOPE  H17R 3818  -0.347   6.670   4.651  1.6226 -0.7409  1.3881
   30DOPE  H17S 3819  -0.458   6.578   4.751 -0.5327 -1.5751 -0.8694
   30DOPE  C218 3820  -0.332   6.467   4.598  0.5451 -0.2212  0.0162
   30DOPE  H18R 3821  -0.266   6.510   4.520  0.3300 -0.5656 -0.3641
   30DOPE  H18S 3822  -0.423   6.449   4.536  1.9131 -0.4691 -2.0074
   30DOPE  H18T 3823  -0.309   6.372   4.650  0.0914  1.2414  3.1018
   30DOPE   C33 3824   0.178   6.787   6.210 -0.6118 -0.5342 -0.0728
   30DOPE   H3X 3825   0.278   6.760   6.169 -0.4979  0.7420 -0.6793
   30DOPE   H3Y 3826   0.187   6.855   6.298  0.4133  0.7750 -1.1462
   30DOPE   C34 3827   0.098   6.851   6.099  1.0831 -0.5636 -0.3827
   30DOPE   H4X 3828   0.066   6.789   6.013  0.6099 -0.3630 -0.3544
   30DOPE   H4Y 3829   0.003   6.896   6.136  0.2300 -2.4401 -0.2095
   30DOPE   C35 3830   0.175   6.967   6.028  0.1135  0.6069 -0.4190
   30DOPE   H5X 3831   0.271   6.924   5.993  0.4304  0.3780  0.6726
   30DOPE   H5Y 3832   0.193   7.051   6.098  1.6959  0.1051 -0.1932
   30DOPE   C36 3833   0.091   7.029   5.917 -0.2854 -0.1600  0.1377
   30DOPE   H6X 3834   0.017   7.092   5.971 -0.5752 -2.3335  2.4489
   30DOPE   H6Y 3835   0.038   6.950   5.860  1.3634 -1.8945  0.9257
   30DOPE   C37 3836   0.178   7.125   5.833  0.8647  0.7713 -0.4055
   30DOPE   H7X 3837   0.254   7.181   5.891  1.2411 -1.4047  1.3243
   30DOPE   H7Y 3838   0.238   7.073   5.756 -1.5196 -1.3289 -0.9872
   30DOPE   C38 3839   0.084   7.230   5.769  0.2335 -0.2092 -0.0062
   30DOPE   H8X 3840   0.034   7.273   5.859  0.1627 -0.7110  0.1958
   30DOPE   H8Y 3841   0.017   7.174   5.701  1.6511 -1.7353 -0.2161
   30DOPE   C39 3842   0.159   7.337   5.693  0.3298  0.4270 -0.3878
   30DOPE   H9X 3843   0.218   7.404   5.758 -1.2177  0.7049  0.7747
   30DOPE  C310 3844   0.129   7.378   5.574  0.1884  0.3255  0.2545
   30DOPE  H10X 3845   0.195   7.455   5.531  0.6771 -0.0878  0.2465
   30DOPE  C311 3846   0.019   7.321   5.480 -0.6746  0.0798  0.4156
   30DOPE  H11X 3847  -0.078   7.314   5.532 -0.0172  1.6641  1.9461
   30DOPE  H11Y 3848   0.010   7.393   5.396  1.5623  0.1956  0.2176
   30DOPE  C312 3849   0.066   7.187   5.418 -0.5889  0.4950  0.4482
   30DOPE  H12X 3850   0.114   7.110   5.482  1.1147  1.4190  0.3329
   30DOPE  H12Y 3851   0.132   7.200   5.329  1.5868 -0.3993  1.8614
   30DOPE  C313 3852  -0.039   7.099   5.345 -0.1607  0.1636  0.2111
   30DOPE  H13X 3853  -0.092   7.036   5.420  0.1360  0.9431  1.0875
   30DOPE  H13Y 3854  -0.111   7.163   5.290  0.8267 -0.7418 -2.2875
   30DOPE  C314 3855   0.015   7.012   5.228  0.2056  0.3091 -0.5830
   30DOPE  H14X 3856   0.122   6.987   5.245  0.3566  0.8294 -0.7520
   30DOPE  H14Y 3857   0.022   7.068   5.132  0.9161 -0.7185 -1.1635
   30DOPE  C315 3858  -0.056   6.878   5.211  0.8805 -0.2818 -0.1829
   30DOPE  H15X 3859  -0.042   6.815   5.302 -0.6786 -1.3052 -0.6349
   30DOPE  H15Y 3860  -0.015   6.818   5.128  0.3163 -2.2859  0.9139
   30DOPE  C316 3861  -0.206   6.908   5.179 -0.8195  0.3539 -0.2804
   30DOPE  H16X 3862  -0.215   6.964   5.084  1.9417 -1.8959 -2.0253
   30DOPE  H16Y 3863  -0.261   6.973   5.251  0.6244  0.0755  1.1287
   30DOPE  C317 3864  -0.282   6.775   5.167 -0.4275  0.2283 -0.2454
   30DOPE  H17X 3865  -0.204   6.717   5.114 -1.1185  0.6361 -1.7711
   30DOPE  H17Y 3866  -0.304   6.726   5.264  1.5762  0.6973  0.4953
   30DOPE  C318 3867  -0.402   6.791   5.080  0.5586  0.6321 -0.5431
   30DOPE  H18X 3868  -0.464   6.878   5.113  1.3322  1.0865 -0.2718
   30DOPE  H18Y 3869  -0.363   6.809   4.978  3.3502  0.3416  0.4059
   30DOPE  H18Z 3870  -0.460   6.697   5.073  1.4553  0.0800 -0.6683
   31DOPE     N 3871   4.038   3.361   2.559  0.0032 -1.1581  0.1218
   31DOPE   HN1 3872   4.036   3.334   2.659  0.6169 -1.0688  0.1617
   31DOPE   HN2 3873   3.946   3.406   2.546 -1.3128 -3.3396  1.1761
   31DOPE   HN3 3874   4.057   3.280   2.496 -0.6826 -0.4715 -0.9956
   31DOPE   C12 3875   4.147   3.455   2.535 -0.2553 -0.3239  0.7498
   31DOPE  H12A 3876   4.125   3.518   2.446  1.8268 -0.9352 -0.2540
   31DOPE  H12B 3877   4.240   3.401   2.507  0.9109  1.5770  0.7658
   31DOPE   C11 3878   4.176   3.551   2.659  0.2306  0.1979  0.1642
   31DOPE  H11A 3879   4.248   3.626   2.621  0.3410 -0.0618 -0.1425
   31DOPE  H11B 3880   4.228   3.493   2.739  1.6976  2.3518  0.8570
   31DOPE     P 3881   4.002   3.749   2.673 -0.5737  0.2042 -0.1128
   31DOPE   O13 3882   3.878   3.782   2.747 -0.0185 -0.6237 -0.1097
   31DOPE   O14 3883   3.998   3.775   2.522 -0.3917 -0.3652 -0.9688
   31DOPE   O11 3884   4.125   3.834   2.734 -0.0995 -0.0236 -0.1819
   31DOPE   O12 3885   4.056   3.609   2.714 -0.3213  0.3851  0.7700
   31DOPE    C1 3886   4.160   3.836   2.871  0.2711  0.2042  0.5254
   31DOPE    HA 3887   4.268   3.861   2.874  0.9162 -2.1672 -0.3426
   31DOPE    HB 3888   4.130   3.749   2.933 -2.0496  1.4899  1.3275
   31DOPE    C2 3889   4.108   3.972   2.934  0.0449  0.8487  0.1179
   31DOPE    HS 3890   4.162   3.973   3.031 -0.4610 -0.4356  0.4383
   31DOPE   O21 3891   3.967   3.982   2.961  0.1702  0.0891 -0.3337
   31DOPE   C21 3892   3.922   3.897   3.052 -0.7609 -0.1181  0.6269
   31DOPE   O22 3893   3.990   3.810   3.103  0.0718  0.2120 -0.3684
   31DOPE   C22 3894   3.780   3.936   3.088  0.0382 -0.4122 -0.1468
   31DOPE   H2R 3895   3.713   3.906   3.006  0.8415  0.7190 -1.2604
   31DOPE   H2S 3896   3.768   4.046   3.078 -1.7495 -0.6474 -1.0867
   31DOPE    C3 3897   4.153   4.087   2.850 -0.3898  0.2306  0.4502
   31DOPE    HX 3898   4.110   4.081   2.748 -1.4444  2.7262  0.6797
   31DOPE    HY 3899   4.261   4.074   2.827 -0.6267  1.3295 -1.4899
   31DOPE   O31 3900   4.133   4.211   2.916 -0.1720  0.4851  0.0767
   31DOPE   C31 3901   4.112   4.321   2.839 -0.0019 -0.4218  0.4755
   31DOPE   O32 3902   4.133   4.324   2.719  0.4063 -0.1424  0.0546
   31DOPE   C32 3903   4.058   4.436   2.926 -0.3674  0.2497  1.1846
   31DOPE   H2X 3904   4.140   4.457   2.997  2.5355 -1.8581 -1.2998
   31DOPE   H2Y 3905   4.048   4.524   2.858  3.2208 -0.2290 -0.1553
   31DOPE   C23 3906   3.736   3.882   3.227  0.0344  0.5639  0.2924
   31DOPE   H3R 3907   3.652   3.948   3.257 -1.6114 -1.4257  0.2456
   31DOPE   H3S 3908   3.810   3.890   3.309  2.8176 -0.1649 -1.9703
   31DOPE   C24 3909   3.690   3.738   3.223 -0.1280 -0.3703 -0.2662
   31DOPE   H4R 3910   3.762   3.664   3.181  0.7203  0.5515 -0.4752
   31DOPE   H4S 3911   3.612   3.747   3.144  1.1810  2.1583 -1.3918
   31DOPE   C25 3912   3.623   3.692   3.351 -0.4927 -0.3896 -0.2287
   31DOPE   H5R 3913   3.564   3.599   3.334  0.1111 -0.7587 -0.3422
   31DOPE   H5S 3914   3.536   3.755   3.377  0.8666  1.8675 -0.9039
   31DOPE   C26 3915   3.732   3.676   3.458 -0.4022  0.7107 -0.5079
   31DOPE   H6R 3916   3.774   3.778   3.464  2.2350 -0.3687  0.6227
   31DOPE   H6S 3917   3.818   3.610   3.434  0.1371  1.3675 -0.3986
   31DOPE   C27 3918   3.695   3.636   3.597  0.0976 -0.3135 -0.6343
   31DOPE   H7R 3919   3.607   3.701   3.615 -0.2300 -0.9593  0.1596
   31DOPE   H7S 3920   3.779   3.661   3.665  0.3732  0.1143 -1.1276
   31DOPE   C28 3921   3.645   3.489   3.623  0.2179 -0.2323 -0.1865
   31DOPE   H8R 3922   3.642   3.478   3.734 -0.4187  3.6298  0.2962
   31DOPE   H8S 3923   3.732   3.426   3.594 -0.4933 -0.8408 -1.0349
   31DOPE   C29 3924   3.526   3.431   3.552  0.1723 -0.3796  0.2057
   31DOPE   H9R 3925   3.553   3.374   3.462  1.2770 -0.4784  0.5804
   31DOPE  C210 3926   3.398   3.426   3.592  0.1884 -0.3521  0.4157
   31DOPE  H10R 3927   3.326   3.366   3.535 -0.4220  0.6548  0.1007
   31DOPE  C211 3928   3.350   3.492   3.720 -0.3795  0.2244 -0.0520
   31DOPE  H11R 3929   3.247   3.533   3.713 -0.2997  0.3950 -0.2466
   31DOPE  H11S 3930   3.410   3.583   3.745 -0.9258  2.2031 -4.7313
   31DOPE  C212 3931   3.350   3.379   3.829  0.3977  0.0183  0.0644
   31DOPE  H12R 3932   3.348   3.437   3.923  1.1295 -0.1897  0.2122
   31DOPE  H12S 3933   3.451   3.335   3.837  0.2792 -0.1804  0.4628
   31DOPE  C213 3934   3.227   3.289   3.824  0.4889 -0.1079  0.5708
   31DOPE  H13R 3935   3.228   3.204   3.753  2.2028 -0.6390  1.1672
   31DOPE  H13S 3936   3.144   3.357   3.796 -0.4983 -2.4288 -2.8846
   31DOPE  C214 3937   3.181   3.245   3.965 -0.9117 -0.3378  0.1365
   31DOPE  H14R 3938   3.175   3.338   4.026 -0.5873  1.1965 -2.0842
   31DOPE  H14S 3939   3.262   3.174   3.992 -0.0602  0.7145  0.4636
   31DOPE  C215 3940   3.048   3.173   3.978 -0.3640 -0.0611  0.2094
   31DOPE  H15R 3941   3.071   3.070   3.945  1.1730  0.6141 -0.9295
   31DOPE  H15S 3942   2.976   3.229   3.915  0.3417  0.9369  0.2649
   31DOPE  C216 3943   3.008   3.180   4.122 -0.0549 -0.2549  0.0425
   31DOPE  H16R 3944   2.965   3.279   4.150 -1.4911 -0.9794  0.5373
   31DOPE  H16S 3945   3.097   3.168   4.187 -0.2255  0.1857  0.3705
   31DOPE  C217 3946   2.914   3.067   4.161 -0.6836 -0.5343  0.0734
   31DOPE  H17R 3947   2.951   2.970   4.120  0.0009 -0.9051  1.4957
   31DOPE  H17S 3948   2.810   3.083   4.125 -0.5764  0.5160  0.2006
   31DOPE  C218 3949   2.894   3.064   4.315 -0.4387  0.5444  1.0542
   31DOPE  H18R 3950   2.862   3.165   4.351 -0.5599  1.4056 -1.2774
   31DOPE  H18S 3951   2.985   3.041   4.374 -1.0888 -1.5312  1.3165
   31DOPE  H18T 3952   2.815   2.994   4.347  3.2820 -3.9781  1.3867
   31DOPE   C33 3953   3.918   4.403   2.990  0.3890  0.1299 -0.2916
   31DOPE   H3X 3954   3.847   4.348   2.924  1.8141 -1.3562 -0.6616
   31DOPE   H3Y 3955   3.866   4.501   3.000 -1.8652 -1.0599  0.4245
   31DOPE   C34 3956   3.920   4.340   3.131 -0.5510  0.7131  0.2325
   31DOPE   H4X 3957   3.961   4.237   3.119  0.0058  1.0512 -0.9703
   31DOPE   H4Y 3958   3.991   4.395   3.196  0.0439 -1.3316  1.3904
   31DOPE   C35 3959   3.784   4.331   3.204  0.5329 -0.2703 -0.5836
   31DOPE   H5X 3960   3.725   4.287   3.121  0.4062  0.9631 -1.1755
   31DOPE   H5Y 3961   3.732   4.429   3.213 -2.2568 -1.8291  2.1772
   31DOPE   C36 3962   3.786   4.238   3.327  0.1179  0.1335 -1.0485
   31DOPE   H6X 3963   3.811   4.133   3.298  0.4307 -0.5101  1.2945
   31DOPE   H6Y 3964   3.692   4.243   3.385 -0.8119 -3.8449 -1.9015
   31DOPE   C37 3965   3.901   4.285   3.421 -0.0798 -0.4142 -0.3043
   31DOPE   H7X 3966   4.005   4.261   3.389  0.4179 -0.2719  1.1319
   31DOPE   H7Y 3967   3.896   4.396   3.423  0.4027 -0.4036  1.4936
   31DOPE   C38 3968   3.878   4.223   3.557  0.0166 -0.5346  0.1323
   31DOPE   H8X 3969   3.780   4.249   3.601 -0.2178 -1.4782  0.1946
   31DOPE   H8Y 3970   3.944   4.272   3.631 -2.0861  1.0784  1.0283
   31DOPE   C39 3971   3.899   4.074   3.556 -0.2561 -0.1963  0.0915
   31DOPE   H9X 3972   3.934   4.039   3.457  3.2632 -2.0833  1.8146
   31DOPE  C310 3973   3.865   3.989   3.649 -0.2252  0.1261 -0.4684
   31DOPE  H10X 3974   3.896   3.883   3.645 -1.5172 -0.3355  0.7555
   31DOPE  C311 3975   3.830   4.030   3.790  0.2208 -0.0150  0.1125
   31DOPE  H11X 3976   3.866   4.132   3.817  1.9807 -0.6312  0.2338
   31DOPE  H11Y 3977   3.719   4.037   3.795  0.1954 -0.9621  1.3144
   31DOPE  C312 3978   3.889   3.941   3.896 -0.3062 -0.0349  0.4112
   31DOPE  H12X 3979   3.999   3.928   3.883 -0.5830 -1.1034 -1.3338
   31DOPE  H12Y 3980   3.840   3.842   3.881 -2.5036  0.7496  1.9439
   31DOPE  C313 3981   3.860   3.999   4.037  0.0473  0.3681  0.1136
   31DOPE  H13X 3982   3.882   4.108   4.047 -1.8505  0.7789  0.1300
   31DOPE  H13Y 3983   3.758   3.969   4.069  0.4304 -2.3494 -0.9295
   31DOPE  C314 3984   3.956   3.940   4.142 -0.4190 -0.7248 -0.0702
   31DOPE  H14X 3985   3.981   3.837   4.111  0.0313 -0.1510 -1.7201
   31DOPE  H14Y 3986   3.898   3.947   4.236 -0.7032 -1.2025 -0.2093
   31DOPE  C315 3987   4.099   4.009   4.157  0.7990 -0.4614 -0.1520
   31DOPE  H15X 3988   4.094   4.120   4.167  0.4083 -0.3823 -1.0886
   31DOPE  H15Y 3989   4.177   3.993   4.080  3.3553  1.4053  1.8403
   31DOPE  C316 3990   4.183   3.954   4.282  0.0806  1.0333 -0.2281
   31DOPE  H16X 3991   4.125   3.971   4.376 -1.2512 -2.6407 -0.2344
   31DOPE  H16Y 3992   4.276   4.013   4.300 -0.1347  2.5270 -3.3202
   31DOPE  C317 3993   4.216   3.801   4.270 -0.0304  0.1322 -0.1720
   31DOPE  H17X 3994   4.130   3.731   4.282 -0.4552  0.7858  0.6531
   31DOPE  H17Y 3995   4.264   3.764   4.178 -1.0902 -0.4350 -0.5163
   31DOPE  C318 3996   4.317   3.749   4.378  0.1383 -0.0703 -0.1787
   31DOPE  H18X 3997   4.259   3.731   4.471 -1.3576 -1.1865 -1.2562
   31DOPE  H18Y 3998   4.348   3.645   4.354  3.1151  1.2057 -2.4324
   31DOPE  H18Z 3999   4.408   3.811   4.389 -0.3324  0.3248  1.8390
   32DOPE     N 4000   5.644   3.702   2.616  0.1130 -0.6236  0.1649
   32DOPE   HN1 4001   5.632   3.795   2.571  0.0690 -0.4725  0.4849
   32DOPE   HN2 4002   5.743   3.675   2.632  0.2159 -1.1166 -1.2019
   32DOPE   HN3 4003   5.601   3.635   2.550  0.8005 -0.1417 -0.7983
   32DOPE   C12 4004   5.581   3.701   2.753  0.0980  0.1451  0.3032
   32DOPE  H12A 4005   5.470   3.697   2.757  0.1348 -3.5314  1.8982
   32DOPE  H12B 4006   5.609   3.800   2.794 -0.4625 -0.2877  1.8332
   32DOPE   C11 4007   5.638   3.582   2.836  0.3310 -0.4176 -0.2937
   32DOPE  H11A 4008   5.588   3.590   2.935  1.5072  0.7544  0.2294
   32DOPE  H11B 4009   5.746   3.598   2.855  0.4934 -0.7363 -0.9173
   32DOPE     P 4010   5.477   3.388   2.741  0.0288 -0.0798 -0.2553
   32DOPE   O13 4011   5.519   3.273   2.662 -0.2757  0.2301 -0.1004
   32DOPE   O14 4012   5.368   3.477   2.690  0.5098  0.0646  0.0483
   32DOPE   O11 4013   5.442   3.345   2.889 -0.7632 -0.0943  0.2646
   32DOPE   O12 4014   5.613   3.464   2.771 -0.5488 -0.2004 -0.0985
   32DOPE    C1 4015   5.544   3.281   2.970 -0.2958 -0.1846 -0.0230
   32DOPE    HA 4016   5.623   3.356   2.987  0.5554 -1.4818  2.1305
   32DOPE    HB 4017   5.590   3.194   2.919  2.0970  1.2354 -0.4525
   32DOPE    C2 4018   5.481   3.249   3.105  0.3368  0.1694 -0.1898
   32DOPE    HS 4019   5.549   3.188   3.170 -1.0280 -3.7072 -2.0956
   32DOPE   O21 4020   5.367   3.175   3.091  1.0175  0.2071  0.4508
   32DOPE   C21 4021   5.325   3.101   3.193 -0.2859  0.3202 -0.0876
   32DOPE   O22 4022   5.367   3.103   3.306  0.0543 -0.0720 -0.5473
   32DOPE   C22 4023   5.216   3.000   3.147 -0.0764  0.1280  0.1657
   32DOPE   H2R 4024   5.260   2.931   3.073 -0.6646 -0.7702  0.6429
   32DOPE   H2S 4025   5.133   3.053   3.096 -1.0245  0.3843  1.9141
   32DOPE    C3 4026   5.456   3.381   3.188  0.4562 -0.0038  0.1036
   32DOPE    HX 4027   5.407   3.353   3.284  1.1044  0.9000  0.7125
   32DOPE    HY 4028   5.389   3.443   3.125 -2.3915 -1.2750  1.6643
   32DOPE   O31 4029   5.575   3.448   3.211 -0.3112  0.1892 -0.2621
   32DOPE   C31 4030   5.555   3.557   3.284  0.6818  0.3711 -0.3370
   32DOPE   O32 4031   5.447   3.598   3.327 -0.3006 -0.0658  0.5531
   32DOPE   C32 4032   5.693   3.634   3.299  0.4822 -0.4831  0.6619
   32DOPE   H2X 4033   5.764   3.552   3.276  1.7111  0.8836 -0.6178
   32DOPE   H2Y 4034   5.705   3.709   3.218  0.2963  1.6234  2.4997
   32DOPE   C23 4035   5.156   2.917   3.264  1.2003  0.0364 -0.4192
   32DOPE   H3R 4036   5.148   2.964   3.364 -0.4680 -0.0976 -0.4603
   32DOPE   H3S 4037   5.219   2.827   3.285 -1.9408 -2.1170  0.6203
   32DOPE   C24 4038   5.022   2.863   3.215  0.3650  0.6133 -0.0995
   32DOPE   H4R 4039   5.033   2.844   3.106 -0.0894  1.0241 -0.2189
   32DOPE   H4S 4040   4.951   2.946   3.229  0.0513  0.2050  0.8226
   32DOPE   C25 4041   4.968   2.738   3.293  0.0029 -0.4375 -0.0440
   32DOPE   H5R 4042   5.056   2.671   3.286  0.4227  0.0056  0.8818
   32DOPE   H5S 4043   4.874   2.706   3.244  0.2419 -1.0032 -0.1472
   32DOPE   C26 4044   4.938   2.761   3.444  0.1370 -0.6687 -0.5548
   32DOPE   H6R 4045   4.867   2.847   3.447 -1.9659 -2.3085 -1.0414
   32DOPE   H6S 4046   5.032   2.791   3.495 -0.2771  0.5987 -0.4867
   32DOPE   C27 4047   4.861   2.647   3.506 -0.6866  0.5819 -0.0639
   32DOPE   H7R 4048   4.921   2.554   3.491 -1.3038 -0.3450  2.6994
   32DOPE   H7S 4049   4.769   2.621   3.450 -0.9162 -4.7151  2.1809
   32DOPE   C28 4050   4.844   2.669   3.658 -0.3152 -0.0806 -0.6636
   32DOPE   H8R 4051   4.801   2.768   3.682 -0.5575 -0.1511 -0.8128
   32DOPE   H8S 4052   4.943   2.686   3.707  0.0090 -0.0737 -1.3136
   32DOPE   C29 4053   4.763   2.559   3.713  0.2427 -0.0795 -0.0990
   32DOPE   H9R 4054   4.820   2.465   3.716 -0.2291 -0.3882 -0.7679
   32DOPE  C210 4055   4.633   2.562   3.754  0.4277 -0.1860 -0.3586
   32DOPE  H10R 4056   4.593   2.466   3.788 -0.6330  0.2355 -0.3847
   32DOPE  C211 4057   4.548   2.679   3.789 -0.1366  0.5348  0.1513
   32DOPE  H11R 4058   4.454   2.663   3.732  1.3850 -2.9404 -1.6896
   32DOPE  H11S 4059   4.594   2.768   3.740 -0.3288  0.3776 -0.3244
   32DOPE  C212 4060   4.543   2.709   3.938  0.3888  0.4249 -0.0658
   32DOPE  H12R 4061   4.499   2.810   3.950 -0.2943  0.1588 -0.2811
   32DOPE  H12S 4062   4.648   2.725   3.973  0.1473 -0.0237  0.8824
   32DOPE  C213 4063   4.466   2.597   4.013  0.8125 -1.0680 -1.1609
   32DOPE  H13R 4064   4.520   2.500   4.000  0.5906 -1.0200 -2.5611
   32DOPE  H13S 4065   4.365   2.591   3.967  1.0622 -0.8047 -1.7414
   32DOPE  C214 4066   4.453   2.617   4.163  0.3137  0.0775  0.1598
   32DOPE  H14R 4067   4.410   2.527   4.212  0.9394 -1.0056 -1.2235
   32DOPE  H14S 4068   4.394   2.710   4.176 -1.1431 -0.6045 -1.2843
   32DOPE  C215 4069   4.592   2.637   4.233 -0.3502 -0.1985 -0.5259
   32DOPE  H15R 4070   4.637   2.728   4.189  1.3307 -1.1204 -0.8124
   32DOPE  H15S 4071   4.659   2.552   4.207 -0.0558 -0.3142  0.5563
   32DOPE  C216 4072   4.585   2.655   4.386 -0.3269  0.6464 -0.2237
   32DOPE  H16R 4073   4.495   2.718   4.400 -1.3957 -0.8784 -0.0830
   32DOPE  H16S 4074   4.673   2.713   4.423 -0.5077  1.5677 -1.1729
   32DOPE  C217 4075   4.568   2.522   4.459 -0.2097  0.8928 -0.1274
   32DOPE  H17R 4076   4.654   2.454   4.439  1.3629  2.0476  2.2444
   32DOPE  H17S 4077   4.476   2.471   4.424 -0.8081  0.4634  1.9052
   32DOPE  C218 4078   4.560   2.536   4.621 -0.3394  0.9778 -0.1143
   32DOPE  H18R 4079   4.646   2.601   4.646  1.2321  0.3385 -3.3127
   32DOPE  H18S 4080   4.576   2.439   4.673 -0.0499  1.9237  1.6140
   32DOPE  H18T 4081   4.464   2.584   4.650 -0.3333  2.0831 -1.7826
   32DOPE   C33 4082   5.713   3.692   3.442 -0.0418 -0.5854 -0.1106
   32DOPE   H3X 4083   5.630   3.763   3.463  1.5070  1.4964 -0.7550
   32DOPE   H3Y 4084   5.806   3.752   3.449 -1.8529  2.3435  0.5968
   32DOPE   C34 4085   5.737   3.578   3.545  0.2038  0.3028 -0.1459
   32DOPE   H4X 4086   5.669   3.492   3.527 -0.7773  0.6047  1.9067
   32DOPE   H4Y 4087   5.841   3.542   3.525 -0.4181 -1.0123 -1.1789
   32DOPE   C35 4088   5.716   3.621   3.691 -0.1464 -0.3084  0.2649
   32DOPE   H5X 4089   5.608   3.645   3.689  0.1362  1.0849 -2.2089
   32DOPE   H5Y 4090   5.774   3.712   3.718  0.4200 -0.5655 -0.0470
   32DOPE   C36 4091   5.741   3.512   3.792 -0.5818 -0.2093 -0.1258
   32DOPE   H6X 4092   5.850   3.491   3.792 -0.5438 -0.1703  1.6028
   32DOPE   H6Y 4093   5.683   3.419   3.773 -1.6863 -0.1206  2.4575
   32DOPE   C37 4094   5.701   3.550   3.931 -0.2702  0.0826 -0.8379
   32DOPE   H7X 4095   5.744   3.646   3.966  1.2902 -0.3545 -1.4724
   32DOPE   H7Y 4096   5.592   3.565   3.942  0.0511  0.7418  2.4597
   32DOPE   C38 4097   5.753   3.442   4.032  0.6841  0.3283  0.5296
   32DOPE   H8X 4098   5.864   3.436   4.042  0.8366  0.8351 -0.6355
   32DOPE   H8Y 4099   5.725   3.345   3.985 -3.2166  1.6431 -0.2085
   32DOPE   C39 4100   5.698   3.446   4.167  0.1208  0.4077  0.1388
   32DOPE   H9X 4101   5.758   3.515   4.228  0.0755  0.8044 -0.2543
   32DOPE  C310 4102   5.605   3.377   4.234  0.2369 -0.0513  0.4683
   32DOPE  H10X 4103   5.598   3.399   4.341  3.9794  0.6243  0.6985
   32DOPE  C311 4104   5.521   3.270   4.179 -1.0389  0.4133 -0.5058
   32DOPE  H11X 4105   5.414   3.293   4.200 -0.8719  0.0289  0.8566
   32DOPE  H11Y 4106   5.534   3.267   4.068 -0.8283  0.2204 -0.4760
   32DOPE  C312 4107   5.554   3.135   4.237  0.0537 -0.5191  0.8266
   32DOPE  H12X 4108   5.661   3.112   4.219  0.0802 -1.3106  1.8730
   32DOPE  H12Y 4109   5.496   3.053   4.188 -1.4544  0.2751  1.2089
   32DOPE  C313 4110   5.511   3.114   4.384 -0.0205 -0.3590 -0.0374
   32DOPE  H13X 4111   5.578   3.048   4.443  0.8885  0.0185 -0.6389
   32DOPE  H13Y 4112   5.523   3.212   4.435  2.7839 -0.8784  0.4790
   32DOPE  C314 4113   5.365   3.059   4.418  0.3715  0.1755  0.0509
   32DOPE  H14X 4114   5.348   2.954   4.385  2.0997 -0.7968  2.0163
   32DOPE  H14Y 4115   5.294   3.126   4.365 -1.5414  0.3139  2.5866
   32DOPE  C315 4116   5.340   3.064   4.566 -0.1281 -0.6646  0.6736
   32DOPE  H15X 4117   5.340   3.167   4.609 -0.2082 -0.4318  0.1212
   32DOPE  H15Y 4118   5.426   3.011   4.612  1.2464  1.2925  0.4762
   32DOPE  C316 4119   5.206   2.992   4.599  0.0297  0.3202 -0.1909
   32DOPE  H16X 4120   5.125   3.034   4.535 -1.8838 -0.5973  1.5101
   32DOPE  H16Y 4121   5.173   3.008   4.704  0.2870 -0.2515 -0.0191
   32DOPE  C317 4122   5.214   2.842   4.580  0.4498 -0.2064 -0.1722
   32DOPE  H17X 4123   5.112   2.805   4.604  0.1319  0.5548 -0.3320
   32DOPE  H17Y 4124   5.222   2.827   4.470  1.9793 -2.6219  0.1847
   32DOPE  C318 4125   5.328   2.760   4.647 -0.4275 -0.7249 -0.5749
   32DOPE  H18X 4126   5.315   2.657   4.609  0.2856 -0.5881 -1.2045
   32DOPE  H18Y 4127   5.423   2.802   4.609 -0.3356 -0.4317 -0.0330
   32DOPE  H18Z 4128   5.329   2.769   4.758 -0.3548 -0.3162 -0.6042
   33DOPE     N 4129   3.766   3.013   2.347 -0.3386  0.0657  0.0893
   33DOPE   HN1 4130   3.786   2.917   2.312 -0.6641  0.7004 -1.9878
   33DOPE   HN2 4131   3.769   3.081   2.268 -0.0410  0.8907  0.8014
   33DOPE   HN3 4132   3.839   3.040   2.417  2.0050 -1.2192 -1.7046
   33DOPE   C12 4133   3.624   3.008   2.400 -0.1437 -0.1898  0.4259
   33DOPE  H12A 4134   3.617   2.928   2.477 -1.4769 -0.5379 -0.0472
   33DOPE  H12B 4135   3.558   2.984   2.315  2.2247 -3.3096 -0.7463
   33DOPE   C11 4136   3.592   3.155   2.444 -0.3685  0.2594 -0.0011
   33DOPE  H11A 4137   3.484   3.152   2.468 -0.3849 -0.4711 -0.1539
   33DOPE  H11B 4138   3.598   3.220   2.354 -1.0398  0.2699 -0.0446
   33DOPE     P 4139   3.658   3.373   2.578  0.0763  0.4609 -0.0960
   33DOPE   O13 4140   3.525   3.415   2.527  0.0299  0.3718  0.3649
   33DOPE   O14 4141   3.777   3.442   2.522 -0.1514 -0.5686 -0.1916
   33DOPE   O11 4142   3.663   3.383   2.735  0.8941 -0.4774 -0.2134
   33DOPE   O12 4143   3.672   3.215   2.553  1.6567  0.2522  0.2118
   33DOPE    C1 4144   3.558   3.316   2.811  0.0021  0.2698 -0.5805
   33DOPE    HA 4145   3.478   3.265   2.753  2.1286 -3.3838 -0.6783
   33DOPE    HB 4146   3.504   3.395   2.867  0.0811 -0.2971  0.3225
   33DOPE    C2 4147   3.618   3.205   2.911  0.7776 -0.2240 -0.0541
   33DOPE    HS 4148   3.535   3.167   2.976 -0.2181  1.5680 -0.2230
   33DOPE   O21 4149   3.733   3.249   2.995 -0.1939  0.8525 -0.3458
   33DOPE   C21 4150   3.708   3.290   3.112  0.3522  0.6377  0.2954
   33DOPE   O22 4151   3.599   3.294   3.165  0.4039 -0.0993 -0.4935
   33DOPE   C22 4152   3.847   3.318   3.180  0.7251  0.5044 -0.2317
   33DOPE   H2R 4153   3.864   3.426   3.163 -0.6205  0.8559  0.4730
   33DOPE   H2S 4154   3.929   3.258   3.136  1.0290  1.6275 -1.2443
   33DOPE    C3 4155   3.663   3.088   2.828 -0.0722  0.8567  0.3164
   33DOPE    HX 4156   3.758   3.113   2.775  1.6486  0.0276  2.8183
   33DOPE    HY 4157   3.575   3.083   2.760 -2.2759  2.8272  2.8598
   33DOPE   O31 4158   3.668   2.962   2.901  0.0552  0.7391 -0.2976
   33DOPE   C31 4159   3.794   2.939   2.948  0.4872 -0.5036  0.3239
   33DOPE   O32 4160   3.890   3.011   2.954 -0.2046  0.5435  0.8761
   33DOPE   C32 4161   3.807   2.796   2.999  0.2559  1.0471 -0.1881
   33DOPE   H2X 4162   3.704   2.770   3.031  0.9588 -0.3290  1.0838
   33DOPE   H2Y 4163   3.822   2.730   2.911 -0.6548 -1.2488  1.2690
   33DOPE   C23 4164   3.848   3.278   3.336  0.9529  0.1967  0.6430
   33DOPE   H3R 4165   3.787   3.185   3.343 -1.6207  1.6103 -1.3328
   33DOPE   H3S 4166   3.802   3.362   3.393  2.1191  0.0935  1.8031
   33DOPE   C24 4167   3.990   3.262   3.392  0.1912  0.2922  0.1678
   33DOPE   H4R 4168   4.045   3.356   3.369 -0.9587  1.5019  2.0176
   33DOPE   H4S 4169   4.040   3.187   3.327 -2.1420  0.1798 -1.6395
   33DOPE   C25 4170   3.983   3.227   3.542 -0.4093 -0.3443 -0.3150
   33DOPE   H5R 4171   3.909   3.149   3.567  1.3564 -2.1839 -0.6278
   33DOPE   H5S 4172   3.952   3.321   3.593  0.9819 -0.0051 -0.0494
   33DOPE   C26 4173   4.124   3.192   3.592 -0.8026  0.1340  0.4928
   33DOPE   H6R 4174   4.161   3.097   3.546  1.0892  1.5030 -0.9583
   33DOPE   H6S 4175   4.130   3.188   3.702  1.5523  0.3113  0.4304
   33DOPE   C27 4176   4.228   3.305   3.552 -0.3903  0.1846  0.5575
   33DOPE   H7R 4177   4.193   3.399   3.599 -1.3852 -0.1764  0.5587
   33DOPE   H7S 4178   4.242   3.318   3.443  0.7153  0.0361  0.6675
   33DOPE   C28 4179   4.359   3.293   3.625 -0.7054 -0.0761 -0.0915
   33DOPE   H8R 4180   4.331   3.290   3.732  0.4650 -1.6077  0.1997
   33DOPE   H8S 4181   4.424   3.382   3.615 -1.5395  0.5493 -0.1152
   33DOPE   C29 4182   4.438   3.174   3.581 -0.2672 -0.4574 -0.3843
   33DOPE   H9R 4183   4.451   3.164   3.472  1.2823  0.0404 -0.2689
   33DOPE  C210 4184   4.496   3.083   3.663 -0.7032  0.0330  0.3428
   33DOPE  H10R 4185   4.517   2.987   3.616 -3.7216  0.5956 -2.5113
   33DOPE  C211 4186   4.488   3.095   3.811  0.6164  0.6166  0.2412
   33DOPE  H11R 4187   4.456   2.997   3.852 -0.0549 -0.0733 -1.8282
   33DOPE  H11S 4188   4.400   3.150   3.851 -1.0446 -1.1069 -0.8435
   33DOPE  C212 4189   4.614   3.156   3.859  0.3003 -0.1212  0.5674
   33DOPE  H12R 4190   4.576   3.196   3.956 -1.1684  2.7304 -1.0364
   33DOPE  H12S 4191   4.645   3.247   3.803  2.6203 -0.3110  1.4447
   33DOPE  C213 4192   4.727   3.057   3.863 -0.1370 -0.1292 -0.8529
   33DOPE  H13R 4193   4.748   3.011   3.764 -0.4333  0.2130 -1.0770
   33DOPE  H13S 4194   4.702   2.977   3.936 -1.0636  1.4808  0.6607
   33DOPE  C214 4195   4.852   3.119   3.929  0.2079 -0.2286  0.2128
   33DOPE  H14R 4196   4.823   3.175   4.020 -1.7655  1.9451 -1.6015
   33DOPE  H14S 4197   4.885   3.206   3.868 -1.6727 -0.2263 -0.8806
   33DOPE  C215 4198   4.969   3.028   3.959 -0.3194  0.0153  0.3936
   33DOPE  H15R 4199   5.010   3.006   3.858 -0.6518  2.0108 -0.2199
   33DOPE  H15S 4200   4.923   2.935   4.002 -1.1815  0.9799  1.6470
   33DOPE  C216 4201   5.078   3.078   4.056  0.5640 -0.7820 -0.2164
   33DOPE  H16R 4202   5.028   3.112   4.149 -0.3047  1.8520 -1.5303
   33DOPE  H16S 4203   5.116   3.166   3.998 -0.9971 -0.7512 -1.2388
   33DOPE  C217 4204   5.180   2.960   4.090 -0.0386  0.0323  0.5311
   33DOPE  H17R 4205   5.270   3.007   4.136  1.3817 -2.0132 -0.0265
   33DOPE  H17S 4206   5.212   2.904   3.999 -1.8128 -0.9378  0.4676
   33DOPE  C218 4207   5.115   2.865   4.193  1.0252  0.3509 -0.5108
   33DOPE  H18R 4208   5.189   2.793   4.235  1.3254  0.3659 -1.0075
   33DOPE  H18S 4209   5.039   2.814   4.131 -0.0226  0.8532  0.3206
   33DOPE  H18T 4210   5.062   2.926   4.270  1.5611 -1.8592  1.7534
   33DOPE   C33 4211   3.915   2.769   3.107  0.1246  0.3439  0.2341
   33DOPE   H3X 4212   4.007   2.824   3.077 -1.4520  2.4382 -0.9989
   33DOPE   H3Y 4213   3.951   2.664   3.101  0.0027  0.1980  1.6215
   33DOPE   C34 4214   3.870   2.817   3.251  0.4154 -0.9325  0.6178
   33DOPE   H4X 4215   3.847   2.925   3.251 -1.6882 -1.3302  0.0885
   33DOPE   H4Y 4216   3.773   2.766   3.273 -0.3549  0.4652  0.6187
   33DOPE   C35 4217   3.994   2.809   3.342  0.1447  0.5879  0.3322
   33DOPE   H5X 4218   4.058   2.890   3.302  0.5554  0.5743  0.9480
   33DOPE   H5Y 4219   4.046   2.711   3.330 -0.7455  0.1167  0.2393
   33DOPE   C36 4220   3.972   2.842   3.488 -0.3374 -0.0910 -0.1199
   33DOPE   H6X 4221   3.897   2.781   3.543  0.9468 -0.7788  0.9570
   33DOPE   H6Y 4222   3.941   2.948   3.499 -0.3951  0.2808 -3.2112
   33DOPE   C37 4223   4.099   2.821   3.577 -0.1572  0.4150  0.2180
   33DOPE   H7X 4224   4.129   2.717   3.556  1.8783  1.4374 -2.6207
   33DOPE   H7Y 4225   4.182   2.879   3.531 -0.3956  0.3963 -0.2490
   33DOPE   C38 4226   4.068   2.847   3.721  0.8565 -0.1600 -0.6360
   33DOPE   H8X 4227   4.008   2.764   3.764  0.2159  0.4885 -0.2619
   33DOPE   H8Y 4228   4.006   2.938   3.734  1.7073  0.5694 -1.5480
   33DOPE   C39 4229   4.190   2.858   3.805 -0.0387  0.9551 -0.1237
   33DOPE   H9X 4230   4.281   2.836   3.747  0.1597  2.8062 -0.5743
   33DOPE  C310 4231   4.202   2.868   3.940 -0.2947 -0.0304 -0.5912
   33DOPE  H10X 4232   4.302   2.871   3.987 -0.1688 -0.3110 -0.8371
   33DOPE  C311 4233   4.094   2.889   4.036 -0.4615 -0.9584  0.2780
   33DOPE  H11X 4234   3.995   2.894   3.986 -1.1974 -0.8801  1.6732
   33DOPE  H11Y 4235   4.073   2.802   4.102 -0.7905 -0.3621  0.9772
   33DOPE  C312 4236   4.105   3.022   4.114 -0.4037 -0.3292 -0.5100
   33DOPE  H12X 4237   4.188   3.027   4.188 -1.3699 -0.4067  0.6163
   33DOPE  H12Y 4238   4.009   3.038   4.168 -1.4792 -2.5861 -1.6004
   33DOPE  C313 4239   4.112   3.148   4.028  0.0044 -0.6958 -0.2014
   33DOPE  H13X 4240   4.209   3.161   3.977  0.1580  3.4154  0.7923
   33DOPE  H13Y 4241   4.037   3.142   3.946  0.1443  1.5041 -0.5366
   33DOPE  C314 4242   4.081   3.276   4.109  0.3279  0.6523  0.2146
   33DOPE  H14X 4243   4.135   3.284   4.205 -1.3332 -0.0339  1.2480
   33DOPE  H14Y 4244   3.972   3.272   4.134  0.2711  0.2279 -0.0898
   33DOPE  C315 4245   4.106   3.406   4.032  0.0719  0.6428  0.0353
   33DOPE  H15X 4246   4.080   3.408   3.925  2.4353  1.5269 -0.5960
   33DOPE  H15Y 4247   4.216   3.420   4.018  0.4206  0.5860  2.2391
   33DOPE  C316 4248   4.049   3.524   4.116 -0.0436 -0.7167  0.3176
   33DOPE  H16X 4249   4.071   3.618   4.061  2.4222 -2.2931 -1.6349
   33DOPE  H16Y 4250   4.108   3.531   4.209  0.3433  1.8679 -0.0571
   33DOPE  C317 4251   3.903   3.521   4.144  0.0511 -0.5411  0.2564
   33DOPE  H17X 4252   3.877   3.448   4.224 -0.0385  1.3847  2.0473
   33DOPE  H17Y 4253   3.869   3.619   4.182  1.0359 -0.1445  0.1386
   33DOPE  C318 4254   3.817   3.496   4.021  0.2021 -0.1306 -0.1308
   33DOPE  H18X 4255   3.839   3.567   3.938 -1.2349 -0.7328 -1.0590
   33DOPE  H18Y 4256   3.831   3.396   3.977  0.4777  0.7782 -2.2289
   33DOPE  H18Z 4257   3.709   3.512   4.044 -0.6776 -0.4527 -3.5464
   34DOPE     N 4258   2.440   3.900   2.794  0.6187  0.0568 -0.0925
   34DOPE   HN1 4259   2.462   3.806   2.756  1.2858  0.7102 -1.3977
   34DOPE   HN2 4260   2.342   3.904   2.827  0.5616  0.8781 -0.3315
   34DOPE   HN3 4261   2.448   3.966   2.714  3.2883  1.8767  1.5162
   34DOPE   C12 4262   2.550   3.947   2.890  0.6547  0.2621  0.5806
   34DOPE  H12A 4263   2.648   3.945   2.838 -1.3339  0.4347 -3.6085
   34DOPE  H12B 4264   2.552   3.870   2.970 -1.6257 -1.8649 -1.2496
   34DOPE   C11 4265   2.521   4.086   2.946 -0.2738 -0.7620 -0.0172
   34DOPE  H11A 4266   2.587   4.109   3.033 -1.5665  1.0350  0.5523
   34DOPE  H11B 4267   2.420   4.086   2.991  0.2372 -0.3902  1.1632
   34DOPE     P 4268   2.640   4.303   2.844 -0.2175 -0.4293 -0.4618
   34DOPE   O13 4269   2.604   4.408   2.745 -0.0158  0.3723  0.1701
   34DOPE   O14 4270   2.768   4.238   2.818 -0.0781 -0.1445  0.3502
   34DOPE   O11 4271   2.651   4.356   2.990 -0.0886 -0.4269 -0.7671
   34DOPE   O12 4272   2.528   4.190   2.844  0.7351  0.0359  0.4361
   34DOPE    C1 4273   2.561   4.467   3.037  0.0734  0.6088  0.2280
   34DOPE    HA 4274   2.466   4.470   2.979  0.9479 -0.1795 -1.3041
   34DOPE    HB 4275   2.603   4.565   3.005  1.6539 -0.4677 -1.1453
   34DOPE    C2 4276   2.537   4.460   3.185 -0.4389  0.8616 -0.3123
   34DOPE    HS 4277   2.473   4.548   3.207 -0.5197  0.5735  0.6481
   34DOPE   O21 4278   2.659   4.451   3.263  0.0127  0.5643 -0.2754
   34DOPE   C21 4279   2.721   4.570   3.277  0.0467  0.1441 -0.4357
   34DOPE   O22 4280   2.677   4.675   3.229  0.7466  0.1141  0.1437
   34DOPE   C22 4281   2.842   4.547   3.370 -0.1467 -0.6380 -1.3273
   34DOPE   H2R 4282   2.935   4.538   3.310  1.7566  0.1778  1.3401
   34DOPE   H2S 4283   2.846   4.450   3.423 -0.0839 -0.4920 -1.0643
   34DOPE    C3 4284   2.444   4.331   3.222  0.3642  0.1102  0.3263
   34DOPE    HX 4285   2.508   4.256   3.272  0.1824  2.1862  4.1156
   34DOPE    HY 4286   2.396   4.304   3.126  0.6901 -0.3468  0.2911
   34DOPE   O31 4287   2.336   4.358   3.319  0.1327  0.0853  0.3695
   34DOPE   C31 4288   2.251   4.262   3.333 -0.1828  0.5107 -0.1745
   34DOPE   O32 4289   2.253   4.144   3.292 -0.2192  0.1958  0.6757
   34DOPE   C32 4290   2.154   4.304   3.447  0.7864 -0.7825 -0.0061
   34DOPE   H2X 4291   2.155   4.415   3.459 -0.1934 -0.8405  0.8017
   34DOPE   H2Y 4292   2.047   4.289   3.419  0.4407  2.0217 -0.4907
   34DOPE   C23 4293   2.848   4.664   3.474 -0.2291  0.7055  0.0831
   34DOPE   H3R 4294   2.875   4.757   3.419 -1.7748  1.4349  0.5034
   34DOPE   H3S 4295   2.919   4.634   3.554 -1.0150 -2.2368 -0.1986
   34DOPE   C24 4296   2.706   4.693   3.540 -0.1228  0.2142 -1.2030
   34DOPE   H4R 4297   2.629   4.739   3.475 -0.5955  1.5600  0.2431
   34DOPE   H4S 4298   2.719   4.761   3.627  1.0841 -0.0309 -1.1704
   34DOPE   C25 4299   2.648   4.564   3.596  0.4955 -0.1924 -0.0097
   34DOPE   H5R 4300   2.732   4.520   3.654  0.2896 -0.8345 -0.1920
   34DOPE   H5S 4301   2.628   4.498   3.509  3.4911  0.4214 -1.2794
   34DOPE   C26 4302   2.516   4.584   3.672  0.4023 -0.2155  0.6498
   34DOPE   H6R 4303   2.471   4.483   3.674  1.0136 -0.6064 -1.8965
   34DOPE   H6S 4304   2.448   4.653   3.616 -0.9427 -0.9259  1.3645
   34DOPE   C27 4305   2.537   4.639   3.814 -0.1340 -0.3422 -0.2916
   34DOPE   H7R 4306   2.614   4.719   3.812  1.5927 -1.8553  1.2973
   34DOPE   H7S 4307   2.577   4.559   3.880  1.5391  0.6505 -0.0538
   34DOPE   C28 4308   2.420   4.707   3.893  0.1931  0.3550 -0.4612
   34DOPE   H8R 4309   2.361   4.751   3.809 -0.7768 -0.0049  0.0159
   34DOPE   H8S 4310   2.460   4.794   3.949 -0.0696  0.3920 -0.3284
   34DOPE   C29 4311   2.329   4.615   3.974 -0.6679  0.1409 -0.4555
   34DOPE   H9R 4312   2.240   4.572   3.926 -1.4132  0.0364  0.9618
   34DOPE  C210 4313   2.345   4.585   4.103 -0.4019 -0.0344 -0.0705
   34DOPE  H10R 4314   2.266   4.527   4.153 -2.0476 -0.1166 -2.5607
   34DOPE  C211 4315   2.458   4.636   4.182 -0.1798 -1.2316 -0.3850
   34DOPE  H11R 4316   2.484   4.735   4.141  0.2066 -1.9374 -1.9026
   34DOPE  H11S 4317   2.547   4.571   4.170  0.0491 -1.1024  0.5160
   34DOPE  C212 4318   2.438   4.640   4.331  0.1515  0.5093  0.5548
   34DOPE  H12R 4319   2.443   4.533   4.362 -2.8934 -0.1785 -0.8891
   34DOPE  H12S 4320   2.334   4.664   4.360  0.5541  0.8457  1.7843
   34DOPE  C213 4321   2.536   4.738   4.404 -0.0435  0.2470 -0.6236
   34DOPE  H13R 4322   2.518   4.844   4.377  1.4388  0.8457  0.5499
   34DOPE  H13S 4323   2.639   4.724   4.363  0.9313  0.5770  1.5744
   34DOPE  C214 4324   2.547   4.743   4.556 -0.6304  0.2508 -0.9568
   34DOPE  H14R 4325   2.443   4.753   4.593 -0.6055 -3.2696  0.4869
   34DOPE  H14S 4326   2.600   4.835   4.588  0.1008 -0.5743  0.2721
   34DOPE  C215 4327   2.618   4.615   4.619 -0.1657  0.0864  0.0582
   34DOPE  H15R 4328   2.713   4.593   4.566  0.0007 -0.1256  0.4483
   34DOPE  H15S 4329   2.555   4.530   4.584  1.1196 -0.2454 -1.5817
   34DOPE  C216 4330   2.642   4.635   4.772  0.3181 -0.2386  0.0675
   34DOPE  H16R 4331   2.696   4.551   4.819 -0.8865 -0.9238  0.2785
   34DOPE  H16S 4332   2.540   4.646   4.816 -0.4900 -1.2137 -1.4757
   34DOPE  C217 4333   2.732   4.756   4.806  0.3575  0.4623 -1.2239
   34DOPE  H17R 4334   2.695   4.851   4.762  0.6774  0.7659 -0.8423
   34DOPE  H17S 4335   2.831   4.727   4.763 -0.4467 -1.8367 -1.6841
   34DOPE  C218 4336   2.759   4.781   4.960  0.5711 -0.6216  0.8886
   34DOPE  H18R 4337   2.833   4.862   4.970 -1.3202  1.5499 -1.3415
   34DOPE  H18S 4338   2.789   4.680   4.996 -0.1046 -0.8733  0.7675
   34DOPE  H18T 4339   2.673   4.808   5.025 -0.9707  2.6579 -2.1530
   34DOPE   C33 4340   2.183   4.227   3.581  0.2548  0.1624 -0.3600
   34DOPE   H3X 4341   2.288   4.192   3.582  0.1828 -0.0726  0.7976
   34DOPE   H3Y 4342   2.117   4.140   3.602 -1.0063  1.1558 -0.0462
   34DOPE   C34 4343   2.153   4.326   3.700  0.2237 -0.1120 -0.3908
   34DOPE   H4X 4344   2.212   4.420   3.697  0.5468 -0.3241 -0.8009
   34DOPE   H4Y 4345   2.052   4.369   3.683  0.1200  0.5249  1.5967
   34DOPE   C35 4346   2.152   4.265   3.836  0.1452 -0.2786  0.2834
   34DOPE   H5X 4347   2.098   4.168   3.826 -0.5696  0.0648  0.7304
   34DOPE   H5Y 4348   2.100   4.324   3.914 -0.6350 -0.0608 -0.3888
   34DOPE   C36 4349   2.292   4.229   3.883 -0.0643 -0.3760  0.2965
   34DOPE   H6X 4350   2.339   4.326   3.909 -0.1250 -0.2227 -0.1725
   34DOPE   H6Y 4351   2.337   4.187   3.791  2.0996  1.7050  0.3311
   34DOPE   C37 4352   2.308   4.122   3.995  0.0858 -0.5473  0.1537
   34DOPE   H7X 4353   2.243   4.032   3.986  1.0974 -1.3352  0.4789
   34DOPE   H7Y 4354   2.407   4.075   3.976 -0.8569 -2.0090 -1.5699
   34DOPE   C38 4355   2.301   4.184   4.141  0.0797 -0.3117  0.3932
   34DOPE   H8X 4356   2.284   4.096   4.207  0.2005 -0.0382  0.7888
   34DOPE   H8Y 4357   2.204   4.238   4.142 -1.6106 -2.9192 -2.6630
   34DOPE   C39 4358   2.413   4.272   4.181 -0.0395 -0.6094 -0.4019
   34DOPE   H9X 4359   2.450   4.332   4.096  1.5108  0.9087  1.2543
   34DOPE  C310 4360   2.482   4.272   4.302 -0.7069 -0.6193  0.4816
   34DOPE  H10X 4361   2.570   4.338   4.303 -2.5482  2.0226 -0.5306
   34DOPE  C311 4362   2.463   4.179   4.414 -0.7810  0.3338  0.1941
   34DOPE  H11X 4363   2.380   4.107   4.398 -0.9378  0.8656 -1.7130
   34DOPE  H11Y 4364   2.556   4.119   4.426 -0.4836  0.4884 -1.1341
   34DOPE  C312 4365   2.440   4.258   4.544  0.2313  0.6013 -0.0223
   34DOPE  H12X 4366   2.516   4.336   4.566  0.7262  0.0667  0.1765
   34DOPE  H12Y 4367   2.447   4.177   4.618 -0.9588  1.2040  0.7874
   34DOPE  C313 4368   2.291   4.307   4.562 -0.3241 -0.0955 -0.3123
   34DOPE  H13X 4369   2.257   4.373   4.479  0.3890  2.0974  1.0266
   34DOPE  H13Y 4370   2.223   4.220   4.563 -1.5925  0.8215  2.0209
   34DOPE  C314 4371   2.259   4.368   4.698 -0.6313  0.2111 -0.3721
   34DOPE  H14X 4372   2.312   4.464   4.715 -0.4154  0.1450 -0.6787
   34DOPE  H14Y 4373   2.307   4.309   4.780  1.3703  1.5743 -0.4935
   34DOPE  C315 4374   2.110   4.400   4.723  0.8378  0.0348 -0.0663
   34DOPE  H15X 4375   2.072   4.471   4.647 -0.6863 -2.0680 -1.3773
   34DOPE  H15Y 4376   2.109   4.461   4.816  1.9233  1.5006 -0.9705
   34DOPE  C316 4377   2.019   4.278   4.753 -0.6519  0.0019 -0.0261
   34DOPE  H16X 4378   2.041   4.247   4.858 -1.6381 -3.3518 -0.6754
   34DOPE  H16Y 4379   2.047   4.182   4.705  0.1489 -1.8203  3.6631
   34DOPE  C317 4380   1.865   4.313   4.741 -0.5747  0.3747  0.5492
   34DOPE  H17X 4381   1.843   4.401   4.804  1.2359  1.0381  0.3128
   34DOPE  H17Y 4382   1.843   4.343   4.637  2.9775  0.5591 -0.2867
   34DOPE  C318 4383   1.776   4.200   4.776  0.0169 -0.0229 -0.3947
   34DOPE  H18X 4384   1.671   4.232   4.791 -0.0978 -0.1063 -1.0350
   34DOPE  H18Y 4385   1.768   4.125   4.695  1.4623 -0.0576 -0.5340
   34DOPE  H18Z 4386   1.809   4.146   4.868 -3.4800 -1.2362  0.3161
   35DOPE     N 4387   6.769   2.925   2.361 -0.2304  0.6080 -0.5521
   35DOPE   HN1 4388   6.781   2.942   2.259 -1.5494 -0.4678 -0.9251
   35DOPE   HN2 4389   6.745   2.824   2.370 -0.3270  0.6557 -0.2559
   35DOPE   HN3 4390   6.685   2.969   2.403 -0.8369 -1.5220  0.6480
   35DOPE   C12 4391   6.887   2.968   2.433 -0.5738 -0.3675 -0.0295
   35DOPE  H12A 4392   6.886   2.923   2.535 -1.6287  2.2666  1.2279
   35DOPE  H12B 4393   6.887   3.079   2.436 -1.0904 -0.3817  0.5954
   35DOPE   C11 4394   7.016   2.931   2.357 -0.5358 -0.0985 -0.3189
   35DOPE  H11A 4395   7.013   2.982   2.259 -3.8974  1.2771  0.3779
   35DOPE  H11B 4396   7.013   2.823   2.329  1.6523 -0.0298 -0.9551
   35DOPE     P 4397   7.214   2.882   2.531 -0.2956  0.0637  0.3525
   35DOPE   O13 4398   7.347   2.936   2.526 -0.0105  0.9671 -0.1410
   35DOPE   O14 4399   7.196   2.742   2.493  0.1503  0.3051  0.1357
   35DOPE   O11 4400   7.149   2.908   2.675  0.2006  0.1798 -0.2450
   35DOPE   O12 4401   7.136   2.972   2.429  0.0771  0.2462  0.1554
   35DOPE    C1 4402   7.196   2.840   2.789 -0.1239 -0.1316 -0.3371
   35DOPE    HA 4403   7.188   2.905   2.878  1.0341 -0.4667  0.0442
   35DOPE    HB 4404   7.307   2.833   2.784 -0.0902 -0.9315  0.9763
   35DOPE    C2 4405   7.127   2.703   2.812 -0.1416 -0.0662  0.3502
   35DOPE    HS 4406   7.155   2.646   2.721 -2.7810 -0.5107 -0.2543
   35DOPE   O21 4407   6.984   2.724   2.832 -0.4108 -0.1503 -0.0042
   35DOPE   C21 4408   6.906   2.632   2.787  0.6623 -0.3034 -0.5250
   35DOPE   O22 4409   6.939   2.542   2.709  0.0631 -0.2506 -0.0790
   35DOPE   C22 4410   6.767   2.649   2.848  0.1722  0.1575 -0.1528
   35DOPE   H2R 4411   6.706   2.733   2.807 -3.5404 -1.5853  1.3041
   35DOPE   H2S 4412   6.776   2.671   2.957 -1.3059  1.0765 -0.1854
   35DOPE    C3 4413   7.171   2.623   2.937  0.2521  0.4338  0.2908
   35DOPE    HX 4414   7.277   2.589   2.930  0.0496 -0.6273  1.8750
   35DOPE    HY 4415   7.121   2.524   2.927  1.0047  0.1533 -0.9340
   35DOPE   O31 4416   7.134   2.676   3.067  0.9203  0.2490 -0.0934
   35DOPE   C31 4417   7.230   2.754   3.116 -0.0747 -0.5531 -0.1719
   35DOPE   O32 4418   7.338   2.762   3.071 -0.3107 -0.2244 -0.3975
   35DOPE   C32 4419   7.168   2.834   3.223 -0.5884  0.3165 -0.1468
   35DOPE   H2X 4420   7.115   2.925   3.187  1.0642  3.0028  3.5899
   35DOPE   H2Y 4421   7.105   2.772   3.291  0.7830 -2.3211 -1.1421
   35DOPE   C23 4422   6.685   2.517   2.825  0.0405  0.0894 -0.3715
   35DOPE   H3R 4423   6.679   2.502   2.715  0.9238  1.4932 -0.6199
   35DOPE   H3S 4424   6.580   2.534   2.859  0.6912 -1.1173  2.5834
   35DOPE   C24 4425   6.727   2.388   2.902  0.3713 -0.2195 -0.6649
   35DOPE   H4R 4426   6.830   2.360   2.871  1.2160 -0.2286  1.8878
   35DOPE   H4S 4427   6.652   2.309   2.881 -0.1885 -0.6481  2.4818
   35DOPE   C25 4428   6.727   2.397   3.056  0.2669 -0.0525 -0.5420
   35DOPE   H5R 4429   6.618   2.400   3.079 -0.0005  2.5550 -1.8185
   35DOPE   H5S 4430   6.776   2.490   3.092  1.2376 -1.0366  0.7861
   35DOPE   C26 4431   6.778   2.278   3.128 -0.3000  0.3143  0.3511
   35DOPE   H6R 4432   6.889   2.278   3.123 -0.3516  0.7979 -2.7537
   35DOPE   H6S 4433   6.747   2.186   3.073  2.7728 -0.0296 -0.9640
   35DOPE   C27 4434   6.740   2.261   3.273  0.2899 -0.1275 -0.4689
   35DOPE   H7R 4435   6.638   2.298   3.297 -0.2085 -1.4597 -0.4100
   35DOPE   H7S 4436   6.807   2.323   3.337  0.5523 -1.6312  0.7884
   35DOPE   C28 4437   6.766   2.123   3.338 -0.5979 -0.1169 -0.0748
   35DOPE   H8R 4438   6.744   2.139   3.445 -0.5783 -0.6427  0.0132
   35DOPE   H8S 4439   6.871   2.086   3.337 -0.8425 -1.0772  2.2776
   35DOPE   C29 4440   6.680   2.020   3.269 -0.2261  0.0512  0.3486
   35DOPE   H9R 4441   6.716   1.980   3.173  1.6168  2.7749 -0.2124
   35DOPE  C210 4442   6.559   1.981   3.309  0.8299 -0.2269 -0.7856
   35DOPE  H10R 4443   6.521   1.894   3.252 -0.6421  0.3281 -0.6889
   35DOPE  C211 4444   6.490   2.029   3.434  0.5001  0.4220 -0.5790
   35DOPE  H11R 4445   6.406   2.101   3.420  1.0133  0.8110 -1.7890
   35DOPE  H11S 4446   6.560   2.083   3.502  0.9122  0.2177 -0.8352
   35DOPE  C212 4447   6.444   1.904   3.521 -1.0390 -0.8367  0.5312
   35DOPE  H12R 4448   6.523   1.826   3.530  0.0958 -0.0573 -1.7980
   35DOPE  H12S 4449   6.360   1.848   3.474  0.1339 -4.2506  2.1219
   35DOPE  C213 4450   6.409   1.937   3.669 -0.3800  0.7376 -0.2943
   35DOPE  H13R 4451   6.368   1.844   3.714 -2.8934  1.6796 -0.4897
   35DOPE  H13S 4452   6.337   2.021   3.662 -0.8017  0.2430 -2.7838
   35DOPE  C214 4453   6.537   1.970   3.749 -0.3748  0.7491 -0.0928
   35DOPE  H14R 4454   6.602   2.044   3.697  0.3734 -1.2669 -2.1931
   35DOPE  H14S 4455   6.592   1.875   3.759 -1.4484 -0.0256 -1.2608
   35DOPE  C215 4456   6.498   2.024   3.890  0.1750  0.0529 -0.4636
   35DOPE  H15R 4457   6.471   2.131   3.879  2.4392  0.5187 -2.4409
   35DOPE  H15S 4458   6.595   2.010   3.943 -0.1522  0.0715  0.1547
   35DOPE  C216 4459   6.385   1.945   3.961  0.0899 -0.3370  0.2084
   35DOPE  H16R 4460   6.413   1.838   3.948 -0.6103 -0.3343 -1.7216
   35DOPE  H16S 4461   6.285   1.948   3.913 -1.2946 -0.0184  2.9205
   35DOPE  C217 4462   6.371   1.985   4.110 -0.6638 -0.4429 -0.2707
   35DOPE  H17R 4463   6.334   2.089   4.121 -2.3416 -0.9791 -0.6746
   35DOPE  H17S 4464   6.466   1.981   4.168 -0.4032  4.2004  0.0279
   35DOPE  C218 4465   6.275   1.880   4.179 -0.0540 -0.2724  0.3922
   35DOPE  H18R 4466   6.169   1.894   4.149  0.1047 -0.7815 -0.4429
   35DOPE  H18S 4467   6.292   1.867   4.288  0.8885  0.4349  0.3456
   35DOPE  H18T 4468   6.291   1.782   4.129  0.2608 -0.8181  1.5160
   35DOPE   C33 4469   7.279   2.880   3.327  1.0495 -0.9625  0.1264
   35DOPE   H3X 4470   7.349   2.950   3.276  1.0415  0.0707  1.4865
   35DOPE   H3Y 4471   7.334   2.787   3.354  1.3777 -0.9141 -0.3445
   35DOPE   C34 4472   7.223   2.949   3.450  0.1825  0.4806 -0.4988
   35DOPE   H4X 4473   7.290   3.029   3.490 -0.9658  0.4805  1.6139
   35DOPE   H4Y 4474   7.126   2.992   3.418  0.1490  0.9833  0.2385
   35DOPE   C35 4475   7.185   2.847   3.565  0.2581  0.1101  0.0011
   35DOPE   H5X 4476   7.281   2.818   3.614  0.8497  0.0027 -1.1783
   35DOPE   H5Y 4477   7.147   2.750   3.527  0.7438 -0.1273  0.1137
   35DOPE   C36 4478   7.083   2.902   3.660 -0.2733  0.4470 -0.0908
   35DOPE   H6X 4479   7.054   2.833   3.742 -0.0908  2.6588  1.9606
   35DOPE   H6Y 4480   6.991   2.931   3.604 -0.6272 -0.1484  0.1802
   35DOPE   C37 4481   7.131   3.027   3.735 -0.7599 -0.4207 -0.3295
   35DOPE   H7X 4482   7.233   3.012   3.774 -0.8544 -0.2214 -0.0058
   35DOPE   H7Y 4483   7.134   3.118   3.670 -1.0104  0.7153  1.1949
   35DOPE   C38 4484   7.050   3.070   3.855  0.2271  0.5207  0.1139
   35DOPE   H8X 4485   6.946   3.058   3.819  0.6935 -0.0557 -1.0865
   35DOPE   H8Y 4486   7.056   3.180   3.873  0.5165  0.5732 -0.2710
   35DOPE   C39 4487   7.077   3.006   3.988  1.0691  0.3076  0.1767
   35DOPE   H9X 4488   7.179   3.025   4.026  1.4685  1.6581 -1.4798
   35DOPE  C310 4489   6.984   2.957   4.075  0.3356  0.3156 -0.4854
   35DOPE  H10X 4490   7.029   2.923   4.170  0.8032 -0.3572 -0.9365
   35DOPE  C311 4491   6.840   2.937   4.058 -0.2531  0.3455 -0.0830
   35DOPE  H11X 4492   6.788   3.006   4.128 -0.0654 -0.4148  0.8106
   35DOPE  H11Y 4493   6.814   2.968   3.954 -0.0569  0.6269 -0.0503
   35DOPE  C312 4494   6.786   2.798   4.091 -0.3947  0.1333  0.3054
   35DOPE  H12X 4495   6.848   2.723   4.037 -0.7728  0.0340  0.0081
   35DOPE  H12Y 4496   6.683   2.795   4.052  0.0144 -0.4153 -0.7515
   35DOPE  C313 4497   6.792   2.762   4.241 -0.6566  0.4461 -0.5523
   35DOPE  H13X 4498   6.899   2.757   4.271 -0.6058  1.5322 -0.5140
   35DOPE  H13Y 4499   6.742   2.845   4.296  3.2843  2.0384  1.0573
   35DOPE  C314 4500   6.717   2.623   4.267 -0.1179  0.3787  0.3766
   35DOPE  H14X 4501   6.622   2.623   4.210  0.3187 -1.0035 -0.3856
   35DOPE  H14Y 4502   6.704   2.614   4.377  0.7652  1.2837  0.5749
   35DOPE  C315 4503   6.799   2.502   4.211 -0.9056 -0.5922  0.2987
   35DOPE  H15X 4504   6.907   2.519   4.233 -0.3935 -3.5689  0.5081
   35DOPE  H15Y 4505   6.789   2.502   4.101  2.1910 -0.5838 -0.0753
   35DOPE  C316 4506   6.757   2.372   4.274  0.6285 -0.2604 -0.5311
   35DOPE  H16X 4507   6.649   2.352   4.258  0.4327 -1.6710  1.9138
   35DOPE  H16Y 4508   6.769   2.390   4.383  0.4865  0.7976 -0.6855
   35DOPE  C317 4509   6.836   2.252   4.220  0.2426 -0.4368 -0.5487
   35DOPE  H17X 4510   6.844   2.248   4.109 -1.4529 -0.7054 -0.6771
   35DOPE  H17Y 4511   6.942   2.268   4.252  0.0449  0.9788 -0.5264
   35DOPE  C318 4512   6.787   2.117   4.270  0.3424 -0.3978  0.4926
   35DOPE  H18X 4513   6.677   2.109   4.254  0.6087 -1.1120 -1.2349
   35DOPE  H18Y 4514   6.832   2.030   4.219  1.0940 -0.0694  0.5883
   35DOPE  H18Z 4515   6.819   2.095   4.374  0.8569  1.9244  0.8870
   36DOPE     N 4516   5.446   4.375   2.387  0.3312 -0.1188 -0.2624
   36DOPE   HN1 4517   5.499   4.294   2.350  1.7156  0.7057 -0.1591
   36DOPE   HN2 4518   5.448   4.454   2.319 -2.7400  0.8446  0.6255
   36DOPE   HN3 4519   5.503   4.406   2.469 -0.4153 -2.4149  1.2165
   36DOPE   C12 4520   5.303   4.357   2.418 -0.5563 -0.1040 -0.5019
   36DOPE  H12A 4521   5.248   4.344   2.323 -1.7975 -0.4647  0.2362
   36DOPE  H12B 4522   5.264   4.455   2.452  0.4016  1.1765 -2.8602
   36DOPE   C11 4523   5.265   4.245   2.515  0.5489  0.3148 -0.0861
   36DOPE  H11A 4524   5.154   4.237   2.509  0.4248  1.7163  0.0347
   36DOPE  H11B 4525   5.278   4.279   2.620  0.9768 -1.2294  0.3769
   36DOPE     P 4526   5.377   4.006   2.585  0.0147  0.2971  0.2359
   36DOPE   O13 4527   5.499   3.939   2.544 -0.3581 -0.2012 -0.3520
   36DOPE   O14 4528   5.259   3.920   2.618  0.0995 -0.4125 -0.1647
   36DOPE   O11 4529   5.406   4.097   2.707 -0.3444 -0.3632  0.1468
   36DOPE   O12 4530   5.332   4.123   2.484 -0.0905  0.0959  0.4353
   36DOPE    C1 4531   5.530   4.095   2.779  0.6626 -0.4865  0.4013
   36DOPE    HA 4532   5.602   4.131   2.703  0.4565 -1.0141 -0.0462
   36DOPE    HB 4533   5.557   3.989   2.798  0.8580 -0.7150 -1.0661
   36DOPE    C2 4534   5.522   4.183   2.908 -0.7543 -0.1081 -0.5568
   36DOPE    HS 4535   5.624   4.188   2.952  0.2484 -0.8973 -2.6543
   36DOPE   O21 4536   5.413   4.144   2.992 -0.2000 -0.2493 -0.0821
   36DOPE   C21 4537   5.433   4.030   3.053  0.7318 -0.2131 -0.2497
   36DOPE   O22 4538   5.532   3.959   3.056 -0.4244 -0.2029  0.6468
   36DOPE   C22 4539   5.302   3.998   3.123 -0.1184 -0.5476 -0.1247
   36DOPE   H2R 4540   5.312   3.916   3.199 -0.2006  0.1682  0.6751
   36DOPE   H2S 4541   5.232   3.955   3.048 -1.5589 -1.6543  1.7545
   36DOPE    C3 4542   5.497   4.332   2.871 -0.3103  0.1520 -0.3115
   36DOPE    HX 4543   5.411   4.344   2.802 -0.9107  1.5235  0.6332
   36DOPE    HY 4544   5.597   4.361   2.832  0.0769  0.5067  0.9008
   36DOPE   O31 4545   5.473   4.398   2.997  0.4075  0.0616  0.4200
   36DOPE   C31 4546   5.381   4.490   3.007  0.3058  0.2355 -0.6806
   36DOPE   O32 4547   5.319   4.546   2.914 -0.5546 -0.5560 -0.4273
   36DOPE   C32 4548   5.354   4.515   3.154 -0.6033  0.2778 -0.4500
   36DOPE   H2X 4549   5.299   4.612   3.160  0.3558  0.7509  3.1650
   36DOPE   H2Y 4550   5.294   4.426   3.180  1.0442 -1.1228 -1.2584
   36DOPE   C23 4551   5.232   4.116   3.201 -0.1869 -0.4786 -0.0102
   36DOPE   H3R 4552   5.123   4.097   3.203 -0.1086 -0.8836  1.6265
   36DOPE   H3S 4553   5.237   4.203   3.133 -1.4477 -1.4271 -1.3719
   36DOPE   C24 4554   5.287   4.151   3.341  0.3210  0.2082  0.2383
   36DOPE   H4R 4555   5.221   4.228   3.385  1.3430  0.8967  0.6202
   36DOPE   H4S 4556   5.388   4.196   3.325 -0.8094  1.9893 -2.5829
   36DOPE   C25 4557   5.296   4.039   3.440 -0.1714  0.4048  0.9983
   36DOPE   H5R 4558   5.364   3.959   3.405 -0.4167  1.1414 -1.3688
   36DOPE   H5S 4559   5.201   3.982   3.436  0.0098  0.1470 -1.0330
   36DOPE   C26 4560   5.331   4.075   3.582 -0.7512 -0.4289  0.2477
   36DOPE   H6R 4561   5.265   4.156   3.622  3.4928  3.2640  0.5262
   36DOPE   H6S 4562   5.426   4.131   3.574 -1.4787  0.6371 -1.2743
   36DOPE   C27 4563   5.337   3.963   3.686 -1.0194  0.3612  0.4529
   36DOPE   H7R 4564   5.423   3.897   3.659 -1.7088 -0.5304  0.4057
   36DOPE   H7S 4565   5.253   3.892   3.672  0.2687 -1.0111 -0.7831
   36DOPE   C28 4566   5.350   4.016   3.829 -0.2019 -0.0418 -0.7113
   36DOPE   H8R 4567   5.254   4.070   3.835 -0.1594 -0.0410  0.1218
   36DOPE   H8S 4568   5.433   4.090   3.833 -0.3240  0.1557 -1.6779
   36DOPE   C29 4569   5.375   3.925   3.955 -0.0715 -0.2329 -0.3880
   36DOPE   H9R 4570   5.466   3.954   4.007  0.8789 -0.4029 -1.8853
   36DOPE  C210 4571   5.293   3.830   3.998  0.3238  0.0415 -0.1249
   36DOPE  H10R 4572   5.328   3.764   4.079 -2.9933 -1.1777  0.4535
   36DOPE  C211 4573   5.166   3.789   3.931 -0.9044 -0.2547 -0.2594
   36DOPE  H11R 4574   5.139   3.884   3.881  0.3730 -0.0197 -0.5310
   36DOPE  H11S 4575   5.089   3.776   4.010  0.9613 -1.0946  1.5372
   36DOPE  C212 4576   5.173   3.676   3.828 -0.6107 -0.0992  0.7810
   36DOPE  H12R 4577   5.181   3.590   3.898 -1.4980 -1.2925 -0.5328
   36DOPE  H12S 4578   5.265   3.684   3.766 -0.2536  1.8304  1.4858
   36DOPE  C213 4579   5.051   3.668   3.734 -0.1545 -0.6925  0.2233
   36DOPE  H13R 4580   5.065   3.730   3.642 -2.3112 -0.0079  0.3150
   36DOPE  H13S 4581   4.973   3.706   3.802  0.4996 -2.3090  1.9444
   36DOPE  C214 4582   5.013   3.523   3.687 -0.5869  0.3744 -0.5280
   36DOPE  H14R 4583   5.025   3.460   3.777 -2.0069  0.6441 -0.1219
   36DOPE  H14S 4584   5.088   3.497   3.609  0.7329  4.8173 -1.0020
   36DOPE  C215 4585   4.869   3.518   3.631  0.3010 -0.1256  0.3003
   36DOPE  H15R 4586   4.854   3.577   3.538  0.2478  1.2083  1.1248
   36DOPE  H15S 4587   4.818   3.573   3.713  0.2282 -1.9787  1.5547
   36DOPE  C216 4588   4.826   3.374   3.626 -0.3043  0.0829 -0.4329
   36DOPE  H16R 4589   4.715   3.362   3.623 -0.3032  0.0258 -0.2367
   36DOPE  H16S 4590   4.855   3.317   3.717 -0.1136 -0.6021 -0.9152
   36DOPE  C217 4591   4.860   3.306   3.492 -0.1755  0.1169 -0.0466
   36DOPE  H17R 4592   4.965   3.270   3.493  0.2567  1.3373 -0.5176
   36DOPE  H17S 4593   4.851   3.368   3.401 -1.7834 -1.8753 -1.3393
   36DOPE  C218 4594   4.775   3.187   3.470  0.1539 -0.0823  0.5427
   36DOPE  H18R 4595   4.683   3.214   3.413  1.1398 -0.7113 -1.4250
   36DOPE  H18S 4596   4.754   3.125   3.559 -3.0444  0.7222  0.4891
   36DOPE  H18T 4597   4.824   3.116   3.400 -1.6186 -0.0555 -0.8077
   36DOPE   C33 4598   5.475   4.510   3.250  0.2592 -0.1551  0.8166
   36DOPE   H3X 4599   5.523   4.603   3.211  0.1434 -0.5780 -0.3753
   36DOPE   H3Y 4600   5.545   4.426   3.234  0.1741 -0.3983  1.7092
   36DOPE   C34 4601   5.422   4.514   3.396  0.0229 -0.8491 -0.1091
   36DOPE   H4X 4602   5.371   4.612   3.409  0.9302 -0.5727  1.6010
   36DOPE   H4Y 4603   5.352   4.432   3.425  1.1121 -1.3926  1.0644
   36DOPE   C35 4604   5.529   4.514   3.510  0.1909 -0.1471 -0.5762
   36DOPE   H5X 4605   5.614   4.583   3.491  0.9821 -0.8040  0.4331
   36DOPE   H5Y 4606   5.571   4.411   3.514  0.7737  0.1279  1.1780
   36DOPE   C36 4607   5.473   4.515   3.658 -0.2926  0.4041 -0.2437
   36DOPE   H6X 4608   5.380   4.455   3.652 -1.0240  1.5891 -1.2010
   36DOPE   H6Y 4609   5.444   4.621   3.679 -0.3900  0.4906 -0.7935
   36DOPE   C37 4610   5.569   4.469   3.770 -0.0901 -0.3372 -0.0245
   36DOPE   H7X 4611   5.617   4.369   3.756  0.8435 -0.1848  1.7804
   36DOPE   H7Y 4612   5.651   4.544   3.774 -0.7104  0.4012 -0.7335
   36DOPE   C38 4613   5.504   4.459   3.911 -0.2680 -0.1697  0.7959
   36DOPE   H8X 4614   5.437   4.371   3.899  2.1309 -1.8142 -1.9810
   36DOPE   H8Y 4615   5.445   4.553   3.917 -1.8058 -1.1108  1.1225
   36DOPE   C39 4616   5.600   4.443   4.023 -0.9481  0.0240  0.5334
   36DOPE   H9X 4617   5.685   4.512   4.022  0.2771 -1.4245 -0.0258
   36DOPE  C310 4618   5.594   4.347   4.120 -0.2961 -0.6987  0.2868
   36DOPE  H10X 4619   5.672   4.348   4.198 -0.1345  0.5821  0.1361
   36DOPE  C311 4620   5.479   4.248   4.136 -0.1337 -0.2790  0.0651
   36DOPE  H11X 4621   5.383   4.288   4.096  0.1787 -0.4276 -0.8569
   36DOPE  H11Y 4622   5.502   4.167   4.062  0.6576 -0.3318  0.3548
   36DOPE  C312 4623   5.469   4.205   4.281 -0.4010  0.3752  0.4224
   36DOPE  H12X 4624   5.430   4.287   4.345 -1.6654 -0.2011  0.4075
   36DOPE  H12Y 4625   5.563   4.161   4.323 -0.4308 -1.0216 -0.8918
   36DOPE  C313 4626   5.376   4.081   4.290  0.0091 -0.6830  0.2008
   36DOPE  H13X 4627   5.280   4.109   4.242  0.1476  1.4258  1.0285
   36DOPE  H13Y 4628   5.417   3.986   4.250  1.6221 -0.2680  0.8055
   36DOPE  C314 4629   5.337   4.047   4.431  0.4017  0.0597  0.1425
   36DOPE  H14X 4630   5.259   4.111   4.478  0.1394 -0.9035  1.0582
   36DOPE  H14Y 4631   5.432   4.055   4.488  0.1132 -0.7957  0.7757
   36DOPE  C315 4632   5.272   3.911   4.443  0.2891 -0.6469 -0.4007
   36DOPE  H15X 4633   5.325   3.839   4.377  1.6220 -0.4167  0.3837
   36DOPE  H15Y 4634   5.168   3.917   4.405 -0.9341 -1.9985  2.4831
   36DOPE  C316 4635   5.263   3.858   4.588 -0.6940 -0.5321  0.5303
   36DOPE  H16X 4636   5.182   3.781   4.592 -0.8478 -0.3178  2.5052
   36DOPE  H16Y 4637   5.232   3.927   4.670  1.3500 -0.9878  1.7596
   36DOPE  C317 4638   5.388   3.786   4.634  0.4035 -0.0063  0.5928
   36DOPE  H17X 4639   5.411   3.693   4.578 -0.7547  0.0616 -0.0422
   36DOPE  H17Y 4640   5.470   3.858   4.610  0.5303  0.3651  2.0400
   36DOPE  C318 4641   5.384   3.750   4.782  0.1816 -0.1451 -0.1382
   36DOPE  H18X 4642   5.326   3.826   4.839 -2.2746 -0.8650 -1.5279
   36DOPE  H18Y 4643   5.332   3.654   4.801 -0.7343  0.7225  2.1319
   36DOPE  H18Z 4644   5.485   3.748   4.829 -0.4147  2.8512  1.5524
   37DOPE     N 4645   2.690   3.434   2.153  0.1093  0.4558 -0.1504
   37DOPE   HN1 4646   2.589   3.425   2.128  0.0319 -0.8275  0.5203
   37DOPE   HN2 4647   2.729   3.521   2.113 -0.0357  0.2414 -0.7775
   37DOPE   HN3 4648   2.743   3.350   2.122  3.2307  1.2024  2.6297
   37DOPE   C12 4649   2.702   3.437   2.306  0.4017 -0.0585  1.0304
   37DOPE  H12A 4650   2.637   3.354   2.340 -1.7603  0.5619 -1.2751
   37DOPE  H12B 4651   2.647   3.529   2.338  1.7838  0.8172  0.9612
   37DOPE   C11 4652   2.847   3.415   2.342 -0.8691 -0.5136 -0.8549
   37DOPE  H11A 4653   2.863   3.420   2.452  0.8898  1.2375 -1.1490
   37DOPE  H11B 4654   2.899   3.498   2.291  0.0531 -1.6761 -1.8696
   37DOPE     P 4655   3.009   3.201   2.348 -0.4552  0.0848  0.0641
   37DOPE   O13 4656   3.132   3.281   2.348 -0.1678 -0.0158  0.1836
   37DOPE   O14 4657   3.013   3.075   2.276  0.1569  0.7853  0.6173
   37DOPE   O11 4658   2.968   3.166   2.501 -0.0475 -0.0688 -0.2624
   37DOPE   O12 4659   2.892   3.289   2.297 -0.2124  0.2205 -0.7370
   37DOPE    C1 4660   2.844   3.092   2.517 -0.1072 -0.2825  0.7389
   37DOPE    HA 4661   2.871   2.988   2.488  0.3267  0.7060 -2.8861
   37DOPE    HB 4662   2.765   3.139   2.454  0.8741  1.0723  0.4807
   37DOPE    C2 4663   2.775   3.097   2.656 -0.4686 -0.6137  0.2156
   37DOPE    HS 4664   2.744   3.201   2.682  1.4234 -0.1161  0.6168
   37DOPE   O21 4665   2.876   3.064   2.752  1.1291  0.0969  0.0631
   37DOPE   C21 4666   2.859   3.111   2.871 -0.3537 -0.1898  0.1809
   37DOPE   O22 4667   2.776   3.195   2.903 -1.0337  0.3553 -1.1556
   37DOPE   C22 4668   2.949   3.036   2.968 -0.4075  0.1096 -0.6880
   37DOPE   H2R 4669   3.050   3.072   2.938 -0.8542  3.0245  0.9939
   37DOPE   H2S 4670   2.935   2.927   2.951  1.3522  0.0782 -2.2611
   37DOPE    C3 4671   2.667   2.991   2.660  0.2221 -0.0275 -0.3994
   37DOPE    HX 4672   2.725   2.896   2.667  0.7958  0.4031  1.1284
   37DOPE    HY 4673   2.604   2.984   2.568 -0.2916 -0.2982 -0.0341
   37DOPE   O31 4674   2.586   2.990   2.778 -0.3455  0.6369  0.1010
   37DOPE   C31 4675   2.497   3.093   2.784 -0.1987  0.0025 -0.1981
   37DOPE   O32 4676   2.501   3.189   2.706  0.0639 -0.4669  0.3117
   37DOPE   C32 4677   2.404   3.085   2.906  0.1293  0.4263 -0.7791
   37DOPE   H2X 4678   2.365   3.186   2.929  0.8675  0.8266 -1.2571
   37DOPE   H2Y 4679   2.319   3.017   2.882  1.0622 -1.3195  0.6286
   37DOPE   C23 4680   2.913   3.076   3.110 -0.2054 -0.3323 -0.4833
   37DOPE   H3R 4681   2.813   3.041   3.144 -0.9558 -0.3483 -2.5145
   37DOPE   H3S 4682   2.907   3.187   3.108 -1.7285 -0.3953 -0.3233
   37DOPE   C24 4683   3.008   3.029   3.217 -0.2043  0.1694 -0.7637
   37DOPE   H4R 4684   3.115   3.048   3.193  0.0390 -2.2293 -1.8027
   37DOPE   H4S 4685   3.006   2.918   3.216  1.1477  0.1088 -0.0904
   37DOPE   C25 4686   2.976   3.079   3.362 -0.6929  0.6785 -0.7907
   37DOPE   H5R 4687   2.869   3.056   3.379 -0.7686 -0.2020 -2.3170
   37DOPE   H5S 4688   2.994   3.188   3.377  1.2873  0.4703 -1.3689
   37DOPE   C26 4689   3.046   2.992   3.465 -0.2259  0.0501 -0.5376
   37DOPE   H6R 4690   3.154   2.997   3.440  0.2979 -1.1622  1.2951
   37DOPE   H6S 4691   3.002   2.890   3.456 -1.5017  0.2554  2.4083
   37DOPE   C27 4692   3.025   3.048   3.606 -0.0667  0.1483 -0.4777
   37DOPE   H7R 4693   3.076   3.146   3.616  0.7093 -0.2382 -0.5570
   37DOPE   H7S 4694   3.072   2.975   3.676 -1.0659 -2.1829 -2.1096
   37DOPE   C28 4695   2.872   3.046   3.649  0.5788  0.1274  0.2196
   37DOPE   H8R 4696   2.837   3.131   3.587 -0.1523 -0.7728 -0.6259
   37DOPE   H8S 4697   2.868   3.080   3.755 -0.5585 -0.7875  0.4924
   37DOPE   C29 4698   2.786   2.919   3.625  0.3418  0.5912 -0.0129
   37DOPE   H9R 4699   2.779   2.897   3.518 -2.4372  0.6966  0.0788
   37DOPE  C210 4700   2.728   2.839   3.719 -0.2087 -0.3492 -0.2552
   37DOPE  H10R 4701   2.678   2.745   3.692  0.6998 -0.8367 -0.3001
   37DOPE  C211 4702   2.737   2.871   3.868  0.0419  0.7361 -0.6174
   37DOPE  H11R 4703   2.662   2.949   3.894 -0.2026  0.4229 -0.3914
   37DOPE  H11S 4704   2.837   2.906   3.903  1.0624 -2.2594 -0.2997
   37DOPE  C212 4705   2.710   2.738   3.930  0.1223  0.0535 -0.4919
   37DOPE  H12R 4706   2.777   2.652   3.907  0.7786 -0.0942  1.7960
   37DOPE  H12S 4707   2.613   2.689   3.906  0.4489  0.4910 -3.0602
   37DOPE  C213 4708   2.711   2.742   4.087 -0.4185 -0.3856  0.9307
   37DOPE  H13R 4709   2.813   2.763   4.124 -0.4583 -0.3108  0.9993
   37DOPE  H13S 4710   2.695   2.641   4.131 -1.7469 -0.3654  0.5357
   37DOPE  C214 4711   2.602   2.835   4.143 -0.2818  0.5159 -0.1500
   37DOPE  H14R 4712   2.511   2.819   4.080  0.6887  0.5863 -1.6317
   37DOPE  H14S 4713   2.626   2.943   4.134  0.1383  0.6123  1.7119
   37DOPE  C215 4714   2.570   2.817   4.292 -0.0500 -0.3893  0.1009
   37DOPE  H15R 4715   2.655   2.779   4.352 -0.2091  0.5768  0.9619
   37DOPE  H15S 4716   2.494   2.735   4.290  0.8650 -1.2903  1.0919
   37DOPE  C216 4717   2.512   2.940   4.357  0.3482 -0.5861  0.0866
   37DOPE  H16R 4718   2.588   3.021   4.364 -1.6468  1.3262  0.9862
   37DOPE  H16S 4719   2.485   2.920   4.463 -0.6045  2.7831  0.6208
   37DOPE  C217 4720   2.382   2.993   4.287 -0.6625  0.4180  0.5113
   37DOPE  H17R 4721   2.307   2.915   4.260  0.6730 -0.0821 -2.1427
   37DOPE  H17S 4722   2.414   3.018   4.183 -0.5621 -2.0671 -0.1264
   37DOPE  C218 4723   2.327   3.112   4.357 -0.0842  0.2235 -0.4033
   37DOPE  H18R 4724   2.219   3.126   4.340 -0.2705  0.4518  0.8758
   37DOPE  H18S 4725   2.383   3.201   4.322 -1.1854  2.1410  2.4128
   37DOPE  H18T 4726   2.341   3.101   4.467 -1.5606  1.0678 -0.1190
   37DOPE   C33 4727   2.460   3.055   3.051 -0.2196  0.9310  0.1307
   37DOPE   H3X 4728   2.393   3.083   3.136  0.4164  2.0454  0.2774
   37DOPE   H3Y 4729   2.550   3.117   3.067  0.6369  0.0513 -1.1129
   37DOPE   C34 4730   2.516   2.913   3.077  1.1487  0.1680  0.5066
   37DOPE   H4X 4731   2.438   2.836   3.060  0.3533  1.2791 -1.3371
   37DOPE   H4Y 4732   2.599   2.888   3.007  0.4766 -1.6963  0.3254
   37DOPE   C35 4733   2.560   2.900   3.223 -0.0870 -0.6664 -0.3906
   37DOPE   H5X 4734   2.476   2.927   3.291 -0.1972 -1.1153 -0.3408
   37DOPE   H5Y 4735   2.632   2.981   3.248 -1.3519  0.1804  0.6144
   37DOPE   C36 4736   2.623   2.766   3.252 -0.5288  0.2075 -0.5144
   37DOPE   H6X 4737   2.558   2.685   3.211 -1.1333  0.0806  0.6541
   37DOPE   H6Y 4738   2.627   2.751   3.362  0.9716  1.5493 -0.3494
   37DOPE   C37 4739   2.776   2.753   3.206  0.4716 -0.0351 -0.6381
   37DOPE   H7X 4740   2.779   2.768   3.096  1.9390  0.0626 -0.6029
   37DOPE   H7Y 4741   2.840   2.830   3.253  0.4697 -0.5698  0.2735
   37DOPE   C38 4742   2.843   2.617   3.234 -0.9666  0.2955 -0.6009
   37DOPE   H8X 4743   2.787   2.537   3.180  0.6722  0.4914 -2.7247
   37DOPE   H8Y 4744   2.841   2.604   3.344  0.5057 -1.0916 -0.7019
   37DOPE   C39 4745   2.986   2.615   3.190  0.1519 -0.0918  0.0863
   37DOPE   H9X 4746   2.986   2.631   3.081  0.9148 -0.4185  0.0349
   37DOPE  C310 4747   3.100   2.591   3.261 -0.1234 -0.0551  0.8474
   37DOPE  H10X 4748   3.196   2.595   3.209  0.6140 -4.1139  1.5863
   37DOPE  C311 4749   3.107   2.546   3.404 -0.1311  0.2556  0.2676
   37DOPE  H11X 4750   3.009   2.549   3.457 -1.1477 -2.1868 -1.2738
   37DOPE  H11Y 4751   3.150   2.444   3.409 -2.7614 -1.0524 -1.3063
   37DOPE  C312 4752   3.210   2.639   3.466 -0.0459 -0.0103 -0.1601
   37DOPE  H12X 4753   3.184   2.746   3.452 -2.7617 -0.3165  1.7698
   37DOPE  H12Y 4754   3.310   2.641   3.417  0.9760  1.8092  1.8207
   37DOPE  C313 4755   3.227   2.625   3.618  0.2304  0.3355 -0.3695
   37DOPE  H13X 4756   3.274   2.525   3.636  0.4966  0.4841 -0.2404
   37DOPE  H13Y 4757   3.299   2.705   3.642  1.3265 -0.3027 -1.3967
   37DOPE  C314 4758   3.095   2.641   3.699  0.3069 -0.2475 -0.3167
   37DOPE  H14X 4759   3.026   2.557   3.675  0.4282 -0.1449 -1.0461
   37DOPE  H14Y 4760   3.048   2.735   3.664  0.4997 -0.3154 -0.7606
   37DOPE  C315 4761   3.125   2.646   3.850  0.8077  0.4078 -0.2117
   37DOPE  H15X 4762   3.164   2.546   3.878  0.4994  0.0469 -1.0480
   37DOPE  H15Y 4763   3.032   2.664   3.908  0.7721 -1.8642  0.5248
   37DOPE  C316 4764   3.229   2.748   3.906 -0.4609 -0.3894  0.4198
   37DOPE  H16X 4765   3.236   2.842   3.847 -1.1158 -1.1651 -0.9317
   37DOPE  H16Y 4766   3.324   2.691   3.897 -0.3082  0.0417 -1.0511
   37DOPE  C317 4767   3.204   2.789   4.055 -0.1266 -0.1396 -0.9361
   37DOPE  H17X 4768   3.290   2.844   4.100 -1.7659  0.8545  1.1784
   37DOPE  H17Y 4769   3.108   2.845   4.061 -0.3920 -0.5982 -0.9030
   37DOPE  C318 4770   3.182   2.662   4.145 -0.2260 -0.0860  0.3840
   37DOPE  H18X 4771   3.080   2.623   4.125 -0.9077  2.1833 -1.0644
   37DOPE  H18Y 4772   3.261   2.590   4.115  0.5197  0.4712  0.9544
   37DOPE  H18Z 4773   3.191   2.694   4.251 -0.3323 -0.4872  0.5156
   38DOPE     N 4774   6.035   4.214   2.480 -0.1306  0.2022  0.1019
   38DOPE   HN1 4775   6.069   4.184   2.573  0.6618 -2.2711 -0.9020
   38DOPE   HN2 4776   6.085   4.172   2.399 -0.0748 -0.2459  0.3672
   38DOPE   HN3 4777   6.045   4.317   2.464  0.8451 -0.0906 -1.3582
   38DOPE   C12 4778   5.892   4.181   2.470  0.0624 -0.0404  0.5032
   38DOPE  H12A 4779   5.877   4.074   2.494 -0.3024 -0.7314 -2.4856
   38DOPE  H12B 4780   5.855   4.186   2.365 -2.1767  2.1883  1.2879
   38DOPE   C11 4781   5.814   4.271   2.565 -0.1202 -1.1715 -0.0016
   38DOPE  H11A 4782   5.840   4.228   2.664  0.7018 -0.8004 -0.0519
   38DOPE  H11B 4783   5.709   4.247   2.536  0.4812 -0.8793 -2.6821
   38DOPE     P 4784   5.741   4.516   2.611  0.4188 -0.2448 -0.0355
   38DOPE   O13 4785   5.599   4.475   2.589  0.3661 -0.3430  0.8659
   38DOPE   O14 4786   5.768   4.655   2.575  0.4931  0.1214 -0.0833
   38DOPE   O11 4787   5.772   4.491   2.759 -0.5786  0.2980  0.5908
   38DOPE   O12 4788   5.838   4.415   2.541 -0.2118  0.1035 -0.1494
   38DOPE    C1 4789   5.903   4.505   2.817 -0.4607  1.0455  0.0511
   38DOPE    HA 4790   5.969   4.568   2.753 -0.8026  0.8881 -0.4599
   38DOPE    HB 4791   5.943   4.403   2.835 -0.3841  1.1524  0.5002
   38DOPE    C2 4792   5.890   4.572   2.957 -0.3025  0.8389  0.5149
   38DOPE    HS 4793   5.998   4.591   2.976 -0.0375  2.9685 -2.3392
   38DOPE   O21 4794   5.817   4.482   3.045  0.2397 -0.0665  0.5463
   38DOPE   C21 4795   5.898   4.396   3.105  0.4658 -0.3380  1.3719
   38DOPE   O22 4796   6.017   4.400   3.112 -0.2951  0.3651  0.0501
   38DOPE   C22 4797   5.812   4.301   3.176  0.8220  0.1045 -0.0229
   38DOPE   H2R 4798   5.714   4.290   3.124  1.1015 -0.1626 -0.4925
   38DOPE   H2S 4799   5.794   4.353   3.273 -1.1956  1.7397 -1.1758
   38DOPE    C3 4800   5.830   4.716   2.937  0.1663  0.1358 -0.5798
   38DOPE    HX 4801   5.728   4.701   2.895  0.1332 -0.5497 -0.2591
   38DOPE    HY 4802   5.883   4.764   2.852 -0.3520 -1.2196 -1.6973
   38DOPE   O31 4803   5.824   4.790   3.058  0.0869 -0.3283  0.5360
   38DOPE   C31 4804   5.918   4.878   3.082 -0.4778  0.4974  0.0514
   38DOPE   O32 4805   6.020   4.894   3.012  0.0848 -0.2533  0.4680
   38DOPE   C32 4806   5.891   4.964   3.204 -0.5710 -0.1062  0.0819
   38DOPE   H2X 4807   5.814   5.030   3.160 -0.8830  0.0267  0.8257
   38DOPE   H2Y 4808   5.838   4.902   3.279 -0.2033 -0.6251 -0.0793
   38DOPE   C23 4809   5.871   4.161   3.198  0.3648 -0.3141 -0.3934
   38DOPE   H3R 4810   5.975   4.174   3.236  0.3178 -1.3655  0.1158
   38DOPE   H3S 4811   5.878   4.114   3.098 -2.1251  1.2159 -1.3742
   38DOPE   C24 4812   5.777   4.077   3.293  0.5933  0.2896  0.2804
   38DOPE   H4R 4813   5.804   3.970   3.287  1.9122  0.6620 -1.0210
   38DOPE   H4S 4814   5.677   4.082   3.245  0.8059  0.9516 -0.1087
   38DOPE   C25 4815   5.765   4.135   3.433 -0.0996  0.3654 -1.2558
   38DOPE   H5R 4816   5.684   4.082   3.489  0.8081  0.6091  0.3424
   38DOPE   H5S 4817   5.732   4.240   3.420  0.6509  0.9511  1.1157
   38DOPE   C26 4818   5.893   4.116   3.515  0.2019 -0.3623  0.4138
   38DOPE   H6R 4819   5.985   4.164   3.473  1.5381 -1.7100  1.6721
   38DOPE   H6S 4820   5.907   4.007   3.524  0.2897 -0.2719  1.4754
   38DOPE   C27 4821   5.881   4.191   3.654  0.1687  0.1654 -0.0079
   38DOPE   H7R 4822   5.839   4.290   3.627 -0.1684  0.5093  1.6641
   38DOPE   H7S 4823   5.980   4.187   3.705 -0.2905 -0.4236  0.8637
   38DOPE   C28 4824   5.780   4.125   3.762  0.4595  0.2559 -0.3684
   38DOPE   H8R 4825   5.676   4.129   3.723 -0.0748  0.8562  1.0362
   38DOPE   H8S 4826   5.786   4.197   3.846  0.6411 -1.8449  1.5250
   38DOPE   C29 4827   5.825   3.992   3.820  0.4627  0.6340  0.5261
   38DOPE   H9R 4828   5.825   3.917   3.739  0.1935  1.0682  0.1228
   38DOPE  C210 4829   5.878   3.957   3.939  0.2923 -0.4507 -0.3016
   38DOPE  H10R 4830   5.905   3.854   3.967 -0.8118  0.3057  4.5025
   38DOPE  C211 4831   5.897   4.050   4.063  0.0837 -0.2349  0.3727
   38DOPE  H11R 4832   5.905   4.154   4.024 -1.0495  0.3619  1.6216
   38DOPE  H11S 4833   5.983   4.019   4.126  0.3650 -0.1572  0.0303
   38DOPE  C212 4834   5.785   4.039   4.165 -0.2246 -0.6956 -0.2493
   38DOPE  H12R 4835   5.684   4.065   4.127 -0.5113 -0.4174  0.6686
   38DOPE  H12S 4836   5.804   4.117   4.241 -0.5538 -1.4082  0.5935
   38DOPE  C213 4837   5.782   3.910   4.253 -0.8196 -0.0956  0.0350
   38DOPE  H13R 4838   5.782   3.817   4.191 -0.4483 -0.1658  0.1395
   38DOPE  H13S 4839   5.689   3.903   4.314 -1.1930  0.8694 -0.3989
   38DOPE  C214 4840   5.901   3.881   4.348 -0.1072 -0.5363 -0.6162
   38DOPE  H14R 4841   5.890   3.949   4.435  2.3731  0.6734 -1.1465
   38DOPE  H14S 4842   6.000   3.903   4.301 -0.4538 -2.0499 -2.1533
   38DOPE  C215 4843   5.911   3.741   4.394  0.0071 -0.0470 -0.3172
   38DOPE  H15R 4844   6.006   3.714   4.446  0.0672  0.8588  0.0605
   38DOPE  H15S 4845   5.899   3.672   4.308  0.4315 -0.7437  0.1693
   38DOPE  C216 4846   5.801   3.692   4.494  0.2609  0.7406 -0.7641
   38DOPE  H16R 4847   5.707   3.713   4.440  0.4021  0.3842 -1.1510
   38DOPE  H16S 4848   5.787   3.769   4.573  1.1954  0.6922 -0.5314
   38DOPE  C217 4849   5.824   3.549   4.546  0.1587 -0.2535  0.0176
   38DOPE  H17R 4850   5.905   3.542   4.622 -0.0094  0.1326  0.2297
   38DOPE  H17S 4851   5.851   3.475   4.467 -0.3103 -0.3483 -0.0606
   38DOPE  C218 4852   5.700   3.497   4.615 -0.1202 -0.0744  0.4446
   38DOPE  H18R 4853   5.718   3.392   4.647  0.8076 -0.0667 -0.0352
   38DOPE  H18S 4854   5.618   3.497   4.540 -0.2008  0.9268  0.5200
   38DOPE  H18T 4855   5.676   3.557   4.706  2.3954  0.8212  0.5823
   38DOPE   C33 4856   6.017   5.038   3.266  0.0795  1.3121  0.6054
   38DOPE   H3X 4857   6.054   5.109   3.189 -0.9402 -0.3585 -1.5341
   38DOPE   H3Y 4858   6.090   4.958   3.290 -0.2647  1.0243  0.7078
   38DOPE   C34 4859   5.990   5.111   3.392 -0.3697 -0.7822 -0.4414
   38DOPE   H4X 4860   6.086   5.124   3.446  0.9740 -1.9586 -2.3747
   38DOPE   H4Y 4861   5.932   5.203   3.374  2.7759  1.5746  0.5389
   38DOPE   C35 4862   5.896   5.036   3.484  0.3332 -0.3734 -0.3938
   38DOPE   H5X 4863   5.937   4.933   3.488 -2.1659 -1.3808  1.6874
   38DOPE   H5Y 4864   5.796   5.036   3.435 -0.7998 -0.4664  1.8163
   38DOPE   C36 4865   5.902   5.099   3.627  0.1305 -0.4644  0.1654
   38DOPE   H6X 4866   5.835   5.188   3.632  0.6077  0.0128 -1.3055
   38DOPE   H6Y 4867   6.002   5.142   3.646  0.0897 -0.2689 -0.0515
   38DOPE   C37 4868   5.871   4.994   3.735  0.1139  0.0357  0.5220
   38DOPE   H7X 4869   5.762   4.975   3.725 -0.0436  1.2396 -0.2657
   38DOPE   H7Y 4870   5.918   4.902   3.695  1.5894  0.4256  1.2649
   38DOPE   C38 4871   5.915   5.029   3.873  0.5392  0.1263 -0.4313
   38DOPE   H8X 4872   5.854   5.116   3.904  0.0892 -0.3266 -0.0021
   38DOPE   H8Y 4873   6.022   5.059   3.873 -0.3396  3.8103  1.6052
   38DOPE   C39 4874   5.890   4.921   3.982 -0.7226 -0.4808  0.4704
   38DOPE   H9X 4875   5.900   4.818   3.944  0.8826 -0.1205 -0.1651
   38DOPE  C310 4876   5.876   4.948   4.112 -0.3941  0.3477 -0.0556
   38DOPE  H10X 4877   5.846   4.863   4.176 -0.2303  0.3372  0.0062
   38DOPE  C311 4878   5.850   5.085   4.174 -0.1104  0.6993  0.1299
   38DOPE  H11X 4879   5.870   5.170   4.105  1.3241  0.7274  0.5529
   38DOPE  H11Y 4880   5.741   5.092   4.196 -0.8245 -2.1429 -1.9652
   38DOPE  C312 4881   5.932   5.102   4.304  0.5784 -0.3309  0.2516
   38DOPE  H12X 4882   6.042   5.104   4.285  1.4365  0.9556  4.2996
   38DOPE  H12Y 4883   5.912   5.012   4.365 -0.8800  0.4332  0.9577
   38DOPE  C313 4884   5.909   5.231   4.376 -0.4618  0.1134 -0.4962
   38DOPE  H13X 4885   5.955   5.316   4.321 -1.2846  1.6396  1.0713
   38DOPE  H13Y 4886   5.798   5.240   4.379 -0.6251 -1.2602 -1.8367
   38DOPE  C314 4887   5.965   5.231   4.521  0.5338 -0.1504 -0.1028
   38DOPE  H14X 4888   6.075   5.232   4.505  0.4321  1.3926 -0.8957
   38DOPE  H14Y 4889   5.944   5.133   4.569  0.6287  0.4234  1.1529
   38DOPE  C315 4890   5.922   5.353   4.598 -0.0159  0.0592 -0.7890
   38DOPE  H15X 4891   5.811   5.351   4.604  0.0660 -0.1856  1.6173
   38DOPE  H15Y 4892   5.952   5.447   4.548 -0.9480  1.0213  0.3967
   38DOPE  C316 4893   5.999   5.346   4.732  0.7971  0.0500  0.2638
   38DOPE  H16X 4894   6.014   5.239   4.757  0.1652 -0.9991 -3.3195
   38DOPE  H16Y 4895   5.931   5.397   4.804 -1.5816 -0.8129 -1.2823
   38DOPE  C317 4896   6.134   5.409   4.729 -0.4161  0.3298 -0.1262
   38DOPE  H17X 4897   6.200   5.357   4.656  1.6951 -1.2520  2.7029
   38DOPE  H17Y 4898   6.125   5.509   4.682 -0.6930 -0.4937 -1.9223
   38DOPE  C318 4899   6.197   5.410   4.866 -0.1850 -0.1875 -1.1183
   38DOPE  H18X 4900   6.280   5.483   4.879 -0.1171 -0.7161  2.4066
   38DOPE  H18Y 4901   6.117   5.424   4.942  2.4775  1.7778  1.5627
   38DOPE  H18Z 4902   6.226   5.308   4.897 -1.7641 -0.6419 -1.0398
   39DOPE     N 4903   3.627   3.780   2.681  0.2087 -0.2603  0.0311
   39DOPE   HN1 4904   3.582   3.700   2.729  0.9608 -1.4893 -1.2207
   39DOPE   HN2 4905   3.724   3.802   2.714  0.5517 -2.8928  0.9906
   39DOPE   HN3 4906   3.574   3.867   2.700  0.6304 -0.1552  0.7834
   39DOPE   C12 4907   3.631   3.770   2.531  0.0223  1.0115  0.0255
   39DOPE  H12A 4908   3.560   3.695   2.491 -0.1910  2.8046 -3.4041
   39DOPE  H12B 4909   3.727   3.719   2.507  1.0475  1.6830  2.3939
   39DOPE   C11 4910   3.622   3.909   2.464  0.4054  0.2022  0.5277
   39DOPE  H11A 4911   3.644   3.902   2.355 -2.9021  0.0453 -0.2225
   39DOPE  H11B 4912   3.700   3.978   2.503  1.8200 -1.1853  0.2817
   39DOPE     P 4913   3.426   4.039   2.589  0.1562 -0.3758 -0.0367
   39DOPE   O13 4914   3.407   4.183   2.569 -0.5513 -0.3500  0.5052
   39DOPE   O14 4915   3.497   4.010   2.713 -0.2044  0.0091  0.4213
   39DOPE   O11 4916   3.283   3.980   2.584 -0.3242  0.3749  0.2666
   39DOPE   O12 4917   3.490   3.969   2.466  0.6648  0.1817  0.3552
   39DOPE    C1 4918   3.264   3.839   2.610  0.2538 -0.5740 -0.6246
   39DOPE    HA 4919   3.351   3.778   2.642  0.6801  2.0859  4.2331
   39DOPE    HB 4920   3.233   3.792   2.514 -1.1382 -0.4579 -0.2476
   39DOPE    C2 4921   3.168   3.812   2.725  0.6128 -0.8563  0.6936
   39DOPE    HS 4922   3.078   3.876   2.719  1.4422  0.2102 -1.3112
   39DOPE   O21 4923   3.242   3.834   2.850  0.3169 -0.7654 -0.2654
   39DOPE   C21 4924   3.224   3.951   2.895 -0.6224 -0.3055 -0.5779
   39DOPE   O22 4925   3.169   4.043   2.843 -0.5220  0.3045 -0.2898
   39DOPE   C22 4926   3.298   3.961   3.030  0.0565  0.3519 -0.1821
   39DOPE   H2R 4927   3.350   4.057   3.047 -0.4619  0.4736  0.7754
   39DOPE   H2S 4928   3.376   3.882   3.032  0.5458  0.7803 -1.3424
   39DOPE    C3 4929   3.119   3.667   2.728  0.5313  0.6933 -0.8528
   39DOPE    HX 4930   3.209   3.603   2.736  0.3340  0.6059  1.3199
   39DOPE    HY 4931   3.062   3.649   2.635  0.0783  0.6085 -0.5661
   39DOPE   O31 4932   3.025   3.657   2.841 -0.3104 -0.4219 -0.4465
   39DOPE   C31 4933   3.072   3.604   2.958 -0.3850  0.5972  0.1807
   39DOPE   O32 4934   3.182   3.545   2.961 -0.0631 -0.0356 -0.4336
   39DOPE   C32 4935   2.979   3.622   3.075  0.0449 -0.3250 -0.5698
   39DOPE   H2X 4936   2.972   3.726   3.115 -0.0316 -0.1798 -0.9507
   39DOPE   H2Y 4937   2.872   3.604   3.053 -0.0056  0.6458 -1.1990
   39DOPE   C23 4938   3.210   3.929   3.156 -0.0588 -0.0533  0.1249
   39DOPE   H3R 4939   3.156   3.836   3.131 -0.5905  0.6331 -1.4134
   39DOPE   H3S 4940   3.122   3.996   3.167 -0.1255 -0.0432 -0.4662
   39DOPE   C24 4941   3.285   3.927   3.288 -0.3262 -0.1449  0.7459
   39DOPE   H4R 4942   3.344   4.020   3.305 -2.5008  1.7466 -1.4228
   39DOPE   H4S 4943   3.352   3.838   3.287  0.2329  0.2102 -2.0002
   39DOPE   C25 4944   3.179   3.911   3.397 -0.3732 -0.0764 -0.1447
   39DOPE   H5R 4945   3.118   3.820   3.387  0.5571 -0.5729 -1.6136
   39DOPE   H5S 4946   3.126   4.009   3.394  1.8287  1.1678 -0.8742
   39DOPE   C26 4947   3.253   3.895   3.529 -0.5032  0.1047 -0.2759
   39DOPE   H6R 4948   3.316   3.986   3.541 -0.1851 -0.3417  2.0624
   39DOPE   H6S 4949   3.322   3.809   3.519 -1.5684 -0.8594  0.4035
   39DOPE   C27 4950   3.158   3.877   3.645  0.2535  0.5399 -0.1188
   39DOPE   H7R 4951   3.106   3.782   3.621 -1.2684  1.6589 -1.4374
   39DOPE   H7S 4952   3.080   3.956   3.648  0.0646  0.3325  1.9017
   39DOPE   C28 4953   3.221   3.873   3.785 -0.0247 -0.4018 -0.0357
   39DOPE   H8R 4954   3.316   3.815   3.775 -0.1548 -0.6853  0.3715
   39DOPE   H8S 4955   3.169   3.812   3.862 -1.6155  1.1292  0.1550
   39DOPE   C29 4956   3.253   4.005   3.856 -0.6839  0.0809  0.4233
   39DOPE   H9R 4957   3.197   4.089   3.812 -1.0189 -0.4316 -0.1505
   39DOPE  C210 4958   3.339   4.019   3.961 -0.0272  0.0145  0.2420
   39DOPE  H10R 4959   3.369   4.116   4.003  1.8400 -1.9341  3.8131
   39DOPE  C211 4960   3.413   3.903   4.026 -0.4967  0.5482  0.0192
   39DOPE  H11R 4961   3.521   3.928   4.021 -0.7233  2.0660  1.8211
   39DOPE  H11S 4962   3.406   3.804   3.975  1.6571  1.4138 -2.1644
   39DOPE  C212 4963   3.382   3.892   4.175  0.4740  0.7186 -0.0256
   39DOPE  H12R 4964   3.283   3.849   4.203  1.2737 -0.4480  1.1030
   39DOPE  H12S 4965   3.403   3.981   4.238  1.3852 -0.0687  0.8200
   39DOPE  C213 4966   3.482   3.786   4.233 -0.3447  0.5989  0.0434
   39DOPE  H13R 4967   3.585   3.823   4.214 -0.0630  0.0743  0.5250
   39DOPE  H13S 4968   3.483   3.695   4.169 -0.4425 -1.0311  2.2309
   39DOPE  C214 4969   3.456   3.755   4.385 -0.3186 -0.2063  0.2278
   39DOPE  H14R 4970   3.375   3.683   4.410  0.4492 -0.4400  2.1973
   39DOPE  H14S 4971   3.441   3.856   4.430  1.0126  0.0467  0.1239
   39DOPE  C215 4972   3.582   3.710   4.450 -0.3881  0.2821 -0.2199
   39DOPE  H15R 4973   3.665   3.781   4.427 -0.3782  0.7137  1.0508
   39DOPE  H15S 4974   3.606   3.608   4.412 -0.8604  0.3928 -0.8213
   39DOPE  C216 4975   3.563   3.710   4.601 -0.0784  0.9904 -0.7006
   39DOPE  H16R 4976   3.462   3.677   4.634  0.4109  0.5521  0.4017
   39DOPE  H16S 4977   3.565   3.812   4.645  0.1039  0.2211  1.1856
   39DOPE  C217 4978   3.665   3.628   4.693 -0.3492 -0.6593 -0.4074
   39DOPE  H17R 4979   3.621   3.630   4.795 -0.2450  0.4108 -0.3716
   39DOPE  H17S 4980   3.756   3.689   4.713 -1.2083  0.8928 -1.0306
   39DOPE  C218 4981   3.696   3.487   4.643 -0.0640 -0.3728  0.3248
   39DOPE  H18R 4982   3.760   3.434   4.718  0.6802 -0.1337 -0.1307
   39DOPE  H18S 4983   3.751   3.490   4.547 -1.3401 -0.0266 -0.4078
   39DOPE  H18T 4984   3.594   3.442   4.645 -1.7410  3.0156 -1.3176
   39DOPE   C33 4985   3.010   3.531   3.200 -0.0013  0.1925 -1.1901
   39DOPE   H3X 4986   3.112   3.552   3.239 -1.4142  0.5834  2.7149
   39DOPE   H3Y 4987   2.997   3.425   3.170 -2.2538 -0.2227  0.9546
   39DOPE   C34 4988   2.918   3.568   3.318  0.5010  0.6485  0.5183
   39DOPE   H4X 4989   2.914   3.677   3.339 -1.1926  0.4391  1.5617
   39DOPE   H4Y 4990   2.812   3.543   3.294 -0.2782  3.5475  0.5292
   39DOPE   C35 4991   2.949   3.518   3.455 -0.4937 -0.3021  0.5581
   39DOPE   H5X 4992   3.046   3.565   3.483 -0.5924 -0.2301  0.7848
   39DOPE   H5Y 4993   2.957   3.408   3.441 -0.3075 -0.2077 -0.0923
   39DOPE   C36 4994   2.838   3.560   3.547  1.0815  0.1959 -0.2826
   39DOPE   H6X 4995   2.735   3.525   3.525  0.8603  1.0645 -0.6762
   39DOPE   H6Y 4996   2.827   3.670   3.559  0.0215  0.2246 -1.3322
   39DOPE   C37 4997   2.883   3.490   3.678  0.1585 -0.2658  0.0170
   39DOPE   H7X 4998   2.850   3.384   3.683 -2.0708  0.3883  0.3176
   39DOPE   H7Y 4999   2.992   3.501   3.694 -0.0758 -0.0476  1.7499
   39DOPE   C38 5000   2.823   3.554   3.814  0.2178 -0.3223  0.7264
   39DOPE   H8X 5001   2.834   3.469   3.885 -0.6313  0.3218  1.6466
   39DOPE   H8Y 5002   2.712   3.558   3.806  0.2987 -0.1081 -0.5026
   39DOPE   C39 5003   2.873   3.686   3.863 -0.6862  0.0065  0.0248
   39DOPE   H9X 5004   2.889   3.757   3.780 -1.8091  0.5139  0.2200
   39DOPE  C310 5005   2.914   3.726   3.986  0.4515 -0.2021 -0.2762
   39DOPE  H10X 5006   2.951   3.829   3.996  1.7570 -0.7807  1.2804
   39DOPE  C311 5007   2.935   3.631   4.101  0.8252 -0.2647 -0.2358
   39DOPE  H11X 5008   2.881   3.673   4.189  0.3387  2.7124 -1.8468
   39DOPE  H11Y 5009   2.890   3.531   4.086  0.0438  0.0135  0.1900
   39DOPE  C312 5010   3.084   3.631   4.131 -0.0987  0.1028 -0.7437
   39DOPE  H12X 5011   3.130   3.728   4.160 -2.4573  1.3475 -0.8750
   39DOPE  H12Y 5012   3.139   3.601   4.039  0.4116 -2.5369  0.3189
   39DOPE  C313 5013   3.121   3.530   4.250 -0.4501 -0.3408  0.5090
   39DOPE  H13X 5014   3.081   3.429   4.227  0.2860 -0.1654 -1.8388
   39DOPE  H13Y 5015   3.231   3.518   4.254 -0.2142  1.7767  1.5664
   39DOPE  C314 5016   3.074   3.577   4.384  0.2188 -0.0284 -0.0708
   39DOPE  H14X 5017   2.963   3.572   4.397  0.5306 -0.8670  3.2706
   39DOPE  H14Y 5018   3.103   3.682   4.403  2.4298 -0.6266  0.1562
   39DOPE  C315 5019   3.142   3.491   4.501  0.4649 -0.6027 -0.3271
   39DOPE  H15X 5020   3.249   3.493   4.475  0.1490  0.7234 -1.6036
   39DOPE  H15Y 5021   3.100   3.387   4.501  0.7542 -0.7250  0.2500
   39DOPE  C316 5022   3.129   3.558   4.637  0.3402  0.1315  0.3686
   39DOPE  H16X 5023   3.142   3.668   4.640  1.7387 -0.0214  1.0637
   39DOPE  H16Y 5024   3.199   3.512   4.710 -1.1230 -0.9738  1.1234
   39DOPE  C317 5025   2.998   3.525   4.698  1.0033 -0.0653  0.7405
   39DOPE  H17X 5026   2.918   3.527   4.621  1.2094 -1.6825  0.4393
   39DOPE  H17Y 5027   3.004   3.425   4.747  0.7761 -0.0865  0.7231
   39DOPE  C318 5028   2.973   3.606   4.824  0.0197 -0.0960  1.2301
   39DOPE  H18X 5029   2.979   3.715   4.800  0.6060 -0.5595 -0.9393
   39DOPE  H18Y 5030   2.881   3.599   4.886 -0.2763  5.1869  1.8954
   39DOPE  H18Z 5031   3.057   3.583   4.893  0.2980 -2.2107  0.2477
   40DOPE     N 5032   4.026   5.797   2.440  0.4745 -0.0148  0.1733
   40DOPE   HN1 5033   4.020   5.699   2.474 -0.6416 -0.5706 -1.5244
   40DOPE   HN2 5034   4.081   5.847   2.513 -0.8760 -0.4749  1.5603
   40DOPE   HN3 5035   3.931   5.837   2.427  1.3373  1.4129 -2.4119
   40DOPE   C12 5036   4.107   5.818   2.313 -0.5742 -0.1839  0.4881
   40DOPE  H12A 5037   4.081   5.922   2.284  0.5341 -0.2625 -0.8834
   40DOPE  H12B 5038   4.064   5.746   2.241  1.4985 -0.2784 -0.7487
   40DOPE   C11 5039   4.262   5.784   2.343  0.0917 -0.3052 -0.1952
   40DOPE  H11A 5040   4.321   5.809   2.252  2.6979  0.7762  1.7025
   40DOPE  H11B 5041   4.266   5.675   2.364 -1.0477 -0.4714 -0.7664
   40DOPE     P 5042   4.464   5.865   2.489  0.3151 -0.2934 -0.1407
   40DOPE   O13 5043   4.499   5.982   2.583  0.6730 -0.2856 -0.2797
   40DOPE   O14 5044   4.551   5.833   2.373  0.2216 -0.0350 -0.7822
   40DOPE   O11 5045   4.470   5.734   2.576  0.2905 -0.6321 -0.2011
   40DOPE   O12 5046   4.312   5.870   2.445 -0.1721 -0.2927  0.1158
   40DOPE    C1 5047   4.370   5.714   2.669 -0.1273  0.1207 -0.1737
   40DOPE    HA 5048   4.349   5.605   2.662 -0.0922  0.1999 -1.7386
   40DOPE    HB 5049   4.273   5.764   2.647  0.1272  1.3595  1.3518
   40DOPE    C2 5050   4.408   5.735   2.823  0.3597  0.7524  0.2382
   40DOPE    HS 5051   4.439   5.841   2.833 -0.3559  0.9614  0.3281
   40DOPE   O21 5052   4.507   5.643   2.862  0.0111 -0.5542  0.2808
   40DOPE   C21 5053   4.583   5.687   2.964  0.3738 -0.9002 -0.3861
   40DOPE   O22 5054   4.575   5.793   3.023  0.5599  0.2389  0.4219
   40DOPE   C22 5055   4.698   5.591   2.975  0.0546  0.5113  0.5819
   40DOPE   H2R 5056   4.740   5.568   2.875 -1.5345  0.0371 -0.0034
   40DOPE   H2S 5057   4.658   5.495   3.012  0.2287  0.9286  1.8960
   40DOPE    C3 5058   4.279   5.722   2.910 -0.0359 -0.1961 -0.3464
   40DOPE    HX 5059   4.250   5.616   2.899  2.5108 -0.8229 -1.8162
   40DOPE    HY 5060   4.196   5.782   2.866 -0.6076 -0.4107  0.4110
   40DOPE   O31 5061   4.306   5.761   3.050  0.0459 -0.0005  0.1990
   40DOPE   C31 5062   4.286   5.893   3.072  0.2205 -0.9623 -0.2590
   40DOPE   O32 5063   4.259   5.973   2.985 -0.2145  0.5869 -0.6920
   40DOPE   C32 5064   4.317   5.925   3.215 -0.1918 -0.1569 -0.5039
   40DOPE   H2X 5065   4.226   5.894   3.271 -1.0760  0.6949 -1.4108
   40DOPE   H2Y 5066   4.398   5.855   3.242 -1.3671 -1.8808 -1.2457
   40DOPE   C23 5067   4.820   5.636   3.062 -0.3333 -0.1217 -0.3584
   40DOPE   H3R 5068   4.872   5.723   3.017  1.1784 -1.0549 -0.4731
   40DOPE   H3S 5069   4.894   5.553   3.058 -0.4608 -0.1957 -2.0181
   40DOPE   C24 5070   4.781   5.668   3.207  0.1368  0.1473  0.3578
   40DOPE   H4R 5071   4.728   5.583   3.258 -2.1506  1.1664 -0.1826
   40DOPE   H4S 5072   4.716   5.757   3.218 -0.9907 -0.8454  2.5037
   40DOPE   C25 5073   4.914   5.682   3.281 -0.7975 -0.6268  0.7600
   40DOPE   H5R 5074   4.968   5.771   3.241 -1.4131 -0.9237 -0.7925
   40DOPE   H5S 5075   4.976   5.593   3.256 -0.9155 -0.4304 -0.3114
   40DOPE   C26 5076   4.898   5.683   3.435 -0.1912 -0.2810 -0.0597
   40DOPE   H6R 5077   4.843   5.588   3.450 -0.9116 -0.2564 -2.1834
   40DOPE   H6S 5078   4.829   5.766   3.461  0.3562  0.2993 -0.4268
   40DOPE   C27 5079   5.027   5.683   3.517 -0.0510 -0.0102  1.0098
   40DOPE   H7R 5080   5.067   5.787   3.507 -2.1513  0.6859 -1.3718
   40DOPE   H7S 5081   5.106   5.625   3.466  0.9459  2.1124  0.0178
   40DOPE   C28 5082   5.001   5.645   3.664  0.2546  0.4289  0.1479
   40DOPE   H8R 5083   4.962   5.541   3.665  0.6943  0.2668  0.9148
   40DOPE   H8S 5084   4.914   5.706   3.699 -1.2602 -1.3337 -0.3906
   40DOPE   C29 5085   5.123   5.665   3.751 -0.4670 -0.4260 -0.4662
   40DOPE   H9R 5086   5.207   5.597   3.731 -0.7889 -0.3807 -2.1184
   40DOPE  C210 5087   5.141   5.767   3.836 -0.1282 -0.0662 -0.2123
   40DOPE  H10R 5088   5.235   5.769   3.892 -0.0435  1.1527 -0.3846
   40DOPE  C211 5089   5.045   5.884   3.862  0.1968  0.4410  0.5299
   40DOPE  H11R 5090   4.958   5.854   3.924 -1.5234 -0.1247 -2.0246
   40DOPE  H11S 5091   5.009   5.909   3.760  1.0720  2.2890  0.6256
   40DOPE  C212 5092   5.109   6.009   3.922 -0.2447 -0.3706 -0.2144
   40DOPE  H12R 5093   5.039   6.095   3.917 -0.7078 -0.7960 -1.4632
   40DOPE  H12S 5094   5.201   6.031   3.862  2.7252 -3.0396  2.9117
   40DOPE  C213 5095   5.142   5.996   4.073 -0.5500  0.7074 -0.8563
   40DOPE  H13R 5096   5.205   5.905   4.086 -0.2500  1.3357  3.5878
   40DOPE  H13S 5097   5.055   5.983   4.141  1.0653 -3.1409  0.7644
   40DOPE  C214 5098   5.221   6.118   4.125 -0.2168  0.8649  0.1755
   40DOPE  H14R 5099   5.166   6.210   4.096  0.2841  1.3985  0.8778
   40DOPE  H14S 5100   5.312   6.115   4.062 -1.5472 -0.6618 -1.8072
   40DOPE  C215 5101   5.245   6.123   4.273  0.4148  0.2196  0.0989
   40DOPE  H15R 5102   5.298   6.031   4.306  1.4434  0.8321  0.2006
   40DOPE  H15S 5103   5.150   6.131   4.330  0.3672 -1.1883  0.2534
   40DOPE  C216 5104   5.344   6.227   4.325 -0.2160 -0.9274  0.8583
   40DOPE  H16R 5105   5.438   6.222   4.265 -0.6099  0.1138  0.1294
   40DOPE  H16S 5106   5.352   6.202   4.433 -2.4021 -0.5804  1.1399
   40DOPE  C217 5107   5.280   6.368   4.334  0.4600  1.0140 -0.2466
   40DOPE  H17R 5108   5.182   6.354   4.384  0.0749  1.3376 -0.8837
   40DOPE  H17S 5109   5.259   6.392   4.227  3.2109 -1.6662 -1.5390
   40DOPE  C218 5110   5.373   6.468   4.400 -0.6139  0.0641  0.0590
   40DOPE  H18R 5111   5.413   6.423   4.493  0.5644  3.5289  1.4200
   40DOPE  H18S 5112   5.315   6.556   4.435 -0.3295 -0.1800  1.1626
   40DOPE  H18T 5113   5.449   6.511   4.331 -1.6568 -0.9413 -1.8183
   40DOPE   C33 5114   4.353   6.073   3.257 -0.3442 -0.5915  0.3476
   40DOPE   H3X 5115   4.264   6.139   3.268 -1.5120 -2.1423  0.4793
   40DOPE   H3Y 5116   4.405   6.136   3.181 -1.6804 -0.0036 -0.1107
   40DOPE   C34 5117   4.412   6.085   3.400 -0.5343 -0.1968  0.1862
   40DOPE   H4X 5118   4.474   6.000   3.436 -2.7925 -1.7318  0.6986
   40DOPE   H4Y 5119   4.485   6.160   3.365  1.8047 -2.5523 -0.3228
   40DOPE   C35 5120   4.323   6.143   3.512 -0.2478 -0.1329 -0.1862
   40DOPE   H5X 5121   4.242   6.070   3.537  0.1856 -0.6076 -0.1502
   40DOPE   H5Y 5122   4.288   6.243   3.479  0.4467  0.3683  0.5479
   40DOPE   C36 5123   4.396   6.187   3.642 -0.1943  0.2711  0.6108
   40DOPE   H6X 5124   4.484   6.242   3.603 -1.1173  1.6419  0.4097
   40DOPE   H6Y 5125   4.439   6.094   3.684 -0.8381  0.0195  0.7221
   40DOPE   C37 5126   4.307   6.256   3.746  0.2338 -0.0762 -0.0249
   40DOPE   H7X 5127   4.265   6.346   3.696  0.6632 -0.4252 -1.0338
   40DOPE   H7Y 5128   4.223   6.187   3.770 -2.9332  4.2586  3.2219
   40DOPE   C38 5129   4.369   6.297   3.876 -0.6599 -0.0662 -0.8168
   40DOPE   H8X 5130   4.455   6.365   3.855 -0.2936 -0.2612  0.0012
   40DOPE   H8Y 5131   4.413   6.207   3.924 -0.8617  1.0403  1.5728
   40DOPE   C39 5132   4.274   6.363   3.977  0.7856  0.1274  0.2283
   40DOPE   H9X 5133   4.178   6.311   3.989  0.8000 -0.0934 -0.5425
   40DOPE  C310 5134   4.303   6.477   4.049  0.5697  0.1573 -0.5983
   40DOPE  H10X 5135   4.236   6.515   4.128 -1.4741 -0.2278 -2.0429
   40DOPE  C311 5136   4.427   6.557   4.054 -0.3602  0.5509 -0.1473
   40DOPE  H11X 5137   4.482   6.555   3.957  1.6510 -0.0010  0.9487
   40DOPE  H11Y 5138   4.397   6.662   4.077  3.3685  1.3973  1.5852
   40DOPE  C312 5139   4.527   6.496   4.161  0.5145 -0.1651  0.5288
   40DOPE  H12X 5140   4.576   6.408   4.115  0.6164 -0.0918  0.4951
   40DOPE  H12Y 5141   4.470   6.459   4.248 -0.5582 -2.2069 -0.9661
   40DOPE  C313 5142   4.639   6.597   4.202  0.6180  0.4429  0.3950
   40DOPE  H13X 5143   4.703   6.606   4.112  0.4165 -0.7702  0.1210
   40DOPE  H13Y 5144   4.590   6.692   4.234 -0.5338 -0.0120  0.0462
   40DOPE  C314 5145   4.727   6.548   4.325  0.0333 -0.9679  0.1460
   40DOPE  H14X 5146   4.745   6.440   4.306  0.7627 -0.5375 -1.7675
   40DOPE  H14Y 5147   4.671   6.555   4.420  1.1101 -0.9586  0.8027
   40DOPE  C315 5148   4.863   6.621   4.345 -0.1311  0.4705  0.1022
   40DOPE  H15X 5149   4.903   6.566   4.434 -0.6005  2.8037  1.8555
   40DOPE  H15Y 5150   4.846   6.724   4.384  0.8133 -0.0336  2.0079
   40DOPE  C316 5151   4.968   6.627   4.232 -0.0858  0.0206  0.5626
   40DOPE  H16X 5152   4.924   6.688   4.150  0.2068  0.6063  0.8309
   40DOPE  H16Y 5153   4.983   6.523   4.196 -1.6538 -0.3569  0.9098
   40DOPE  C317 5154   5.107   6.682   4.267 -0.4305 -0.2619  0.2307
   40DOPE  H17X 5155   5.120   6.671   4.376 -1.0897  0.7918  0.4321
   40DOPE  H17Y 5156   5.191   6.629   4.217  1.9907  2.0974  1.5475
   40DOPE  C318 5157   5.111   6.828   4.226 -0.4190  0.0111  0.1651
   40DOPE  H18X 5158   5.173   6.886   4.298  1.7613 -1.1847 -0.6779
   40DOPE  H18Y 5159   5.156   6.837   4.125 -0.3317 -0.3667  0.1692
   40DOPE  H18Z 5160   5.007   6.868   4.233 -1.0198 -1.4277 -0.1864
   41DOPE     N 5161   1.625   5.280   2.834  0.2308  0.7840  0.1227
   41DOPE   HN1 5162   1.713   5.252   2.883 -0.5794 -0.4950  0.8872
   41DOPE   HN2 5163   1.545   5.258   2.895 -0.0774 -1.3043 -0.9371
   41DOPE   HN3 5164   1.616   5.222   2.748  0.2539  1.0514 -0.0600
   41DOPE   C12 5165   1.628   5.423   2.788 -0.3460  0.0199 -0.0912
   41DOPE  H12A 5166   1.665   5.484   2.873 -0.8406  1.3351 -0.7815
   41DOPE  H12B 5167   1.525   5.452   2.760  0.0818  1.6319 -0.1107
   41DOPE   C11 5168   1.721   5.441   2.665  0.0183 -0.0081  0.0765
   41DOPE  H11A 5169   1.731   5.549   2.640 -0.4044 -0.0679 -0.3632
   41DOPE  H11B 5170   1.682   5.372   2.588  1.2316 -0.8780  0.2148
   41DOPE     P 5171   1.943   5.339   2.585  0.1763  0.4529 -0.5869
   41DOPE   O13 5172   1.958   5.436   2.477 -0.4701 -0.0815  0.4077
   41DOPE   O14 5173   1.898   5.204   2.550 -0.2843 -0.1715 -0.0099
   41DOPE   O11 5174   2.086   5.330   2.654  0.4114  0.2870  0.6528
   41DOPE   O12 5175   1.846   5.399   2.700  0.1787 -0.1193  0.0697
   41DOPE    C1 5176   2.136   5.205   2.703  0.3487 -0.2813  0.7800
   41DOPE    HA 5177   2.247   5.210   2.701  0.3465 -0.3327 -0.0474
   41DOPE    HB 5178   2.114   5.121   2.633  0.0505  0.1274  0.3818
   41DOPE    C2 5179   2.097   5.183   2.849 -0.2301  0.9298 -0.6690
   41DOPE    HS 5180   1.989   5.157   2.849 -0.4652  1.8905 -0.5210
   41DOPE   O21 5181   2.115   5.300   2.927  0.5220  0.2824 -0.5382
   41DOPE   C21 5182   2.004   5.361   2.973 -0.1854 -0.2615  0.3597
   41DOPE   O22 5183   1.890   5.315   2.974  0.3979 -0.0043 -0.0255
   41DOPE   C22 5184   2.048   5.502   3.033  0.0534 -0.6232  0.3299
   41DOPE   H2R 5185   2.039   5.563   2.940 -2.2490  0.2181  1.0283
   41DOPE   H2S 5186   2.154   5.497   3.063  0.5239 -1.1722 -1.2935
   41DOPE    C3 5187   2.180   5.065   2.911 -0.0830  0.4719  0.1031
   41DOPE    HX 5188   2.284   5.098   2.892  0.8045 -1.6721  0.9329
   41DOPE    HY 5189   2.159   4.973   2.853 -0.5809  0.6798 -0.0518
   41DOPE   O31 5190   2.167   5.060   3.058  0.1676  0.3818 -0.0691
   41DOPE   C31 5191   2.095   4.964   3.111  0.1522  0.6896  0.0443
   41DOPE   O32 5192   2.044   4.866   3.054 -0.2552 -0.9276 -0.2037
   41DOPE   C32 5193   2.095   4.984   3.254 -0.6752 -0.0645  0.2861
   41DOPE   H2X 5194   2.151   5.073   3.291 -0.5827 -0.7137  1.8017
   41DOPE   H2Y 5195   1.986   4.998   3.274 -0.6796 -1.0559  1.0187
   41DOPE   C23 5196   1.959   5.550   3.146  0.4352  0.4139  0.5913
   41DOPE   H3R 5197   1.898   5.474   3.198 -0.7121 -0.3488 -1.7229
   41DOPE   H3S 5198   1.890   5.621   3.096  0.0483  0.9503  1.8531
   41DOPE   C24 5199   2.032   5.639   3.249  0.3179  0.6248 -0.6475
   41DOPE   H4R 5200   2.103   5.708   3.198 -1.3446  3.4277  0.6241
   41DOPE   H4S 5201   2.084   5.559   3.307 -0.0210  1.3231  0.6425
   41DOPE   C25 5202   1.925   5.725   3.328 -0.0078 -0.1590  0.2860
   41DOPE   H5R 5203   1.853   5.654   3.375  0.9158 -3.2552 -2.6172
   41DOPE   H5S 5204   1.877   5.788   3.250 -1.6294  0.0550  1.3906
   41DOPE   C26 5205   1.976   5.822   3.432 -0.2166  1.5614 -0.0142
   41DOPE   H6R 5206   2.056   5.877   3.379  1.2023 -0.7166 -0.3802
   41DOPE   H6S 5207   2.036   5.759   3.502 -1.3098 -1.6156 -1.7326
   41DOPE   C27 5208   1.865   5.905   3.490  0.5041 -0.3313 -0.9526
   41DOPE   H7R 5209   1.787   5.848   3.544  1.1478  0.1038  0.5033
   41DOPE   H7S 5210   1.806   5.959   3.412  1.0646  0.9047 -0.5494
   41DOPE   C28 5211   1.917   6.017   3.586  0.9290  0.0247  0.4832
   41DOPE   H8R 5212   1.996   5.977   3.652  3.9439 -0.7026 -3.1912
   41DOPE   H8S 5213   1.829   6.059   3.639  1.1607 -0.6265  1.4011
   41DOPE   C29 5214   1.982   6.126   3.515  0.2815 -0.8228 -0.1995
   41DOPE   H9R 5215   2.035   6.089   3.426  0.3357  3.4154 -2.1758
   41DOPE  C210 5216   1.999   6.257   3.552 -0.8543  0.2681 -0.5142
   41DOPE  H10R 5217   2.040   6.329   3.479  1.5267 -1.4964 -1.0426
   41DOPE  C211 5218   1.947   6.327   3.677  0.4404  0.2151  0.2786
   41DOPE  H11R 5219   1.883   6.259   3.736 -0.0058 -0.5369 -1.0243
   41DOPE  H11S 5220   1.880   6.407   3.638  1.9326  0.2183 -2.5333
   41DOPE  C212 5221   2.074   6.381   3.756 -0.1100  0.6608 -0.8065
   41DOPE  H12R 5222   2.131   6.462   3.707 -0.3383  2.2221  1.3786
   41DOPE  H12S 5223   2.139   6.292   3.773 -0.6272  0.4988  0.4174
   41DOPE  C213 5224   2.019   6.426   3.900 -0.2326  0.9827  0.0825
   41DOPE  H13R 5225   2.007   6.334   3.962  3.0179  0.5483  0.2319
   41DOPE  H13S 5226   1.917   6.470   3.900 -1.1999 -1.1206  0.0211
   41DOPE  C214 5227   2.122   6.514   3.968 -0.0026 -0.6782  0.3005
   41DOPE  H14R 5228   2.114   6.606   3.905 -0.8220  0.1382  1.5539
   41DOPE  H14S 5229   2.224   6.476   3.947 -0.6820 -2.3009 -0.1989
   41DOPE  C215 5230   2.098   6.545   4.112  0.0965 -0.0644  0.5103
   41DOPE  H15R 5231   2.042   6.455   4.145 -0.3211  0.0464  0.1145
   41DOPE  H15S 5232   2.028   6.630   4.130  1.8354  1.9488 -1.5745
   41DOPE  C216 5233   2.229   6.570   4.196  0.1898  0.6248  0.4086
   41DOPE  H16R 5234   2.288   6.649   4.145  1.2758  1.0368  2.2199
   41DOPE  H16S 5235   2.283   6.474   4.204 -2.0992 -0.7552  0.1562
   41DOPE  C217 5236   2.202   6.610   4.343 -0.0763 -0.3388 -0.2674
   41DOPE  H17R 5237   2.122   6.686   4.357 -3.0003 -3.5377  1.7876
   41DOPE  H17S 5238   2.291   6.654   4.392  0.4146 -1.3210 -0.2568
   41DOPE  C218 5239   2.148   6.496   4.427 -0.0634 -0.4413  0.1548
   41DOPE  H18R 5240   2.212   6.406   4.438  0.3191 -0.2814 -0.7336
   41DOPE  H18S 5241   2.063   6.451   4.372 -0.0294  0.1726 -0.3965
   41DOPE  H18T 5242   2.118   6.537   4.526  3.5756 -0.4437  1.4315
   41DOPE   C33 5243   2.142   4.866   3.341 -1.3988 -0.1691  0.2800
   41DOPE   H3X 5244   2.252   4.851   3.337 -1.3625 -0.2917  1.3892
   41DOPE   H3Y 5245   2.103   4.771   3.300  0.2865 -2.2237  3.1165
   41DOPE   C34 5246   2.096   4.873   3.490  0.6718  0.0447  0.3844
   41DOPE   H4X 5247   1.987   4.895   3.485  0.4175 -1.3834 -2.4692
   41DOPE   H4Y 5248   2.108   4.778   3.546  2.5157  0.4289  0.7163
   41DOPE   C35 5249   2.173   4.984   3.571  0.9021 -0.1861  0.1436
   41DOPE   H5X 5250   2.150   5.084   3.529 -1.2647 -0.7467 -0.1608
   41DOPE   H5Y 5251   2.280   4.958   3.563  1.0403  0.8022 -1.5651
   41DOPE   C36 5252   2.118   4.974   3.711  0.2634  0.1285 -0.7900
   41DOPE   H6X 5253   2.146   4.875   3.753 -1.0647  0.1966  0.3468
   41DOPE   H6Y 5254   2.009   4.996   3.712  0.1818 -0.2841 -0.2546
   41DOPE   C37 5255   2.181   5.080   3.795  0.1330 -0.0168  0.2486
   41DOPE   H7X 5256   2.290   5.058   3.793 -0.0088 -0.7516  0.4046
   41DOPE   H7Y 5257   2.173   5.176   3.740  3.8263 -1.4804 -3.3063
   41DOPE   C38 5258   2.151   5.090   3.945 -0.3180 -0.5598 -0.4412
   41DOPE   H8X 5259   2.043   5.112   3.955 -0.3307 -0.3811 -0.9879
   41DOPE   H8Y 5260   2.214   5.177   3.974  1.7103 -1.2749 -2.3982
   41DOPE   C39 5261   2.176   4.958   4.014 -0.1406 -0.6962 -0.6753
   41DOPE   H9X 5262   2.130   4.865   3.977  0.1529 -1.2549  0.3194
   41DOPE  C310 5263   2.246   4.940   4.128 -0.4796  0.5725 -0.4143
   41DOPE  H10X 5264   2.241   4.841   4.174 -1.5949  1.6918  2.0545
   41DOPE  C311 5265   2.324   5.048   4.213 -0.1867  0.0533 -0.3678
   41DOPE  H11X 5266   2.433   5.031   4.222 -0.2697 -0.3840 -0.1460
   41DOPE  H11Y 5267   2.323   5.146   4.162  1.1000  1.1379  1.5642
   41DOPE  C312 5268   2.272   5.051   4.359 -0.4539 -0.8658  0.1442
   41DOPE  H12X 5269   2.249   4.950   4.398 -1.9059 -0.5341  0.2014
   41DOPE  H12Y 5270   2.183   5.117   4.370  0.1982  0.4156 -1.7850
   41DOPE  C313 5271   2.377   5.103   4.456 -0.1411  0.2020 -0.1757
   41DOPE  H13X 5272   2.446   5.023   4.489 -1.0777 -0.7857 -0.5360
   41DOPE  H13Y 5273   2.440   5.176   4.400  0.3685  1.4370  1.8958
   41DOPE  C314 5274   2.319   5.180   4.575 -0.2219  0.2844  0.2891
   41DOPE  H14X 5275   2.283   5.275   4.531  0.3499  0.0671 -0.6547
   41DOPE  H14Y 5276   2.396   5.201   4.653 -0.4733  0.5244  0.4754
   41DOPE  C315 5277   2.212   5.103   4.657  0.0986  0.2080  0.9462
   41DOPE  H15X 5278   2.134   5.065   4.587  1.4747 -1.7383  0.3983
   41DOPE  H15Y 5279   2.171   5.167   4.738 -1.5960  1.0514 -0.5103
   41DOPE  C316 5280   2.260   4.977   4.709 -0.3052  0.4049  0.2206
   41DOPE  H16X 5281   2.361   4.995   4.751  1.1656  0.3441 -3.0294
   41DOPE  H16Y 5282   2.291   4.908   4.628  1.1933 -0.3146  1.3606
   41DOPE  C317 5283   2.162   4.896   4.797 -0.2839  0.1368 -0.4002
   41DOPE  H17X 5284   2.120   4.947   4.887 -1.1356  1.8754 -1.7051
   41DOPE  H17Y 5285   2.070   4.879   4.737  1.1217 -1.0473 -2.3238
   41DOPE  C318 5286   2.218   4.761   4.848 -0.2202  0.0094 -0.1329
   41DOPE  H18X 5287   2.308   4.766   4.913 -0.8593 -0.7122  0.8394
   41DOPE  H18Y 5288   2.134   4.703   4.891 -0.5439  1.7113  1.6872
   41DOPE  H18Z 5289   2.260   4.709   4.759  0.1663  0.1036 -0.0106
   42DOPE     N 5290   1.889   4.317   2.751  0.1057 -0.0102  0.0834
   42DOPE   HN1 5291   1.861   4.409   2.789  0.1278  0.1325 -0.2454
   42DOPE   HN2 5292   1.971   4.292   2.810  0.1533  0.3318  0.1628
   42DOPE   HN3 5293   1.918   4.318   2.651  0.0730 -2.1782 -0.0043
   42DOPE   C12 5294   1.783   4.213   2.775 -0.0078  0.1445 -0.1561
   42DOPE  H12A 5295   1.693   4.252   2.722  2.0071  2.1781 -2.3646
   42DOPE  H12B 5296   1.770   4.211   2.885  1.0763  0.8416  0.0021
   42DOPE   C11 5297   1.824   4.070   2.738  0.0103 -0.5990 -0.1858
   42DOPE  H11A 5298   1.821   4.052   2.629  1.9169  0.5907 -0.4974
   42DOPE  H11B 5299   1.750   3.995   2.773  1.1957 -1.2139  1.1205
   42DOPE     P 5300   2.049   3.924   2.770 -0.1007  0.2019 -0.3038
   42DOPE   O13 5301   2.173   3.949   2.850 -0.2290 -0.2172  0.6632
   42DOPE   O14 5302   2.076   3.905   2.626 -0.4968  0.5473  0.0103
   42DOPE   O11 5303   1.966   3.803   2.820 -0.3747  0.5062 -0.3938
   42DOPE   O12 5304   1.954   4.047   2.784  0.0486  0.2891 -0.5661
   42DOPE    C1 5305   2.020   3.700   2.906 -0.0721  0.0309 -0.1441
   42DOPE    HA 5306   2.126   3.677   2.886  0.3288 -0.3355  2.1116
   42DOPE    HB 5307   1.955   3.612   2.886  0.8807 -0.5941 -0.5354
   42DOPE    C2 5308   2.019   3.733   3.055 -0.0539 -0.3431 -0.3550
   42DOPE    HS 5309   1.991   3.639   3.106  0.2074 -0.9069 -1.2310
   42DOPE   O21 5310   1.931   3.844   3.087 -0.6160  0.5467  0.2142
   42DOPE   C21 5311   1.808   3.804   3.083  0.3756 -0.2025  0.0908
   42DOPE   O22 5312   1.767   3.687   3.075  0.0587  0.1452  0.4003
   42DOPE   C22 5313   1.724   3.925   3.109 -0.2019 -0.1006 -0.1484
   42DOPE   H2R 5314   1.616   3.896   3.103 -0.0029 -0.8498 -0.2636
   42DOPE   H2S 5315   1.750   4.001   3.033 -1.1638  0.9626  0.5520
   42DOPE    C3 5316   2.165   3.753   3.111 -0.4560  0.1814 -0.0026
   42DOPE    HX 5317   2.207   3.833   3.046 -1.7663 -0.5062 -1.7649
   42DOPE    HY 5318   2.224   3.659   3.114  0.3196  0.6384  2.9440
   42DOPE   O31 5319   2.174   3.789   3.252 -0.0418 -0.2967  0.0322
   42DOPE   C31 5320   2.300   3.822   3.279  0.6279 -0.8615 -0.3054
   42DOPE   O32 5321   2.391   3.813   3.203 -0.3909  0.0890 -0.2664
   42DOPE   C32 5322   2.316   3.857   3.432 -0.0562  0.0412  0.0461
   42DOPE   H2X 5323   2.349   3.962   3.423  0.6648 -0.2358 -0.6947
   42DOPE   H2Y 5324   2.212   3.851   3.472 -0.4169 -0.0682 -0.8685
   42DOPE   C23 5325   1.752   3.995   3.246  0.4268  0.2335 -0.8470
   42DOPE   H3R 5326   1.717   4.101   3.249  1.1387  0.4500  1.6270
   42DOPE   H3S 5327   1.861   4.013   3.261  0.4738  0.3342 -1.2884
   42DOPE   C24 5328   1.685   3.914   3.361 -0.3434 -0.3242 -0.6789
   42DOPE   H4R 5329   1.714   3.807   3.365 -0.1608 -0.2755  3.2162
   42DOPE   H4S 5330   1.577   3.905   3.340 -0.1568 -1.8507 -1.0885
   42DOPE   C25 5331   1.712   3.966   3.503  0.6120  0.9905  0.5408
   42DOPE   H5R 5332   1.821   3.962   3.520  0.6688  1.4561  0.2832
   42DOPE   H5S 5333   1.665   3.895   3.575  0.7376 -0.4403 -0.7174
   42DOPE   C26 5334   1.656   4.108   3.539 -0.5811  0.0673 -0.0735
   42DOPE   H6R 5335   1.553   4.121   3.502 -0.5012  1.3122  0.1106
   42DOPE   H6S 5336   1.725   4.174   3.482 -1.4339  1.1272  0.0873
   42DOPE   C27 5337   1.683   4.141   3.684  0.0633 -0.1149 -1.1574
   42DOPE   H7R 5338   1.792   4.135   3.703 -0.1697 -2.5537 -0.1290
   42DOPE   H7S 5339   1.640   4.058   3.744  2.6885 -0.0794  0.9647
   42DOPE   C28 5340   1.626   4.284   3.718  0.2016 -0.2953 -0.2622
   42DOPE   H8R 5341   1.527   4.299   3.670 -0.5305  0.8165  1.5024
   42DOPE   H8S 5342   1.684   4.370   3.679 -1.0242 -0.1160 -1.8355
   42DOPE   C29 5343   1.612   4.299   3.864 -0.3487  1.0364  0.5949
   42DOPE   H9R 5344   1.542   4.228   3.911  0.7478 -0.9588 -0.5993
   42DOPE  C210 5345   1.671   4.388   3.940 -0.7250  0.3422 -0.4896
   42DOPE  H10R 5346   1.643   4.389   4.046 -1.6556  2.6847 -0.7043
   42DOPE  C211 5347   1.781   4.491   3.914  0.2509  0.3795 -0.1202
   42DOPE  H11R 5348   1.733   4.591   3.910 -1.7088 -0.4699  0.8918
   42DOPE  H11S 5349   1.817   4.463   3.812 -0.0637 -0.4419 -0.0170
   42DOPE  C212 5350   1.896   4.487   4.011  0.5507  0.4246  0.4884
   42DOPE  H12R 5351   1.980   4.550   3.975  1.5262 -0.0625  1.8090
   42DOPE  H12S 5352   1.933   4.382   4.014  1.8661  0.8038 -1.2304
   42DOPE  C213 5353   1.858   4.539   4.148  0.6241  0.5683  0.8215
   42DOPE  H13R 5354   1.801   4.455   4.191  2.7831 -1.0558  0.6892
   42DOPE  H13S 5355   1.805   4.636   4.134  2.3111  1.4552  0.1691
   42DOPE  C214 5356   1.972   4.561   4.241 -0.2262 -0.8951 -0.2933
   42DOPE  H14R 5357   2.056   4.622   4.201 -1.0787 -0.1716 -1.0264
   42DOPE  H14S 5358   2.005   4.455   4.252 -1.3097 -1.2217 -0.1263
   42DOPE  C215 5359   1.940   4.616   4.378  0.1144 -0.3147  0.1072
   42DOPE  H15R 5360   2.034   4.640   4.432 -0.9335  1.5218  1.1973
   42DOPE  H15S 5361   1.884   4.540   4.437 -1.2764 -0.1015 -0.8854
   42DOPE  C216 5362   1.854   4.748   4.376  0.4907  0.2464  0.3993
   42DOPE  H16R 5363   1.814   4.765   4.479 -1.9406 -0.9484 -0.2845
   42DOPE  H16S 5364   1.762   4.747   4.314 -0.3335 -0.2747  1.5805
   42DOPE  C217 5365   1.947   4.866   4.332 -0.0237  0.8548  0.1709
   42DOPE  H17R 5366   1.970   4.848   4.225 -2.8374 -1.4133 -0.2012
   42DOPE  H17S 5367   2.044   4.882   4.382 -0.2405 -0.4506  1.0620
   42DOPE  C218 5368   1.866   5.008   4.346 -0.0730  0.2460  0.6734
   42DOPE  H18R 5369   1.944   5.084   4.322  1.4132 -1.8706 -1.8529
   42DOPE  H18S 5370   1.828   5.011   4.450 -0.6390  2.0535  0.4469
   42DOPE  H18T 5371   1.783   5.008   4.273  0.5911  0.2519 -0.0989
   42DOPE   C33 5372   2.419   3.758   3.489  0.0270 -0.3367  0.0015
   42DOPE   H3X 5373   2.516   3.785   3.441  0.1784 -0.6899  0.1056
   42DOPE   H3Y 5374   2.393   3.652   3.468  1.9827 -0.4145 -2.6283
   42DOPE   C34 5375   2.431   3.774   3.641 -0.2587 -0.3874 -0.8421
   42DOPE   H4X 5376   2.535   3.750   3.670 -1.3465 -1.9617  2.2695
   42DOPE   H4Y 5377   2.402   3.877   3.670 -1.4325 -1.0670  0.5833
   42DOPE   C35 5378   2.339   3.679   3.731  0.4088  0.8540 -0.4309
   42DOPE   H5X 5379   2.356   3.686   3.841 -0.3444  2.1761 -0.3773
   42DOPE   H5Y 5380   2.362   3.573   3.705 -2.5672  0.0160 -0.0659
   42DOPE   C36 5381   2.185   3.693   3.714 -0.0836 -0.3093  0.4914
   42DOPE   H6X 5382   2.145   3.612   3.780  3.1416 -0.2614  2.7359
   42DOPE   H6Y 5383   2.157   3.673   3.609  0.9253  0.3339  0.0865
   42DOPE   C37 5384   2.125   3.830   3.755 -0.5032  0.6145 -0.2917
   42DOPE   H7X 5385   2.142   3.844   3.864 -0.5739 -0.0925 -0.1852
   42DOPE   H7Y 5386   2.192   3.902   3.703  3.6168  0.2807  3.8820
   42DOPE   C38 5387   1.982   3.836   3.708 -0.5815  0.0473  0.0034
   42DOPE   H8X 5388   1.965   3.801   3.604 -0.0457  0.0967 -0.1048
   42DOPE   H8Y 5389   1.967   3.946   3.715  0.5765  0.4091 -2.0331
   42DOPE   C39 5390   1.894   3.769   3.803  0.0853 -0.8150 -0.8333
   42DOPE   H9X 5391   1.862   3.668   3.772 -0.8641 -1.9633  3.3371
   42DOPE  C310 5392   1.846   3.824   3.916  0.0405 -0.4460  0.3522
   42DOPE  H10X 5393   1.790   3.759   3.985  2.0957 -0.8654  1.7115
   42DOPE  C311 5394   1.878   3.955   3.975  0.1200  0.0229  0.0231
   42DOPE  H11X 5395   1.943   4.013   3.907  2.6301 -1.9363  0.5876
   42DOPE  H11Y 5396   1.788   4.019   3.985 -1.2308 -1.8037  0.1483
   42DOPE  C312 5397   1.953   3.938   4.105 -0.4099  0.4956 -0.5653
   42DOPE  H12X 5398   2.044   3.878   4.084 -0.0806  1.0064 -0.6124
   42DOPE  H12Y 5399   1.889   3.867   4.161 -1.8654  1.6722 -0.6644
   42DOPE  C313 5400   1.971   4.058   4.191  0.0382  0.4064 -0.0318
   42DOPE  H13X 5401   2.035   4.131   4.136  2.1144 -0.1483  1.5438
   42DOPE  H13Y 5402   1.879   4.120   4.198  0.0247  0.5608 -1.2851
   42DOPE  C314 5403   2.017   4.035   4.333  0.3080  0.0852  0.8418
   42DOPE  H14X 5404   2.050   4.136   4.366  0.5710  0.4917 -0.6291
   42DOPE  H14Y 5405   2.107   3.969   4.340 -1.0768 -1.8777  1.2156
   42DOPE  C315 5406   1.911   3.974   4.428 -0.4488  0.3989  0.6785
   42DOPE  H15X 5407   1.870   3.892   4.366 -0.0243 -0.2521  1.2445
   42DOPE  H15Y 5408   1.828   4.045   4.451  0.3846  0.8833  2.3881
   42DOPE  C316 5409   1.957   3.905   4.557  0.4397 -0.1441  0.7231
   42DOPE  H16X 5410   1.977   3.986   4.630 -1.1163  0.5669  0.4039
   42DOPE  H16Y 5411   2.046   3.846   4.525  0.0421 -0.0095 -0.7004
   42DOPE  C317 5412   1.855   3.807   4.616  0.3990 -0.2203 -0.0908
   42DOPE  H17X 5413   1.762   3.855   4.654  1.1447  2.0148 -0.8983
   42DOPE  H17Y 5414   1.822   3.727   4.546 -0.1499 -2.4638  2.5890
   42DOPE  C318 5415   1.927   3.729   4.725 -0.2758  0.0418  0.3776
   42DOPE  H18X 5416   1.866   3.643   4.759  0.2517 -1.9895 -3.2931
   42DOPE  H18Y 5417   2.019   3.684   4.680 -0.7598  1.0497 -1.7312
   42DOPE  H18Z 5418   1.969   3.789   4.809  0.6746  1.3637 -1.0013
   43DOPE     N 5419   1.313   4.169   2.726  0.0781  0.2074 -0.1528
   43DOPE   HN1 5420   1.374   4.253   2.727  0.2354  0.0913  0.1302
   43DOPE   HN2 5421   1.349   4.084   2.774  0.7898 -0.0347 -1.0934
   43DOPE   HN3 5422   1.308   4.147   2.625  3.0736 -0.3493 -0.2689
   43DOPE   C12 5423   1.180   4.194   2.782 -0.1557 -0.0250 -0.0993
   43DOPE  H12A 5424   1.126   4.276   2.729  1.5437  1.8530  0.9294
   43DOPE  H12B 5425   1.205   4.237   2.881  1.9256 -0.3422 -0.4483
   43DOPE   C11 5426   1.103   4.062   2.791  0.4541  0.2625  0.0117
   43DOPE  H11A 5427   1.163   4.009   2.868 -0.0457 -1.5196 -0.7548
   43DOPE  H11B 5428   1.108   3.991   2.705 -1.1312 -0.6903  0.6669
   43DOPE     P 5429   0.890   3.946   2.863  0.1544  0.3593 -0.1030
   43DOPE   O13 5430   0.869   3.864   2.741 -0.2344  0.3410 -0.1770
   43DOPE   O14 5431   0.767   3.968   2.941 -0.8266 -0.0259  0.3904
   43DOPE   O11 5432   0.994   3.865   2.945  0.0147 -0.8190  0.3081
   43DOPE   O12 5433   0.968   4.081   2.828  0.6937 -0.7110  0.4380
   43DOPE    C1 5434   0.988   3.835   3.081 -0.8283 -0.3743 -0.1946
   43DOPE    HA 5435   1.030   3.734   3.103  0.7748  0.1483 -0.6861
   43DOPE    HB 5436   0.889   3.852   3.128 -0.2579 -0.0009  0.9083
   43DOPE    C2 5437   1.099   3.918   3.162 -0.0838 -0.0573 -0.0557
   43DOPE    HS 5438   1.193   3.901   3.105 -1.0517 -1.1970 -1.3750
   43DOPE   O21 5439   1.110   3.869   3.302  0.7565  0.0305 -0.1730
   43DOPE   C21 5440   1.236   3.901   3.348  0.4745  0.2650  0.3828
   43DOPE   O22 5441   1.332   3.914   3.277 -0.0711 -0.1912  0.6052
   43DOPE   C22 5442   1.235   3.901   3.501 -0.1189  0.1606  0.2042
   43DOPE   H2R 5443   1.142   3.855   3.542 -0.7316  1.2796  0.1221
   43DOPE   H2S 5444   1.240   4.009   3.522  0.2802  0.8251 -2.8056
   43DOPE    C3 5445   1.074   4.076   3.168  0.1430  0.6220 -0.1631
   43DOPE    HX 5446   0.974   4.099   3.212 -0.4981 -2.1679  0.0206
   43DOPE    HY 5447   1.058   4.117   3.066 -3.2757  0.5187  0.2091
   43DOPE   O31 5448   1.177   4.143   3.231 -0.4093 -0.8599 -0.8567
   43DOPE   C31 5449   1.299   4.167   3.168 -0.2111  0.7825  0.6013
   43DOPE   O32 5450   1.330   4.122   3.060  0.0042 -0.2546  0.1067
   43DOPE   C32 5451   1.389   4.233   3.258 -0.8436 -0.2441 -0.6219
   43DOPE   H2X 5452   1.369   4.219   3.366  1.0104  0.6515 -0.1151
   43DOPE   H2Y 5453   1.492   4.194   3.242  0.4342  1.6401  2.2134
   43DOPE   C23 5454   1.355   3.833   3.573  0.2439 -0.0052  0.3734
   43DOPE   H3R 5455   1.338   3.825   3.683  4.1623  0.4650  1.1523
   43DOPE   H3S 5456   1.436   3.908   3.569  0.0921  0.1553 -3.6166
   43DOPE   C24 5457   1.411   3.707   3.514  0.1847 -0.1367  0.4303
   43DOPE   H4R 5458   1.471   3.739   3.426  0.4464 -2.0161 -0.1403
   43DOPE   H4S 5459   1.331   3.637   3.480  0.5363 -0.8831  1.0921
   43DOPE   C25 5460   1.505   3.632   3.612  0.5608  0.0232  0.5716
   43DOPE   H5R 5461   1.567   3.701   3.673  0.8525 -0.0461  0.3573
   43DOPE   H5S 5462   1.577   3.577   3.547 -1.7182 -2.5099  0.0176
   43DOPE   C26 5463   1.441   3.525   3.702 -0.0153 -0.0449 -0.3930
   43DOPE   H6R 5464   1.360   3.479   3.641  0.4676  0.1844 -1.2214
   43DOPE   H6S 5465   1.387   3.575   3.785  1.8156  0.0091  0.8105
   43DOPE   C27 5466   1.540   3.414   3.752 -0.0076  0.9899 -0.9291
   43DOPE   H7R 5467   1.570   3.360   3.660 -2.1076 -2.0195  0.0096
   43DOPE   H7S 5468   1.482   3.352   3.823  1.5239  1.0844  0.4540
   43DOPE   C28 5469   1.677   3.460   3.808 -0.0549 -0.7167  0.1356
   43DOPE   H8R 5470   1.651   3.523   3.896  0.8444  0.1221 -0.1825
   43DOPE   H8S 5471   1.736   3.523   3.739  1.2217 -0.4735  1.3936
   43DOPE   C29 5472   1.759   3.336   3.847  0.0595  0.0005 -0.0563
   43DOPE   H9R 5473   1.729   3.242   3.798  2.6836 -1.9399  1.7688
   43DOPE  C210 5474   1.841   3.326   3.947  0.2000 -0.6728 -0.1965
   43DOPE  H10R 5475   1.893   3.232   3.971 -0.9746 -0.6154  2.9920
   43DOPE  C211 5476   1.882   3.435   4.035 -0.0308  0.8039 -0.3143
   43DOPE  H11R 5477   1.811   3.417   4.119 -2.4929  0.7689 -2.2818
   43DOPE  H11S 5478   1.864   3.533   3.987 -1.0559  0.7616 -0.0277
   43DOPE  C212 5479   2.028   3.431   4.073  0.2362 -0.2870  0.3981
   43DOPE  H12R 5480   2.099   3.444   3.989  2.0728  1.3588  2.0804
   43DOPE  H12S 5481   2.057   3.329   4.106  0.4156  0.4688  2.7935
   43DOPE  C213 5482   2.071   3.532   4.183  0.6757  0.2254 -0.0957
   43DOPE  H13R 5483   2.004   3.526   4.271  1.2028  0.8690  0.3593
   43DOPE  H13S 5484   2.053   3.638   4.155  0.7478  0.2071 -0.2149
   43DOPE  C214 5485   2.211   3.503   4.234  0.0812 -0.5091  0.5336
   43DOPE  H14R 5486   2.278   3.493   4.146 -0.9563  0.2842 -0.3944
   43DOPE  H14S 5487   2.201   3.405   4.284 -2.5828 -1.1058 -0.9841
   43DOPE  C215 5488   2.256   3.599   4.343 -0.4725 -1.0424  0.0611
   43DOPE  H15R 5489   2.348   3.566   4.397  0.0230  0.8567  0.4767
   43DOPE  H15S 5490   2.183   3.616   4.424  0.7896  0.6690  0.9155
   43DOPE  C216 5491   2.303   3.734   4.276  0.4516 -0.0115  0.0529
   43DOPE  H16R 5492   2.326   3.807   4.357 -0.1922  1.1981 -0.8204
   43DOPE  H16S 5493   2.222   3.762   4.206  0.0772 -1.6457 -0.2128
   43DOPE  C217 5494   2.433   3.718   4.199  0.3785 -0.5633 -0.0304
   43DOPE  H17R 5495   2.414   3.634   4.128 -1.7518 -1.1281  1.1265
   43DOPE  H17S 5496   2.518   3.685   4.262 -0.6606 -0.1138  1.6610
   43DOPE  C218 5497   2.473   3.845   4.121 -0.2746 -0.0372 -0.2941
   43DOPE  H18R 5498   2.392   3.868   4.048  0.5025  1.5084 -0.7123
   43DOPE  H18S 5499   2.567   3.831   4.063 -0.3658 -0.1197 -0.4221
   43DOPE  H18T 5500   2.474   3.937   4.183  0.6840  0.5010 -1.0766
   43DOPE   C33 5501   1.400   4.387   3.223 -0.0733  1.2803  0.5337
   43DOPE   H3X 5502   1.303   4.441   3.233 -0.6708  0.6883 -1.5113
   43DOPE   H3Y 5503   1.428   4.397   3.116 -2.2454 -0.7742 -0.3281
   43DOPE   C34 5504   1.509   4.457   3.302 -0.5252  0.1223 -0.1141
   43DOPE   H4X 5505   1.508   4.413   3.404  0.5450 -1.0002 -0.5645
   43DOPE   H4Y 5506   1.609   4.432   3.263 -0.8611 -1.4636 -0.0129
   43DOPE   C35 5507   1.493   4.616   3.300 -0.4999  0.2096  0.6446
   43DOPE   H5X 5508   1.384   4.638   3.302 -0.1805  2.2967 -1.5049
   43DOPE   H5Y 5509   1.540   4.654   3.207  0.6838  1.1574  1.6035
   43DOPE   C36 5510   1.569   4.696   3.412 -0.9793  0.2566 -0.2185
   43DOPE   H6X 5511   1.570   4.803   3.382 -1.9087  0.1415 -0.7042
   43DOPE   H6Y 5512   1.672   4.655   3.420 -0.9053  0.6416  0.9693
   43DOPE   C37 5513   1.502   4.688   3.551 -0.4898 -0.3451  0.5861
   43DOPE   H7X 5514   1.391   4.700   3.548 -0.7627 -2.5653 -0.4918
   43DOPE   H7Y 5515   1.515   4.585   3.588 -2.6536 -1.7425 -2.0891
   43DOPE   C38 5516   1.567   4.787   3.645  0.4328 -0.1225  0.4801
   43DOPE   H8X 5517   1.551   4.891   3.609 -1.2029 -0.4831  0.1000
   43DOPE   H8Y 5518   1.676   4.767   3.643  0.2770 -1.1160  1.2735
   43DOPE   C39 5519   1.519   4.759   3.789  0.2937 -0.4198 -0.3306
   43DOPE   H9X 5520   1.512   4.652   3.814 -0.8368 -0.4345 -0.6349
   43DOPE  C310 5521   1.497   4.854   3.878  0.3430  0.2907  0.0865
   43DOPE  H10X 5522   1.449   4.831   3.974  1.3106  2.2192  1.1038
   43DOPE  C311 5523   1.537   5.000   3.864  0.2756 -0.8210 -0.0459
   43DOPE  H11X 5524   1.605   5.027   3.781  0.1099  0.8871  0.3307
   43DOPE  H11Y 5525   1.445   5.057   3.838  0.2765 -1.5215 -1.7224
   43DOPE  C312 5526   1.623   5.037   3.985  0.3464  0.2723 -0.0447
   43DOPE  H12X 5527   1.699   4.960   4.008  0.9828  0.3768 -1.6750
   43DOPE  H12Y 5528   1.558   5.051   4.075  0.0338  1.1957 -0.4082
   43DOPE  C313 5529   1.697   5.161   3.957 -0.0814 -0.1255 -0.2274
   43DOPE  H13X 5530   1.780   5.127   3.891 -0.7230  1.0548 -1.7102
   43DOPE  H13Y 5531   1.630   5.229   3.900 -1.0153 -0.5543  0.3338
   43DOPE  C314 5532   1.756   5.227   4.081 -0.9481 -0.3888 -0.0955
   43DOPE  H14X 5533   1.848   5.174   4.115 -0.6826 -0.5272 -0.9871
   43DOPE  H14Y 5534   1.682   5.215   4.163 -1.0490  1.2171  0.0758
   43DOPE  C315 5535   1.772   5.384   4.069  0.2308  0.3644  0.9405
   43DOPE  H15X 5536   1.673   5.413   4.030  0.4394 -1.3289 -1.0093
   43DOPE  H15Y 5537   1.849   5.417   3.996 -0.0897 -3.8965 -1.6662
   43DOPE  C316 5538   1.792   5.467   4.194 -0.2359  0.3934  0.2561
   43DOPE  H16X 5539   1.703   5.471   4.261  0.3559  0.3156  1.0670
   43DOPE  H16Y 5540   1.803   5.573   4.162  1.2895  0.2003  0.0741
   43DOPE  C317 5541   1.910   5.425   4.281 -0.6180 -0.3720  0.0858
   43DOPE  H17X 5542   1.909   5.320   4.318 -1.1094 -0.0199  1.1153
   43DOPE  H17Y 5543   1.999   5.420   4.214 -0.2857 -1.6354  0.5851
   43DOPE  C318 5544   1.949   5.524   4.398 -0.1324  0.1570  0.5176
   43DOPE  H18X 5545   1.859   5.539   4.460 -1.0038 -0.3648 -0.5898
   43DOPE  H18Y 5546   2.038   5.490   4.456  1.3051 -0.2898 -1.8535
   43DOPE  H18Z 5547   1.969   5.622   4.350 -0.7586  0.8202  1.5717
   44DOPE     N 5548   3.466   1.862   2.144 -0.8072  0.2741  0.4314
   44DOPE   HN1 5549   3.567   1.886   2.147 -0.7871  0.4956 -1.0498
   44DOPE   HN2 5550   3.420   1.928   2.078 -0.6450 -0.3664 -0.3386
   44DOPE   HN3 5551   3.428   1.877   2.239  1.9861  1.5768  1.4483
   44DOPE   C12 5552   3.461   1.720   2.105 -0.5377  0.0341  0.6165
   44DOPE  H12A 5553   3.535   1.698   2.025 -0.4493 -1.3836  1.0476
   44DOPE  H12B 5554   3.361   1.699   2.062 -0.7944 -1.0510  1.6730
   44DOPE   C11 5555   3.483   1.631   2.225  0.4141  0.2588  0.3341
   44DOPE  H11A 5556   3.412   1.645   2.309 -0.3430 -0.0939 -0.2392
   44DOPE  H11B 5557   3.577   1.677   2.262  0.6672  1.2717 -1.4659
   44DOPE     P 5558   3.610   1.407   2.196 -0.1580  0.5618  0.0974
   44DOPE   O13 5559   3.731   1.491   2.207  0.5133 -0.0812 -0.1021
   44DOPE   O14 5560   3.601   1.310   2.089  0.0369 -0.0517  0.5750
   44DOPE   O11 5561   3.588   1.328   2.330 -0.2459 -0.2748 -0.0567
   44DOPE   O12 5562   3.476   1.490   2.189 -0.1927 -0.6056  0.6918
   44DOPE    C1 5563   3.462   1.289   2.393 -0.1190 -0.3637  0.0678
   44DOPE    HA 5564   3.465   1.179   2.378  0.2963 -0.5988  1.7044
   44DOPE    HB 5565   3.374   1.341   2.350 -0.0836  0.6145  1.1253
   44DOPE    C2 5566   3.461   1.334   2.542  0.2521  0.0457 -0.1906
   44DOPE    HS 5567   3.466   1.445   2.541 -1.5284  0.1535 -1.4150
   44DOPE   O21 5568   3.563   1.267   2.622 -0.3339 -0.4412 -0.0978
   44DOPE   C21 5569   3.602   1.348   2.721  0.1806  0.2133  0.1598
   44DOPE   O22 5570   3.577   1.465   2.732  0.0158 -0.6021  0.2645
   44DOPE   C22 5571   3.687   1.280   2.829 -0.8322  0.2082  0.0692
   44DOPE   H2R 5572   3.788   1.324   2.837 -0.4649 -0.8215  1.2994
   44DOPE   H2S 5573   3.694   1.169   2.824  0.6190  0.2527  0.6844
   44DOPE    C3 5574   3.316   1.299   2.591  0.1439  0.5336  0.4489
   44DOPE    HX 5575   3.293   1.191   2.578 -0.8939  0.4572  2.4733
   44DOPE    HY 5576   3.249   1.362   2.529  2.2833  2.6554  0.1827
   44DOPE   O31 5577   3.300   1.332   2.731  0.7603 -0.0666  0.5362
   44DOPE   C31 5578   3.264   1.452   2.765  0.2372 -0.2953 -0.4099
   44DOPE   O32 5579   3.244   1.548   2.688 -0.6370 -0.2676  0.3315
   44DOPE   C32 5580   3.227   1.462   2.911 -0.8952  0.4779 -0.3459
   44DOPE   H2X 5581   3.120   1.483   2.932 -0.6209  2.3254 -0.5677
   44DOPE   H2Y 5582   3.248   1.363   2.956  1.4216  0.5277 -1.1503
   44DOPE   C23 5583   3.624   1.317   2.966  0.3717  0.1049  0.2867
   44DOPE   H3R 5584   3.517   1.290   2.959  0.8889 -2.7810  1.9124
   44DOPE   H3S 5585   3.640   1.425   2.985  1.6735 -0.0426  0.1387
   44DOPE   C24 5586   3.679   1.247   3.092  0.4147  0.0302 -0.2904
   44DOPE   H4R 5587   3.789   1.259   3.099  0.2943  0.9299  0.1631
   44DOPE   H4S 5588   3.652   1.140   3.079  0.3447 -0.2588  1.9508
   44DOPE   C25 5589   3.614   1.303   3.221 -0.0205  0.3977 -0.4473
   44DOPE   H5R 5590   3.504   1.293   3.209 -0.0647 -0.0659  0.3039
   44DOPE   H5S 5591   3.637   1.411   3.233 -1.2091  0.4722  1.5366
   44DOPE   C26 5592   3.664   1.243   3.353  0.4959  0.4120  0.1342
   44DOPE   H6R 5593   3.753   1.301   3.385 -1.0526  2.8959  0.1921
   44DOPE   H6S 5594   3.709   1.144   3.328  1.1432  0.9135 -0.7659
   44DOPE   C27 5595   3.561   1.248   3.452 -0.2414 -0.6543 -0.5324
   44DOPE   H7R 5596   3.478   1.176   3.431  0.3452 -1.4352 -0.2089
   44DOPE   H7S 5597   3.527   1.354   3.458  1.3394 -0.1719  0.5582
   44DOPE   C28 5598   3.618   1.210   3.594  0.1575  1.4684  0.0148
   44DOPE   H8R 5599   3.705   1.278   3.608  0.2116  2.0746 -2.7517
   44DOPE   H8S 5600   3.637   1.101   3.585  1.0696  1.5225  1.0412
   44DOPE   C29 5601   3.505   1.224   3.700 -0.1315  0.9350  0.3163
   44DOPE   H9R 5602   3.405   1.192   3.666  1.0740 -0.2904 -2.4480
   44DOPE  C210 5603   3.526   1.269   3.829 -0.2703  0.0968 -0.4828
   44DOPE  H10R 5604   3.437   1.279   3.893 -1.6084 -2.0701 -1.8905
   44DOPE  C211 5605   3.651   1.330   3.887  0.4202  0.2889  0.1819
   44DOPE  H11R 5606   3.649   1.433   3.928  2.4715  0.8074 -0.8662
   44DOPE  H11S 5607   3.728   1.333   3.806  1.2075 -0.9121  0.8456
   44DOPE  C212 5608   3.714   1.232   3.991 -0.6810 -0.0684  0.7737
   44DOPE  H12R 5609   3.818   1.268   4.006 -0.0129  0.1185 -3.1349
   44DOPE  H12S 5610   3.714   1.124   3.965  0.8100 -0.7136  3.1369
   44DOPE  C213 5611   3.648   1.237   4.133 -0.0428  0.1252  0.2529
   44DOPE  H13R 5612   3.668   1.146   4.193  3.0888  1.2687  1.1520
   44DOPE  H13S 5613   3.538   1.242   4.119  0.0654  1.6197 -0.2992
   44DOPE  C214 5614   3.688   1.358   4.219  0.4583 -0.6529  0.1097
   44DOPE  H14R 5615   3.651   1.439   4.153 -1.6280 -2.0817 -0.5648
   44DOPE  H14S 5616   3.798   1.356   4.240  0.4395 -0.1819  0.2590
   44DOPE  C215 5617   3.611   1.362   4.349  0.2649 -1.1621 -0.6388
   44DOPE  H15R 5618   3.505   1.370   4.313 -0.0454  1.0911  0.5715
   44DOPE  H15S 5619   3.635   1.453   4.408 -0.0665 -0.9497 -0.8245
   44DOPE  C216 5620   3.621   1.235   4.444  0.0209  0.2659 -0.4012
   44DOPE  H16R 5621   3.724   1.206   4.476 -0.6226 -0.6719  0.9204
   44DOPE  H16S 5622   3.592   1.146   4.385 -0.1367 -0.6904  1.0525
   44DOPE  C217 5623   3.547   1.250   4.580 -0.1897  0.5676  0.0016
   44DOPE  H17R 5624   3.611   1.303   4.654 -0.7645  0.9803  0.2129
   44DOPE  H17S 5625   3.534   1.148   4.622 -2.1055  0.5728 -0.4866
   44DOPE  C218 5626   3.416   1.325   4.568  0.3979  0.1571  0.1617
   44DOPE  H18R 5627   3.373   1.328   4.671 -0.4795 -0.4107 -0.1721
   44DOPE  H18S 5628   3.344   1.264   4.508 -0.3499  1.2656 -0.1024
   44DOPE  H18T 5629   3.429   1.431   4.537 -1.1960  0.6948  1.1519
   44DOPE   C33 5630   3.319   1.560   2.981 -0.0679 -0.4754 -0.6600
   44DOPE   H3X 5631   3.306   1.662   2.939  0.1026 -0.2044 -0.0631
   44DOPE   H3Y 5632   3.425   1.534   2.962  0.1310  1.2714 -2.2407
   44DOPE   C34 5633   3.301   1.568   3.139 -0.1127 -0.9258  0.2363
   44DOPE   H4X 5634   3.195   1.593   3.158 -0.1811  0.1692 -1.4174
   44DOPE   H4Y 5635   3.313   1.465   3.179 -2.6530 -1.9712 -1.4524
   44DOPE   C35 5636   3.394   1.670   3.214  0.1564 -0.0515 -0.5247
   44DOPE   H5X 5637   3.350   1.772   3.207 -1.9354 -0.8695 -0.1289
   44DOPE   H5Y 5638   3.492   1.674   3.162  0.3324 -1.6989 -0.3641
   44DOPE   C36 5639   3.416   1.639   3.357  0.4987 -0.1588  0.2309
   44DOPE   H6X 5640   3.442   1.531   3.367 -3.3434 -1.2323  0.1602
   44DOPE   H6Y 5641   3.320   1.653   3.411 -0.3247  3.2870 -1.8733
   44DOPE   C37 5642   3.524   1.720   3.424 -0.1880  0.4135  0.8173
   44DOPE   H7X 5643   3.620   1.684   3.383 -0.8697 -1.5343  0.8145
   44DOPE   H7Y 5644   3.507   1.822   3.383  1.8394 -0.4584 -2.5190
   44DOPE   C38 5645   3.550   1.730   3.576  0.0609 -0.5169  0.1954
   44DOPE   H8X 5646   3.627   1.807   3.599  0.3922 -0.3428 -1.3640
   44DOPE   H8Y 5647   3.590   1.635   3.617  2.4754 -0.0390 -0.8576
   44DOPE   C39 5648   3.430   1.772   3.658  0.4913  0.0645  0.1942
   44DOPE   H9X 5649   3.337   1.794   3.603  0.1512  1.4612  1.2865
   44DOPE  C310 5650   3.431   1.787   3.789  0.0934  0.5283  0.1140
   44DOPE  H10X 5651   3.347   1.831   3.845 -1.1195 -1.8345  0.2720
   44DOPE  C311 5652   3.555   1.746   3.869  0.5203  0.1733  1.2278
   44DOPE  H11X 5653   3.559   1.635   3.873 -1.6535  0.0326  1.1616
   44DOPE  H11Y 5654   3.641   1.788   3.813 -1.3109 -0.0013 -2.0097
   44DOPE  C312 5655   3.564   1.791   4.012  0.9321  0.2248 -0.1634
   44DOPE  H12X 5656   3.552   1.902   4.011 -0.2758  0.1013 -0.8001
   44DOPE  H12Y 5657   3.666   1.758   4.043 -0.3023 -1.4354  2.5604
   44DOPE  C313 5658   3.452   1.723   4.102  0.5775 -0.2127 -0.0925
   44DOPE  H13X 5659   3.354   1.765   4.071  0.8707  1.6305  1.2907
   44DOPE  H13Y 5660   3.453   1.614   4.086  0.7920 -0.3405  0.7284
   44DOPE  C314 5661   3.465   1.752   4.252  0.0801  0.1907 -0.0995
   44DOPE  H14X 5662   3.572   1.734   4.275 -0.0463 -0.4831 -0.0179
   44DOPE  H14Y 5663   3.396   1.684   4.306  1.0082 -2.0600 -1.6199
   44DOPE  C315 5664   3.418   1.896   4.283 -0.1586  0.1405  0.8806
   44DOPE  H15X 5665   3.323   1.910   4.228  0.2478 -1.7246 -0.3923
   44DOPE  H15Y 5666   3.493   1.965   4.241  0.1291  0.7999  2.3994
   44DOPE  C316 5667   3.403   1.925   4.432 -0.3547  0.1472  0.5968
   44DOPE  H16X 5668   3.337   1.849   4.479 -0.5848 -0.6434 -0.9450
   44DOPE  H16Y 5669   3.347   2.019   4.449 -0.6803  0.0580  0.0476
   44DOPE  C317 5670   3.536   1.924   4.510  0.2389  0.6235 -0.7332
   44DOPE  H17X 5671   3.557   1.823   4.550  0.4755  0.8081 -0.3860
   44DOPE  H17Y 5672   3.627   1.952   4.453  1.3842 -1.3488  0.0290
   44DOPE  C318 5673   3.538   2.011   4.631 -0.0740  0.2203  0.6282
   44DOPE  H18X 5674   3.470   1.962   4.704 -0.1948 -1.4394 -0.5514
   44DOPE  H18Y 5675   3.643   2.016   4.668 -0.3985  0.0069  1.6008
   44DOPE  H18Z 5676   3.498   2.111   4.602 -1.4428 -0.3233  0.5915
   45DOPE     N 5677   3.958   1.609   2.248 -0.3135 -0.8747  0.3210
   45DOPE   HN1 5678   4.009   1.520   2.263  0.1963 -1.1746 -2.4880
   45DOPE   HN2 5679   3.856   1.594   2.233 -0.4604 -0.5187  0.9406
   45DOPE   HN3 5680   4.004   1.655   2.167 -1.9086 -0.2940 -0.2951
   45DOPE   C12 5681   3.965   1.698   2.369  0.0161 -0.5423  0.6206
   45DOPE  H12A 5682   3.890   1.780   2.363 -1.0985 -1.5087  0.9610
   45DOPE  H12B 5683   4.064   1.749   2.369 -0.4859  0.4554  0.4902
   45DOPE   C11 5684   3.950   1.616   2.501 -0.9805  0.1492  0.3844
   45DOPE  H11A 5685   3.869   1.543   2.481 -0.5775  0.6449 -4.0233
   45DOPE  H11B 5686   3.933   1.698   2.575 -0.7834  0.2157  0.3568
   45DOPE     P 5687   4.194   1.577   2.605  0.0424  0.1078  0.5038
   45DOPE   O13 5688   4.232   1.714   2.566  0.6269  0.0350 -0.2902
   45DOPE   O14 5689   4.299   1.473   2.587 -0.8282 -0.1045 -0.9510
   45DOPE   O11 5690   4.137   1.575   2.747  0.2045 -0.1735  0.0485
   45DOPE   O12 5691   4.069   1.537   2.523  0.2138 -0.1907  0.2657
   45DOPE    C1 5692   4.079   1.457   2.795 -0.8348  0.3152 -0.9242
   45DOPE    HA 5693   4.129   1.367   2.753  1.7556  0.2884  1.8592
   45DOPE    HB 5694   3.968   1.461   2.793 -0.8947 -1.0485 -1.2310
   45DOPE    C2 5695   4.121   1.440   2.947 -0.3722 -0.3790 -0.5614
   45DOPE    HS 5696   4.076   1.343   2.978 -1.5107  0.0111 -0.9521
   45DOPE   O21 5697   4.056   1.543   3.028 -0.5703  0.1983 -0.4521
   45DOPE   C21 5698   4.020   1.500   3.157 -0.6880 -0.5714 -0.4239
   45DOPE   O22 5699   4.043   1.390   3.202 -0.0295  0.1602 -0.3009
   45DOPE   C22 5700   3.947   1.616   3.229 -0.9027 -0.4944 -0.4160
   45DOPE   H2R 5701   3.854   1.657   3.185 -0.9181  0.4768  0.4811
   45DOPE   H2S 5702   4.020   1.699   3.238 -0.3654 -1.0802  0.9722
   45DOPE    C3 5703   4.283   1.451   2.961 -0.5058  0.7940 -0.2415
   45DOPE    HX 5704   4.309   1.551   2.921  0.0345  0.5608 -0.4894
   45DOPE    HY 5705   4.325   1.370   2.897 -1.3384 -2.1837  2.7355
   45DOPE   O31 5706   4.319   1.437   3.103  0.5886  0.1210  0.2908
   45DOPE   C31 5707   4.361   1.317   3.143 -0.0243  0.9991 -0.2616
   45DOPE   O32 5708   4.353   1.217   3.066  0.1936 -0.1970 -0.5436
   45DOPE   C32 5709   4.399   1.306   3.295  0.3888  0.0380  0.5063
   45DOPE   H2X 5710   4.497   1.356   3.308  0.7401 -0.3121 -0.6865
   45DOPE   H2Y 5711   4.317   1.359   3.349 -1.1793 -1.9890  0.2164
   45DOPE   C23 5712   3.925   1.591   3.383 -0.0345  1.2250  0.0921
   45DOPE   H3R 5713   3.873   1.493   3.388  0.5811  0.9167  0.4781
   45DOPE   H3S 5714   3.861   1.673   3.423 -3.2859 -0.1846 -1.8340
   45DOPE   C24 5715   4.055   1.577   3.452  0.7445 -0.4801  0.0076
   45DOPE   H4R 5716   4.089   1.679   3.484 -0.1577  1.2078 -3.9253
   45DOPE   H4S 5717   4.134   1.538   3.384 -0.3367  1.4874 -2.5435
   45DOPE   C25 5718   4.041   1.491   3.574  0.2235  0.6814 -0.4228
   45DOPE   H5R 5719   4.142   1.469   3.615 -1.3242 -2.1017  2.2990
   45DOPE   H5S 5720   3.987   1.396   3.554 -1.0344  1.0807  0.8494
   45DOPE   C26 5721   3.982   1.579   3.688  0.5496  0.1473  0.3304
   45DOPE   H6R 5722   3.872   1.578   3.672  0.5984 -0.2467  0.0279
   45DOPE   H6S 5723   4.025   1.681   3.681  0.4774  0.1705  0.2162
   45DOPE   C27 5724   4.005   1.515   3.822 -0.2731 -0.1569 -0.9556
   45DOPE   H7R 5725   4.116   1.518   3.824 -0.2184 -1.0716 -2.1788
   45DOPE   H7S 5726   3.960   1.414   3.822 -0.1768 -0.1999 -0.7018
   45DOPE   C28 5727   3.929   1.595   3.939  0.1740  1.1011 -0.7016
   45DOPE   H8R 5728   3.927   1.515   4.017  1.7675  2.0136  0.3398
   45DOPE   H8S 5729   3.825   1.605   3.900  0.3670 -2.2114 -2.4264
   45DOPE   C29 5730   3.979   1.713   3.996 -0.0515 -0.0129  0.3243
   45DOPE   H9R 5731   4.021   1.773   3.913 -0.2405 -1.0861 -0.5671
   45DOPE  C210 5732   3.999   1.747   4.126 -0.2066 -0.2775 -0.8020
   45DOPE  H10R 5733   4.063   1.832   4.154 -1.2039  0.2850 -0.1538
   45DOPE  C211 5734   3.956   1.669   4.243 -0.0297 -0.5300  0.6895
   45DOPE  H11R 5735   3.999   1.568   4.230  0.8782  0.0630 -1.2727
   45DOPE  H11S 5736   3.846   1.654   4.240 -0.2980  1.3439 -1.0050
   45DOPE  C212 5737   4.012   1.724   4.374 -0.3712 -0.0825  0.0975
   45DOPE  H12R 5738   3.975   1.826   4.398 -1.9035 -0.8130  0.9975
   45DOPE  H12S 5739   4.123   1.726   4.367 -0.3406  3.5002 -0.0987
   45DOPE  C213 5740   3.976   1.645   4.502 -0.0314 -0.4118  0.6548
   45DOPE  H13R 5741   4.030   1.688   4.589  1.6668 -0.1003 -0.4990
   45DOPE  H13S 5742   4.022   1.544   4.491  1.1217  0.2156 -0.5449
   45DOPE  C214 5743   3.829   1.663   4.540 -0.2438  1.2873 -0.5871
   45DOPE  H14R 5744   3.763   1.621   4.462  1.3877 -1.4136 -0.6440
   45DOPE  H14S 5745   3.808   1.772   4.549 -0.3118  1.1954  0.5502
   45DOPE  C215 5746   3.795   1.574   4.666  0.6360  0.2435  0.5289
   45DOPE  H15R 5747   3.866   1.602   4.746  1.2801 -1.8474  0.7560
   45DOPE  H15S 5748   3.811   1.466   4.644  1.6489  0.7865 -1.7302
   45DOPE  C216 5749   3.651   1.585   4.718 -0.0805 -0.2923 -0.1156
   45DOPE  H16R 5750   3.578   1.536   4.649  0.3169  0.8663 -1.4057
   45DOPE  H16S 5751   3.624   1.693   4.719  0.7780 -0.0671 -0.4566
   45DOPE  C217 5752   3.623   1.540   4.862  0.0064  0.0153  1.1386
   45DOPE  H17R 5753   3.696   1.607   4.914 -0.3814  1.8756 -0.6090
   45DOPE  H17S 5754   3.657   1.435   4.876  0.5043 -0.0751 -0.6024
   45DOPE  C218 5755   3.476   1.565   4.910 -0.3679 -0.7041  0.2760
   45DOPE  H18R 5756   3.463   1.566   5.020 -1.8482  1.7703  0.1531
   45DOPE  H18S 5757   3.406   1.493   4.864  1.0320 -0.2070 -2.9078
   45DOPE  H18T 5758   3.446   1.667   4.877  3.5294  0.2600 -0.8778
   45DOPE   C33 5759   4.421   1.160   3.344  0.5881 -0.2470 -0.9527
   45DOPE   H3X 5760   4.482   1.107   3.267  0.0248 -0.2689 -1.3879
   45DOPE   H3Y 5761   4.327   1.103   3.355  1.0887 -0.8854  0.1072
   45DOPE   C34 5762   4.511   1.161   3.469  0.7730 -0.3543  0.3976
   45DOPE   H4X 5763   4.558   1.065   3.496  1.4863 -0.3458 -0.7577
   45DOPE   H4Y 5764   4.591   1.237   3.453  0.4430 -0.2335 -0.8268
   45DOPE   C35 5765   4.434   1.217   3.590  0.0430  0.1319 -0.1597
   45DOPE   H5X 5766   4.338   1.161   3.593  0.0856  0.0459 -0.3882
   45DOPE   H5Y 5767   4.408   1.325   3.584 -1.3232 -0.1258  0.6766
   45DOPE   C36 5768   4.524   1.196   3.715 -0.0849  0.1854  0.5235
   45DOPE   H6X 5769   4.616   1.257   3.715  0.9327 -1.3065  0.1219
   45DOPE   H6Y 5770   4.559   1.091   3.709  1.9282  0.8593 -0.1199
   45DOPE   C37 5771   4.441   1.215   3.849  0.1209 -0.2397 -0.7402
   45DOPE   H7X 5772   4.392   1.315   3.849  0.3117  0.0111  3.4024
   45DOPE   H7Y 5773   4.357   1.143   3.842  0.6943 -0.9526 -0.4978
   45DOPE   C38 5774   4.517   1.204   3.983 -0.2137 -0.1199 -0.1425
   45DOPE   H8X 5775   4.450   1.238   4.064 -1.8789 -0.7034 -1.2173
   45DOPE   H8Y 5776   4.603   1.274   3.992 -1.4684  1.5312 -0.5463
   45DOPE   C39 5777   4.552   1.066   3.998  0.0662  0.5836  0.1330
   45DOPE   H9X 5778   4.501   0.991   3.935  1.4157  0.3446 -0.7092
   45DOPE  C310 5779   4.656   1.022   4.075 -0.3227 -0.5446  0.5767
   45DOPE  H10X 5780   4.677   0.914   4.075  3.5698 -0.0551 -3.1863
   45DOPE  C311 5781   4.753   1.101   4.159  0.3548 -0.2375 -0.0709
   45DOPE  H11X 5782   4.842   1.123   4.096 -0.0040 -1.1145 -0.8998
   45DOPE  H11Y 5783   4.710   1.199   4.190 -1.1891 -0.6923 -0.7157
   45DOPE  C312 5784   4.781   1.027   4.294  0.1025  0.0421  0.7792
   45DOPE  H12X 5785   4.831   1.107   4.353  0.5513  1.0902 -0.9476
   45DOPE  H12Y 5786   4.852   0.942   4.281 -1.0049 -0.7004 -0.6821
   45DOPE  C313 5787   4.661   0.976   4.370  0.6956  0.2583 -0.6385
   45DOPE  H13X 5788   4.607   1.064   4.410 -1.0768 -1.8866  2.1267
   45DOPE  H13Y 5789   4.592   0.920   4.304 -0.1051  0.0754  0.3225
   45DOPE  C314 5790   4.693   0.885   4.484  0.9505  0.9853 -0.5410
   45DOPE  H14X 5791   4.758   0.933   4.560 -1.9119  1.9012  1.5233
   45DOPE  H14Y 5792   4.748   0.796   4.446 -0.4148 -1.7769  3.2846
   45DOPE  C315 5793   4.556   0.834   4.547  0.3420  0.4535 -0.1832
   45DOPE  H15X 5794   4.506   0.762   4.480  2.5153 -2.1263  0.7859
   45DOPE  H15Y 5795   4.484   0.913   4.578 -0.0503  0.3862 -0.9034
   45DOPE  C316 5796   4.572   0.759   4.675  0.1838 -0.1293  0.1461
   45DOPE  H16X 5797   4.476   0.741   4.728 -0.4894 -0.3770 -1.1133
   45DOPE  H16Y 5798   4.638   0.819   4.740  0.9374 -0.0841 -0.6396
   45DOPE  C317 5799   4.642   0.626   4.662  0.1727 -0.3696  0.6704
   45DOPE  H17X 5800   4.584   0.562   4.592 -1.9899  1.1882  0.9234
   45DOPE  H17Y 5801   4.731   0.637   4.597  0.2980 -0.3585  0.8429
   45DOPE  C318 5802   4.664   0.567   4.796  0.2342 -0.1512  0.1235
   45DOPE  H18X 5803   4.570   0.548   4.852  0.8832 -0.1404  1.2293
   45DOPE  H18Y 5804   4.711   0.468   4.778 -0.4258 -0.0956 -2.3308
   45DOPE  H18Z 5805   4.729   0.636   4.854 -0.1862  0.5266 -0.1899
   46DOPE     N 5806   4.917   6.024   2.331  0.9626 -0.2160  0.1693
   46DOPE   HN1 5807   4.950   6.117   2.297  0.0703 -0.2195 -0.7320
   46DOPE   HN2 5808   4.990   5.975   2.387 -0.9959 -0.8699  2.2989
   46DOPE   HN3 5809   4.874   5.970   2.253 -1.4588  1.1755  0.4414
   46DOPE   C12 5810   4.816   6.051   2.444 -0.4643  0.0665  0.0345
   46DOPE  H12A 5811   4.782   5.964   2.502 -0.9143  0.8675  0.9981
   46DOPE  H12B 5812   4.727   6.097   2.396 -1.6702 -2.2371 -0.0429
   46DOPE   C11 5813   4.882   6.139   2.549 -0.0731 -0.1137 -0.4415
   46DOPE  H11A 5814   4.930   6.075   2.627  0.0197  0.0193 -0.3878
   46DOPE  H11B 5815   4.804   6.186   2.613 -0.7253 -2.1239  0.3057
   46DOPE     P 5816   5.107   6.261   2.558  0.2557  0.0146  0.9315
   46DOPE   O13 5817   5.181   6.372   2.486 -0.2010 -0.0719 -0.2656
   46DOPE   O14 5818   5.175   6.130   2.557  0.2820 -0.2369  0.1358
   46DOPE   O11 5819   5.091   6.301   2.710  0.4690 -0.2752 -0.6452
   46DOPE   O12 5820   4.964   6.249   2.491  0.2965 -0.4584  0.2380
   46DOPE    C1 5821   4.983   6.368   2.767 -0.2788  0.7756 -0.2210
   46DOPE    HA 5822   4.884   6.350   2.721 -0.1263 -0.0454 -0.2573
   46DOPE    HB 5823   5.008   6.476   2.773  2.0186  0.2469  1.1971
   46DOPE    C2 5824   4.972   6.330   2.920 -0.5157  0.0046  0.1238
   46DOPE    HS 5825   4.871   6.363   2.954  0.0269  0.4253  1.3802
   46DOPE   O21 5826   5.077   6.391   2.999 -0.3357  0.1298 -0.1761
   46DOPE   C21 5827   5.062   6.519   3.012 -0.0398 -0.5771 -0.4074
   46DOPE   O22 5828   4.959   6.588   2.988 -0.0837  0.1891 -0.5396
   46DOPE   C22 5829   5.189   6.573   3.073 -0.1171  0.1447  0.2796
   46DOPE   H2R 5830   5.214   6.675   3.035 -0.7962  0.3458  0.3596
   46DOPE   H2S 5831   5.274   6.510   3.040  0.1196  1.4200 -1.7657
   46DOPE    C3 5832   4.967   6.178   2.934 -0.2190  0.0395 -0.8841
   46DOPE    HX 5833   5.067   6.139   2.903  1.0009  1.7188  0.7137
   46DOPE    HY 5834   4.888   6.138   2.868 -0.7495  0.0174 -0.2407
   46DOPE   O31 5835   4.940   6.132   3.066  0.0373 -0.0104 -0.2761
   46DOPE   C31 5836   4.809   6.132   3.107 -0.1655  0.1896  0.4208
   46DOPE   O32 5837   4.716   6.171   3.037  0.1395  0.3965  0.1558
   46DOPE   C32 5838   4.803   6.081   3.253 -0.1229  0.4276  0.3585
   46DOPE   H2X 5839   4.700   6.080   3.296  0.3030  1.2811  1.4308
   46DOPE   H2Y 5840   4.838   5.975   3.252 -0.4321  0.3129  0.8728
   46DOPE   C23 5841   5.187   6.574   3.228 -0.2474 -0.9453 -0.4760
   46DOPE   H3R 5842   5.287   6.605   3.263 -0.6511  1.4809 -1.2450
   46DOPE   H3S 5843   5.179   6.469   3.263  1.3243 -1.5619 -1.8715
   46DOPE   C24 5844   5.081   6.660   3.294 -0.3456 -0.1957  0.5851
   46DOPE   H4R 5845   4.985   6.605   3.294  0.4652 -1.7221  2.4650
   46DOPE   H4S 5846   5.061   6.746   3.227  0.5364 -0.8050 -0.4819
   46DOPE   C25 5847   5.103   6.711   3.434 -0.2225 -0.5784  0.6858
   46DOPE   H5R 5848   5.033   6.795   3.454 -0.8955 -0.5820 -1.4348
   46DOPE   H5S 5849   5.205   6.752   3.442  0.3817 -1.1985 -2.5312
   46DOPE   C26 5850   5.082   6.605   3.539 -0.6283 -0.3347  0.0951
   46DOPE   H6R 5851   5.145   6.518   3.510 -0.8389 -0.2505 -0.6519
   46DOPE   H6S 5852   4.982   6.559   3.528 -0.8413 -0.0506  0.7970
   46DOPE   C27 5853   5.113   6.659   3.673 -1.2100 -0.6053 -0.2126
   46DOPE   H7R 5854   5.054   6.753   3.681 -2.3026 -1.2527 -0.4912
   46DOPE   H7S 5855   5.220   6.686   3.683 -0.8304 -2.6907  2.3221
   46DOPE   C28 5856   5.085   6.562   3.792  0.2500 -0.6069  0.5938
   46DOPE   H8R 5857   5.116   6.459   3.764 -1.1034 -0.8504 -0.0904
   46DOPE   H8S 5858   4.978   6.559   3.824 -0.1271 -1.0103 -0.6699
   46DOPE   C29 5859   5.158   6.617   3.910 -0.5002  0.1528  0.0378
   46DOPE   H9R 5860   5.108   6.698   3.967 -0.1303 -0.6162  1.4947
   46DOPE  C210 5861   5.272   6.566   3.962 -0.3776  0.1956  0.0913
   46DOPE  H10R 5862   5.316   6.622   4.046 -0.7181  2.3567 -1.0930
   46DOPE  C211 5863   5.350   6.450   3.902  0.1129  0.3051 -0.7303
   46DOPE  H11R 5864   5.322   6.425   3.797  0.2248  3.0451 -1.4943
   46DOPE  H11S 5865   5.339   6.355   3.958 -0.9508  0.4224 -0.7150
   46DOPE  C212 5866   5.499   6.480   3.892 -0.3853  0.1680  0.2522
   46DOPE  H12R 5867   5.510   6.565   3.822 -0.9167 -0.0369 -0.0825
   46DOPE  H12S 5868   5.549   6.392   3.845  1.7337  0.7008  1.3718
   46DOPE  C213 5869   5.570   6.513   4.028  0.7070 -0.1169 -0.2239
   46DOPE  H13R 5870   5.555   6.427   4.097 -2.5275  1.4431  1.2294
   46DOPE  H13S 5871   5.530   6.600   4.084  0.2678  1.6639 -3.1164
   46DOPE  C214 5872   5.717   6.542   4.022  0.1276 -0.4376 -0.3456
   46DOPE  H14R 5873   5.727   6.629   3.953 -1.0416 -0.9353 -1.1768
   46DOPE  H14S 5874   5.759   6.459   3.961  0.3169  0.0094 -0.8289
   46DOPE  C215 5875   5.781   6.542   4.168  0.1457  0.0691 -0.7365
   46DOPE  H15R 5876   5.715   6.579   4.250  0.6759 -2.0435  0.7227
   46DOPE  H15S 5877   5.883   6.586   4.165  0.9726 -1.6688  0.2562
   46DOPE  C216 5878   5.791   6.396   4.215  0.4371 -0.4367  0.4825
   46DOPE  H16R 5879   5.850   6.343   4.137 -0.2379 -1.4778  0.6617
   46DOPE  H16S 5880   5.691   6.356   4.240 -0.3435  1.1924  0.0492
   46DOPE  C217 5881   5.878   6.382   4.335  0.3874 -0.2884  0.3030
   46DOPE  H17R 5882   5.826   6.432   4.420  0.9517  0.9827 -0.0783
   46DOPE  H17S 5883   5.967   6.447   4.324 -0.4776  1.0560  0.9275
   46DOPE  C218 5884   5.897   6.231   4.373  0.1704  0.5577  0.1343
   46DOPE  H18R 5885   6.006   6.210   4.380  0.7118  3.0396  0.2589
   46DOPE  H18S 5886   5.848   6.165   4.299  0.6235 -0.2459  0.5344
   46DOPE  H18T 5887   5.851   6.221   4.474 -1.2376  0.0867 -0.5304
   46DOPE   C33 5888   4.902   6.164   3.342  0.4855  0.0005  1.0635
   46DOPE   H3X 5889   4.869   6.269   3.326 -2.7639 -0.9764  0.5625
   46DOPE   H3Y 5890   5.008   6.150   3.312 -0.1289 -1.4055 -0.6021
   46DOPE   C34 5891   4.890   6.138   3.493 -0.0402 -0.2495  0.5693
   46DOPE   H4X 5892   4.919   6.032   3.509 -0.7607 -0.3582  1.2157
   46DOPE   H4Y 5893   4.967   6.205   3.539 -0.0419  1.0755 -1.2313
   46DOPE   C35 5894   4.750   6.154   3.553  0.0471 -0.3073 -0.0706
   46DOPE   H5X 5895   4.704   6.054   3.545  0.6040 -0.7265  1.7091
   46DOPE   H5Y 5896   4.689   6.224   3.490 -0.6642 -1.6177 -0.8802
   46DOPE   C36 5897   4.760   6.185   3.708 -0.1676 -0.0048  0.2640
   46DOPE   H6X 5898   4.853   6.130   3.738  0.1212  0.1877 -0.2689
   46DOPE   H6Y 5899   4.668   6.147   3.757 -0.8474 -0.6083 -1.4121
   46DOPE   C37 5900   4.765   6.335   3.748  0.2565  0.8221 -0.2803
   46DOPE   H7X 5901   4.862   6.381   3.720  1.1589 -0.9848 -0.2289
   46DOPE   H7Y 5902   4.675   6.387   3.708 -2.2312 -2.4768  0.5584
   46DOPE   C38 5903   4.748   6.363   3.898 -0.4392  0.2717  0.1608
   46DOPE   H8X 5904   4.653   6.319   3.933  0.0925 -0.1491  1.1130
   46DOPE   H8Y 5905   4.728   6.472   3.912 -2.4278 -0.1456  0.8963
   46DOPE   C39 5906   4.867   6.321   3.992  0.2898  0.0955 -0.1346
   46DOPE   H9X 5907   4.957   6.382   3.977  2.0092 -2.2021  0.2682
   46DOPE  C310 5908   4.874   6.243   4.108 -0.0806 -0.0298  0.1483
   46DOPE  H10X 5909   4.969   6.224   4.160 -0.7456  0.9504  1.8177
   46DOPE  C311 5910   4.761   6.156   4.147  0.3959 -0.5421 -0.0443
   46DOPE  H11X 5911   4.675   6.226   4.157  1.2066  0.9151 -2.3187
   46DOPE  H11Y 5912   4.737   6.089   4.061  1.2772 -2.6169  1.2492
   46DOPE  C312 5913   4.786   6.092   4.282 -0.1593  0.2484  0.3052
   46DOPE  H12X 5914   4.875   6.026   4.272  0.1572  0.4846  1.4888
   46DOPE  H12Y 5915   4.692   6.040   4.310 -0.1379 -0.6829 -1.2095
   46DOPE  C313 5916   4.805   6.187   4.404 -0.3102  0.8156 -0.4901
   46DOPE  H13X 5917   4.888   6.258   4.379  1.4400 -0.8535  0.3237
   46DOPE  H13Y 5918   4.710   6.244   4.416 -0.3758  0.8863 -1.2934
   46DOPE  C314 5919   4.839   6.105   4.535  0.1878 -0.4138  0.0956
   46DOPE  H14X 5920   4.846   6.174   4.621  0.8831  1.2702 -1.2499
   46DOPE  H14Y 5921   4.938   6.056   4.521 -0.5762 -1.6967 -1.0816
   46DOPE  C315 5922   4.741   5.995   4.564  0.0127  0.2602  0.2009
   46DOPE  H15X 5923   4.724   5.928   4.477 -2.9151  0.1731  0.7160
   46DOPE  H15Y 5924   4.648   6.049   4.594  2.2709  2.9366  2.9621
   46DOPE  C316 5925   4.787   5.912   4.682 -0.1466  0.6006 -0.8667
   46DOPE  H16X 5926   4.793   5.952   4.785 -1.0410 -2.2638  0.4198
   46DOPE  H16Y 5927   4.889   5.880   4.651  0.1172 -0.0456  0.5653
   46DOPE  C317 5928   4.713   5.775   4.695  0.5739 -0.0347  0.3212
   46DOPE  H17X 5929   4.617   5.774   4.752  0.9056  0.1022  0.8868
   46DOPE  H17Y 5930   4.689   5.749   4.590  0.2126  2.9570 -0.4086
   46DOPE  C318 5931   4.790   5.661   4.760 -0.2385 -0.7292  0.1468
   46DOPE  H18X 5932   4.730   5.568   4.752  0.0714 -0.8769 -0.5099
   46DOPE  H18Y 5933   4.892   5.656   4.716 -0.4558 -0.3713 -0.4092
   46DOPE  H18Z 5934   4.800   5.686   4.868 -2.0863 -1.5020  0.5323
   47DOPE     N 5935   1.899   6.355   2.278  0.2956 -0.6717  0.4079
   47DOPE   HN1 5936   1.998   6.339   2.249  0.4641  0.9368 -0.0232
   47DOPE   HN2 5937   1.854   6.270   2.239  0.9166 -1.0483  0.4838
   47DOPE   HN3 5938   1.869   6.441   2.227  2.0747 -0.2875 -0.0813
   47DOPE   C12 5939   1.865   6.384   2.425  0.2242  0.1805 -0.2151
   47DOPE  H12A 5940   1.845   6.284   2.469 -1.3979  0.7947  0.5196
   47DOPE  H12B 5941   1.767   6.436   2.417 -1.0789 -2.2139 -0.9618
   47DOPE   C11 5942   1.967   6.478   2.493  0.5809  0.4564  0.1634
   47DOPE  H11A 5943   2.067   6.430   2.502  2.0993  3.0490 -1.2865
   47DOPE  H11B 5944   1.935   6.497   2.598  1.2238 -0.8375  0.6204
   47DOPE     P 5945   2.105   6.694   2.443  0.2943 -0.1863  0.1229
   47DOPE   O13 5946   2.050   6.830   2.424  0.7623 -0.1883  0.0876
   47DOPE   O14 5947   2.211   6.652   2.347  0.5010  0.2579  0.2106
   47DOPE   O11 5948   2.158   6.671   2.590  0.1599  0.1399  0.1322
   47DOPE   O12 5949   1.979   6.598   2.429 -0.2008 -0.1027  0.3956
   47DOPE    C1 5950   2.264   6.581   2.626  0.6150  0.0443  0.8974
   47DOPE    HA 5951   2.355   6.644   2.628 -1.1417  2.7120  0.6720
   47DOPE    HB 5952   2.278   6.499   2.551  0.4851  1.2212 -0.4511
   47DOPE    C2 5953   2.260   6.518   2.768  0.7263  0.7758 -0.0873
   47DOPE    HS 5954   2.189   6.432   2.763  1.4021  0.0644  1.7106
   47DOPE   O21 5955   2.218   6.618   2.858  0.3494 -0.4950 -0.4131
   47DOPE   C21 5956   2.107   6.594   2.919  0.1709 -0.2560 -0.6579
   47DOPE   O22 5957   2.035   6.494   2.910  0.0013  0.1328 -0.0768
   47DOPE   C22 5958   2.062   6.719   2.999  0.3426 -0.5499  0.5014
   47DOPE   H2R 5959   1.954   6.732   2.977 -0.0963 -1.7037  1.8414
   47DOPE   H2S 5960   2.121   6.799   2.949 -0.5507 -0.3543 -0.2669
   47DOPE    C3 5961   2.389   6.466   2.818 -0.6652 -0.2142 -0.5279
   47DOPE    HX 5962   2.446   6.558   2.842  1.9407 -1.7379 -0.4662
   47DOPE    HY 5963   2.456   6.419   2.743 -1.2616  1.0868 -1.9177
   47DOPE   O31 5964   2.380   6.385   2.931  0.4758  0.4037 -0.3311
   47DOPE   C31 5965   2.310   6.273   2.930  0.6746  0.4292  0.0425
   47DOPE   O32 5966   2.273   6.207   2.833  0.6418  0.4256 -0.2612
   47DOPE   C32 5967   2.269   6.240   3.069 -0.1290  0.6139 -0.8513
   47DOPE   H2X 5968   2.175   6.293   3.093 -0.4640 -0.6542  0.7636
   47DOPE   H2Y 5969   2.239   6.134   3.053 -1.0113  0.7196  0.0200
   47DOPE   C23 5970   2.079   6.702   3.147  0.7163  0.5864  0.0180
   47DOPE   H3R 5971   2.006   6.628   3.187  0.7981  0.1258 -0.6521
   47DOPE   H3S 5972   2.041   6.795   3.194 -1.2927  1.0090 -2.2446
   47DOPE   C24 5973   2.214   6.659   3.205 -0.2943  0.6630 -0.0371
   47DOPE   H4R 5974   2.283   6.747   3.203  0.6247 -0.0296  0.4213
   47DOPE   H4S 5975   2.263   6.587   3.136 -1.0908  0.5349 -0.4795
   47DOPE   C25 5976   2.212   6.614   3.350 -0.0667  0.0011  0.5703
   47DOPE   H5R 5977   2.177   6.509   3.365  2.8206 -1.3923 -1.4021
   47DOPE   H5S 5978   2.150   6.683   3.410  1.2556 -0.4413  2.5123
   47DOPE   C26 5979   2.354   6.618   3.407 -0.3921  0.1564  0.3479
   47DOPE   H6R 5980   2.390   6.722   3.391  1.5680 -0.6149 -0.6320
   47DOPE   H6S 5981   2.418   6.551   3.346  0.1547 -0.0538  1.1430
   47DOPE   C27 5982   2.357   6.582   3.550 -0.0310  0.1882  0.2187
   47DOPE   H7R 5983   2.459   6.554   3.583 -0.6622 -2.4116  0.1718
   47DOPE   H7S 5984   2.307   6.484   3.560 -0.6549  0.7096  2.8719
   47DOPE   C28 5985   2.296   6.687   3.647 -0.5827 -0.3714 -0.4632
   47DOPE   H8R 5986   2.279   6.637   3.745  1.5060  0.9166  0.6414
   47DOPE   H8S 5987   2.201   6.724   3.603 -0.7635 -1.5604 -1.0911
   47DOPE   C29 5988   2.386   6.806   3.688 -0.7020  0.4971  0.2163
   47DOPE   H9R 5989   2.363   6.891   3.622 -1.8212 -0.6986 -0.9868
   47DOPE  C210 5990   2.464   6.824   3.793 -0.0527  0.1658  0.2467
   47DOPE  H10R 5991   2.516   6.921   3.801  0.0759  0.0490  0.9234
   47DOPE  C211 5992   2.475   6.739   3.910 -0.2208  0.5122  0.2025
   47DOPE  H11R 5993   2.377   6.700   3.946  0.2275  0.0300  0.9413
   47DOPE  H11S 5994   2.501   6.789   4.006 -1.1909 -1.7265  1.7458
   47DOPE  C212 5995   2.556   6.613   3.894  0.2637  0.5119 -0.2898
   47DOPE  H12R 5996   2.664   6.636   3.877  0.4837 -0.5507 -0.4261
   47DOPE  H12S 5997   2.516   6.556   3.807 -2.2322  1.4111  0.2159
   47DOPE  C213 5998   2.557   6.510   4.008  0.0613 -0.8222 -0.1315
   47DOPE  H13R 5999   2.614   6.420   3.977 -1.9415 -1.6115 -1.7664
   47DOPE  H13S 6000   2.455   6.474   4.037  0.3109 -0.8718  0.6948
   47DOPE  C214 6001   2.611   6.568   4.136 -0.1208  0.1419 -0.4124
   47DOPE  H14R 6002   2.554   6.661   4.157 -0.7882  0.5915 -3.6780
   47DOPE  H14S 6003   2.716   6.603   4.126 -0.3885  1.4332  0.8879
   47DOPE  C215 6004   2.601   6.476   4.262 -0.9779  0.3476  0.2620
   47DOPE  H15R 6005   2.649   6.378   4.245 -0.5876  0.5590  0.1413
   47DOPE  H15S 6006   2.497   6.436   4.264 -0.6249 -0.5360  1.4876
   47DOPE  C216 6007   2.633   6.548   4.392  0.1954 -0.2934 -0.0465
   47DOPE  H16R 6008   2.568   6.637   4.407  2.2832  1.1248  1.0568
   47DOPE  H16S 6009   2.734   6.594   4.398 -0.4619  1.2109 -0.0608
   47DOPE  C217 6010   2.628   6.468   4.526 -0.3999 -0.3160 -0.5728
   47DOPE  H17R 6011   2.657   6.545   4.600  0.5871 -0.2035 -1.0610
   47DOPE  H17S 6012   2.704   6.387   4.538 -0.5187 -0.4555 -0.7484
   47DOPE  C218 6013   2.484   6.417   4.549  0.2411  0.1567  0.1808
   47DOPE  H18R 6014   2.469   6.378   4.652 -4.1363 -0.8283 -0.6225
   47DOPE  H18S 6015   2.460   6.329   4.486  1.7708 -1.5200  1.8449
   47DOPE  H18T 6016   2.418   6.501   4.518  1.5302  0.7620 -1.0316
   47DOPE   C33 6017   2.382   6.249   3.176  0.4534  0.1327 -0.1859
   47DOPE   H3X 6018   2.432   6.348   3.170 -1.3457  1.1181  0.3201
   47DOPE   H3Y 6019   2.458   6.168   3.167  2.5179  1.3318  4.0001
   47DOPE   C34 6020   2.322   6.227   3.316 -0.2258  1.1312  0.9843
   47DOPE   H4X 6021   2.250   6.308   3.335 -2.2946 -0.5183  0.5308
   47DOPE   H4Y 6022   2.266   6.131   3.310  0.0367  1.0350 -0.0038
   47DOPE   C35 6023   2.427   6.215   3.429  0.3557  0.0454  0.7398
   47DOPE   H5X 6024   2.477   6.314   3.436  0.0374  0.3313 -0.7137
   47DOPE   H5Y 6025   2.514   6.152   3.401  3.0815  4.2159 -1.1923
   47DOPE   C36 6026   2.362   6.171   3.558  0.2449 -0.1442  0.0970
   47DOPE   H6X 6027   2.324   6.068   3.542  0.7896 -0.5192  1.1197
   47DOPE   H6Y 6028   2.277   6.243   3.567 -0.4816 -0.7770 -1.3434
   47DOPE   C37 6029   2.447   6.189   3.680  0.0460 -0.5910 -0.5857
   47DOPE   H7X 6030   2.539   6.130   3.661 -1.0090 -1.4474 -3.6745
   47DOPE   H7Y 6031   2.468   6.296   3.701 -0.1020 -0.9421  1.6080
   47DOPE   C38 6032   2.393   6.129   3.811  0.0225 -0.1607  0.3531
   47DOPE   H8X 6033   2.383   6.019   3.798 -0.4433 -0.1275  0.3986
   47DOPE   H8Y 6034   2.292   6.170   3.834  1.1049  1.8226  1.8726
   47DOPE   C39 6035   2.488   6.155   3.925  0.4149  0.3324 -0.5207
   47DOPE   H9X 6036   2.592   6.179   3.897  1.5312 -2.8703  0.4606
   47DOPE  C310 6037   2.444   6.152   4.053  0.0978 -0.3873 -0.4799
   47DOPE  H10X 6038   2.508   6.175   4.140 -0.3374 -0.7898 -0.0434
   47DOPE  C311 6039   2.299   6.129   4.097  0.1181 -0.4033 -0.0719
   47DOPE  H11X 6040   2.261   6.226   4.136  0.9943 -0.1067  0.0583
   47DOPE  H11Y 6041   2.239   6.084   4.015  0.9433 -1.6851 -0.0131
   47DOPE  C312 6042   2.296   6.006   4.198 -0.4249 -0.0993  0.3899
   47DOPE  H12X 6043   2.365   5.925   4.165 -1.3504  0.4741 -3.5580
   47DOPE  H12Y 6044   2.192   5.967   4.193 -0.9097  1.1710 -3.5905
   47DOPE  C313 6045   2.319   6.050   4.344 -0.5790  0.1123  0.0772
   47DOPE  H13X 6046   2.426   6.080   4.346 -0.0750 -1.5615 -0.4842
   47DOPE  H13Y 6047   2.240   6.127   4.358  0.7367  1.5972 -0.2778
   47DOPE  C314 6048   2.306   5.936   4.447  0.8643 -0.4735 -0.4838
   47DOPE  H14X 6049   2.389   5.864   4.433 -0.2849 -1.5865 -1.8888
   47DOPE  H14Y 6050   2.206   5.893   4.426 -0.1248 -0.8676  3.9306
   47DOPE  C315 6051   2.309   5.980   4.590  0.4194  0.4181 -0.4263
   47DOPE  H15X 6052   2.396   6.046   4.615  0.1406  0.2846  0.9881
   47DOPE  H15Y 6053   2.312   5.892   4.657  0.9623 -0.8658 -2.0683
   47DOPE  C316 6054   2.183   6.055   4.639 -0.4008 -0.4525 -0.0895
   47DOPE  H16X 6055   2.167   6.149   4.582  2.4992  1.0859  1.4110
   47DOPE  H16Y 6056   2.212   6.092   4.740  0.7765  1.1226 -0.9479
   47DOPE  C317 6057   2.056   5.967   4.656 -0.2376  0.7265 -0.5282
   47DOPE  H17X 6058   2.027   5.918   4.560  1.1698 -0.5197 -0.3582
   47DOPE  H17Y 6059   2.083   5.887   4.728 -0.4398  0.7153 -0.4651
   47DOPE  C318 6060   1.943   6.039   4.724 -0.3409 -0.0124 -0.2269
   47DOPE  H18X 6061   1.886   6.107   4.657  0.3434  0.5284 -0.2706
   47DOPE  H18Y 6062   1.867   5.966   4.759 -0.2775  0.6064  1.3223
   47DOPE  H18Z 6063   1.973   6.089   4.819  0.9902  0.9889 -1.1341
   48DOPE     N 6064   7.240   2.062   2.572 -0.0746 -0.3907 -0.2205
   48DOPE   HN1 6065   7.323   2.125   2.571  0.2014 -0.7459 -0.8780
   48DOPE   HN2 6066   7.170   2.096   2.640 -0.2372  1.1234 -1.0855
   48DOPE   HN3 6067   7.274   1.968   2.602  2.2944  0.4178 -0.1543
   48DOPE   C12 6068   7.163   2.052   2.444  0.4031  0.8149  0.9096
   48DOPE  H12A 6069   7.232   1.997   2.376 -1.2333 -0.8699  0.5241
   48DOPE  H12B 6070   7.147   2.155   2.406  3.0454  1.2911  0.9229
   48DOPE   C11 6071   7.051   1.947   2.459 -0.0775 -0.5121  1.2839
   48DOPE  H11A 6072   7.012   1.929   2.357  3.5765  2.3102 -0.8327
   48DOPE  H11B 6073   6.981   1.995   2.531  0.4700 -0.7439  1.9871
   48DOPE     P 6074   7.052   1.682   2.492 -0.0575 -0.0774 -0.3034
   48DOPE   O13 6075   7.168   1.594   2.450 -0.1244  0.4468 -0.2211
   48DOPE   O14 6076   6.937   1.698   2.403  0.2911  0.2099 -0.3196
   48DOPE   O11 6077   6.995   1.647   2.633 -0.0430  0.3183 -0.1393
   48DOPE   O12 6078   7.111   1.828   2.513  0.4507  0.5992  1.0100
   48DOPE    C1 6079   6.917   1.735   2.708 -0.5331  0.0722  0.5125
   48DOPE    HA 6080   6.848   1.670   2.765  0.7627 -1.9021 -0.0733
   48DOPE    HB 6081   6.860   1.809   2.648 -0.6980  0.9565  1.7325
   48DOPE    C2 6082   7.009   1.789   2.818  0.2790 -0.4949  0.2908
   48DOPE    HS 6083   7.101   1.836   2.777 -0.3756  2.0390  1.5088
   48DOPE   O21 6084   7.032   1.698   2.930  0.0727  0.0625 -0.5387
   48DOPE   C21 6085   7.156   1.646   2.933  0.1961 -0.2335 -0.1321
   48DOPE   O22 6086   7.239   1.656   2.839  0.0299  0.0133 -0.6124
   48DOPE   C22 6087   7.165   1.555   3.059  0.1114 -0.0196 -0.3790
   48DOPE   H2R 6088   7.250   1.485   3.044  0.6362  0.2608  1.1117
   48DOPE   H2S 6089   7.072   1.497   3.075  0.8272 -1.1975 -0.3121
   48DOPE    C3 6090   6.942   1.915   2.877  0.3639  0.0684 -0.5015
   48DOPE    HX 6091   6.845   1.880   2.919  1.1001  0.6158  1.8048
   48DOPE    HY 6092   6.917   1.991   2.800 -2.9485  2.3181  2.4506
   48DOPE   O31 6093   7.016   1.969   2.990 -0.6248  0.3261  0.2758
   48DOPE   C31 6094   7.101   2.061   2.950 -0.0529 -0.3742 -0.1997
   48DOPE   O32 6095   7.142   2.077   2.834 -0.6652 -0.2929  0.5487
   48DOPE   C32 6096   7.170   2.116   3.078 -0.1772 -0.0651  0.0091
   48DOPE   H2X 6097   7.096   2.102   3.160 -1.5632 -1.8191 -1.4356
   48DOPE   H2Y 6098   7.256   2.048   3.096 -0.3207  0.0128  1.0580
   48DOPE   C23 6099   7.203   1.635   3.186  0.3010 -0.1513 -0.2706
   48DOPE   H3R 6100   7.192   1.572   3.277  1.6021 -1.2258 -0.8277
   48DOPE   H3S 6101   7.128   1.714   3.207 -0.6564 -1.1576  0.2150
   48DOPE   C24 6102   7.347   1.679   3.184 -0.4568 -0.8213  0.4278
   48DOPE   H4R 6103   7.365   1.731   3.088 -0.8348  0.7558  1.1758
   48DOPE   H4S 6104   7.420   1.597   3.196  0.0137 -0.3808  0.6060
   48DOPE   C25 6105   7.390   1.781   3.290 -0.8277  0.1411  0.4499
   48DOPE   H5R 6106   7.329   1.874   3.292 -1.0402  0.0391 -0.6432
   48DOPE   H5S 6107   7.495   1.812   3.269 -2.2987  3.4384 -3.4110
   48DOPE   C26 6108   7.379   1.719   3.431  0.0887 -0.1485 -0.5484
   48DOPE   H6R 6109   7.443   1.628   3.441 -0.0140 -0.0721  1.1203
   48DOPE   H6S 6110   7.272   1.701   3.452  0.0649 -1.2790 -1.4934
   48DOPE   C27 6111   7.432   1.814   3.546  0.2473  0.9192 -0.3152
   48DOPE   H7R 6112   7.539   1.833   3.524  0.7232 -2.8799 -1.9868
   48DOPE   H7S 6113   7.428   1.762   3.644  0.8123  1.3524 -0.0564
   48DOPE   C28 6114   7.340   1.935   3.575  0.2687  0.6153 -0.7500
   48DOPE   H8R 6115   7.343   2.002   3.486 -0.6922 -0.5233 -1.6760
   48DOPE   H8S 6116   7.391   1.982   3.662  2.3204 -0.8968 -1.0703
   48DOPE   C29 6117   7.191   1.913   3.606  0.4328  0.1387  0.1875
   48DOPE   H9R 6118   7.144   1.826   3.558 -1.9090  0.6193  1.4873
   48DOPE  C210 6119   7.112   1.968   3.701 -0.0832 -0.2799 -0.1656
   48DOPE  H10R 6120   7.007   1.936   3.712  0.7561 -2.6852  1.4830
   48DOPE  C211 6121   7.152   2.086   3.782  0.4432 -0.3948  0.1449
   48DOPE  H11R 6122   7.081   2.171   3.771 -1.9611 -1.9866  2.0229
   48DOPE  H11S 6123   7.253   2.124   3.757 -0.1162 -0.4089 -2.4629
   48DOPE  C212 6124   7.155   2.044   3.935 -0.0626  0.4059 -0.3972
   48DOPE  H12R 6125   7.241   1.974   3.933  2.2272  3.0602 -0.4131
   48DOPE  H12S 6126   7.062   1.994   3.969  1.8652 -3.1008  0.2465
   48DOPE  C213 6127   7.190   2.164   4.022  0.2035  0.2203 -0.2163
   48DOPE  H13R 6128   7.114   2.242   4.004  0.1469 -0.0874 -1.3835
   48DOPE  H13S 6129   7.285   2.207   3.983  0.8872  0.3273  1.4605
   48DOPE  C214 6130   7.212   2.117   4.168  0.1987  0.4265 -0.3307
   48DOPE  H14R 6131   7.280   2.029   4.163 -0.9917 -0.4770 -0.9597
   48DOPE  H14S 6132   7.113   2.080   4.201  0.2321 -1.6230 -2.2957
   48DOPE  C215 6133   7.272   2.227   4.256  0.2322  0.3188  0.2086
   48DOPE  H15R 6134   7.194   2.305   4.271 -1.0079 -0.7270 -0.6339
   48DOPE  H15S 6135   7.356   2.277   4.204 -0.5297  0.3202 -1.0516
   48DOPE  C216 6136   7.314   2.175   4.397  0.4153  0.5626  0.6472
   48DOPE  H16R 6137   7.376   2.089   4.365 -1.5221 -0.7227  0.2070
   48DOPE  H16S 6138   7.226   2.135   4.451  2.9547 -1.7950  3.3532
   48DOPE  C217 6139   7.376   2.282   4.481  0.0812 -0.5323  0.1973
   48DOPE  H17R 6140   7.301   2.364   4.491  1.3833  0.5417  1.6087
   48DOPE  H17S 6141   7.462   2.333   4.434 -0.1999 -0.6792 -0.4934
   48DOPE  C218 6142   7.407   2.243   4.622  0.1083 -0.8643  0.4480
   48DOPE  H18R 6143   7.335   2.171   4.666  0.0693  0.3600  2.5580
   48DOPE  H18S 6144   7.411   2.338   4.680 -1.5770 -0.2834 -0.3348
   48DOPE  H18T 6145   7.506   2.192   4.626  0.8719  0.5000 -0.3678
   48DOPE   C33 6146   7.234   2.260   3.047  0.2338 -0.4781  0.1914
   48DOPE   H3X 6147   7.146   2.326   3.034  0.1207 -0.4185  1.1508
   48DOPE   H3Y 6148   7.307   2.245   2.964 -1.8346 -1.1073 -1.5922
   48DOPE   C34 6149   7.299   2.313   3.179 -0.7769 -0.5969  0.1545
   48DOPE   H4X 6150   7.337   2.230   3.242 -0.2179  0.0032  0.6200
   48DOPE   H4Y 6151   7.377   2.388   3.151 -1.1055  0.0274  0.8669
   48DOPE   C35 6152   7.198   2.383   3.269  0.0514  0.6676  0.2070
   48DOPE   H5X 6153   7.132   2.299   3.299  0.7226  0.5847  1.5310
   48DOPE   H5Y 6154   7.146   2.459   3.207 -0.6272 -0.5469 -0.7680
   48DOPE   C36 6155   7.259   2.445   3.399  0.0264  0.1890 -0.1019
   48DOPE   H6X 6156   7.185   2.509   3.452 -0.9063  0.5781 -1.8162
   48DOPE   H6Y 6157   7.341   2.510   3.362  0.0291  1.2419  1.6317
   48DOPE   C37 6158   7.311   2.346   3.499  0.1337 -0.0030 -0.6968
   48DOPE   H7X 6159   7.222   2.279   3.507 -1.3349  2.1239  2.8837
   48DOPE   H7Y 6160   7.399   2.287   3.464 -0.7349 -0.5739 -2.0081
   48DOPE   C38 6161   7.347   2.410   3.635 -0.5803  0.8945  0.1885
   48DOPE   H8X 6162   7.426   2.484   3.610 -0.8346  0.4629 -2.1352
   48DOPE   H8Y 6163   7.397   2.330   3.693  1.7786  1.7993 -0.5078
   48DOPE   C39 6164   7.230   2.466   3.721  0.3962 -0.5186 -0.2453
   48DOPE   H9X 6165   7.130   2.450   3.678  0.7478  0.4840 -1.4810
   48DOPE  C310 6166   7.240   2.540   3.832 -0.1091 -0.1981 -0.5128
   48DOPE  H10X 6167   7.151   2.561   3.894 -0.9759  0.1062 -1.8277
   48DOPE  C311 6168   7.370   2.586   3.893 -0.3424 -0.1550 -0.2545
   48DOPE  H11X 6169   7.449   2.512   3.866  0.2742  0.3912  0.0127
   48DOPE  H11Y 6170   7.395   2.678   3.835  0.3271  0.5226  1.0781
   48DOPE  C312 6171   7.371   2.605   4.042  0.3555 -0.3602  0.4201
   48DOPE  H12X 6172   7.472   2.642   4.071 -0.0681  2.3762 -1.1984
   48DOPE  H12Y 6173   7.342   2.510   4.091  1.4841 -1.7056 -1.3728
   48DOPE  C313 6174   7.275   2.723   4.089  0.5079  0.0116  0.4705
   48DOPE  H13X 6175   7.303   2.817   4.037  0.2894 -0.4064 -0.4336
   48DOPE  H13Y 6176   7.167   2.709   4.067 -0.1981  2.2651  2.1193
   48DOPE  C314 6177   7.284   2.750   4.239 -0.8774  0.3740  0.2244
   48DOPE  H14X 6178   7.244   2.851   4.262 -0.2901  1.0721 -1.6534
   48DOPE  H14Y 6179   7.389   2.768   4.270 -0.4653 -1.6008  0.1525
   48DOPE  C315 6180   7.219   2.643   4.326  0.1117 -0.1949 -0.2597
   48DOPE  H15X 6181   7.250   2.543   4.289  1.2224  0.0758 -0.0950
   48DOPE  H15Y 6182   7.109   2.655   4.329  0.2423  0.8992  0.6691
   48DOPE  C316 6183   7.255   2.643   4.478  0.0571  1.1919  0.5392
   48DOPE  H16X 6184   7.366   2.640   4.481  0.0903  0.2215 -0.8467
   48DOPE  H16Y 6185   7.217   2.548   4.521  1.1845 -0.7078 -2.3787
   48DOPE  C317 6186   7.185   2.760   4.552  0.2720  0.1095  0.3096
   48DOPE  H17X 6187   7.232   2.853   4.512  0.6889  0.0015  0.5427
   48DOPE  H17Y 6188   7.075   2.767   4.538  0.5541 -0.1223 -2.8161
   48DOPE  C318 6189   7.204   2.755   4.701  0.4517 -0.0880 -0.4457
   48DOPE  H18X 6190   7.139   2.826   4.756  0.0868 -1.5783  1.1479
   48DOPE  H18Y 6191   7.180   2.652   4.736  0.4379  0.4214  1.1514
   48DOPE  H18Z 6192   7.313   2.772   4.715  0.5551 -1.1051  0.0987
   49DOPE     N 6193   2.729   6.726   2.407  0.4152  0.2576  0.5105
   49DOPE   HN1 6194   2.720   6.771   2.500  0.0967  2.0757 -0.3620
   49DOPE   HN2 6195   2.637   6.737   2.359 -0.0771 -0.9712  1.1023
   49DOPE   HN3 6196   2.738   6.623   2.417 -1.9474 -0.1274 -0.5156
   49DOPE   C12 6197   2.853   6.780   2.337  0.1836 -0.4457  0.7673
   49DOPE  H12A 6198   2.826   6.887   2.320  2.0347 -0.4035 -2.6309
   49DOPE  H12B 6199   2.853   6.755   2.229 -3.1519  2.6904 -0.1809
   49DOPE   C11 6200   2.976   6.774   2.418  0.2723  0.0246 -0.3994
   49DOPE  H11A 6201   2.954   6.824   2.514  1.3587  4.9143 -2.3914
   49DOPE  H11B 6202   3.054   6.837   2.370 -0.2125  1.5551  0.7616
   49DOPE     P 6203   3.163   6.617   2.507  0.4020  0.0675  0.0828
   49DOPE   O13 6204   3.274   6.687   2.437  0.2035  0.5213 -0.0023
   49DOPE   O14 6205   3.181   6.472   2.532 -0.0572  0.3234  0.0914
   49DOPE   O11 6206   3.128   6.682   2.645  0.4378 -0.4552 -0.3421
   49DOPE   O12 6207   3.022   6.642   2.425 -0.2390 -0.3389 -0.0542
   49DOPE    C1 6208   3.207   6.781   2.705  0.5355  0.0677 -0.3281
   49DOPE    HA 6209   3.136   6.857   2.744 -0.1142  0.0421 -1.4278
   49DOPE    HB 6210   3.275   6.841   2.641 -0.8088  1.8712 -0.1199
   49DOPE    C2 6211   3.285   6.730   2.832  0.2367 -0.5281  0.1976
   49DOPE    HS 6212   3.240   6.641   2.883  1.8949 -0.7316  1.3917
   49DOPE   O21 6213   3.302   6.826   2.940 -0.3720 -0.0139 -0.1132
   49DOPE   C21 6214   3.199   6.843   3.018 -0.4005 -0.5477  0.9576
   49DOPE   O22 6215   3.095   6.779   3.008  0.6809 -0.2087 -0.5105
   49DOPE   C22 6216   3.216   6.958   3.124  0.0255 -0.5631 -0.2057
   49DOPE   H2R 6217   3.151   7.044   3.095  0.1668  0.5288  2.4860
   49DOPE   H2S 6218   3.323   6.986   3.130 -0.6268  2.0099  0.8250
   49DOPE    C3 6219   3.429   6.691   2.785  0.3855 -0.2666 -0.6457
   49DOPE    HX 6220   3.468   6.782   2.736 -0.7232  1.1046  0.9255
   49DOPE    HY 6221   3.425   6.609   2.709 -1.0714  0.1539 -1.0533
   49DOPE   O31 6222   3.520   6.653   2.893  0.2644 -0.0134 -0.5126
   49DOPE   C31 6223   3.510   6.537   2.943 -0.3905  0.1984 -0.4377
   49DOPE   O32 6224   3.429   6.451   2.909 -0.1581 -0.9375 -0.2720
   49DOPE   C32 6225   3.615   6.520   3.051 -0.4326 -0.4691  0.0460
   49DOPE   H2X 6226   3.693   6.471   2.989  0.7593  1.6046 -0.1849
   49DOPE   H2Y 6227   3.644   6.622   3.085 -1.7907 -0.2399  0.5890
   49DOPE   C23 6228   3.164   6.904   3.259  0.0828 -0.2510 -0.3624
   49DOPE   H3R 6229   3.056   6.882   3.242  0.0928 -0.2153 -0.4742
   49DOPE   H3S 6230   3.165   6.988   3.332  0.1778 -0.8929  0.3790
   49DOPE   C24 6231   3.238   6.776   3.302  0.0772 -0.1307  0.4229
   49DOPE   H4R 6232   3.349   6.782   3.297  0.1066 -0.5069  0.5699
   49DOPE   H4S 6233   3.202   6.692   3.240 -2.9429  1.0923  0.3384
   49DOPE   C25 6234   3.217   6.729   3.447  0.4456  0.8769  0.3415
   49DOPE   H5R 6235   3.240   6.620   3.452  0.7683  0.6551 -3.3503
   49DOPE   H5S 6236   3.111   6.745   3.475  0.3623 -1.7565  1.8983
   49DOPE   C26 6237   3.311   6.796   3.552 -0.8458 -0.3969  0.2616
   49DOPE   H6R 6238   3.305   6.907   3.550  1.0722 -0.2247 -2.6253
   49DOPE   H6S 6239   3.415   6.780   3.514  0.3267  2.2255  2.0769
   49DOPE   C27 6240   3.290   6.743   3.692 -0.3061  0.0080  0.7349
   49DOPE   H7R 6241   3.322   6.636   3.694  1.2472  0.4204 -0.4770
   49DOPE   H7S 6242   3.182   6.750   3.719 -0.4857 -0.4891  0.1567
   49DOPE   C28 6243   3.371   6.831   3.789 -0.1002 -0.2608 -0.4102
   49DOPE   H8R 6244   3.334   6.936   3.797  1.0933  0.1484 -0.0348
   49DOPE   H8S 6245   3.474   6.846   3.749 -0.4072  0.0908 -1.0852
   49DOPE   C29 6246   3.380   6.759   3.925  0.1674 -0.2425 -0.5682
   49DOPE   H9R 6247   3.412   6.654   3.928  2.5380  0.4045  2.0742
   49DOPE  C210 6248   3.378   6.820   4.044 -0.4760 -0.3429  0.2841
   49DOPE  H10R 6249   3.404   6.746   4.121 -0.1254  0.2272  0.7239
   49DOPE  C211 6250   3.350   6.965   4.073  0.9287  0.1410  0.9337
   49DOPE  H11R 6251   3.351   7.032   3.983 -0.1516 -1.2585 -0.1756
   49DOPE  H11S 6252   3.426   6.987   4.151  0.1163  0.2400  1.7020
   49DOPE  C212 6253   3.202   6.971   4.119  0.8261 -0.3499 -0.0249
   49DOPE  H12R 6254   3.184   6.903   4.205 -2.8131  1.0200  0.4872
   49DOPE  H12S 6255   3.135   6.947   4.034  0.9598  0.5208 -0.3918
   49DOPE  C213 6256   3.151   7.113   4.163 -0.1283  0.7770 -0.2772
   49DOPE  H13R 6257   3.040   7.120   4.174  0.1098  1.2876  2.5434
   49DOPE  H13S 6258   3.181   7.184   4.083  2.0762  0.7240  0.4634
   49DOPE  C214 6259   3.221   7.161   4.289  0.0230 -0.1258 -0.3818
   49DOPE  H14R 6260   3.331   7.150   4.288  0.2391  1.5382  0.7146
   49DOPE  H14S 6261   3.199   7.093   4.374  1.1953  1.4824  1.2752
   49DOPE  C215 6262   3.166   7.283   4.356  0.2554 -0.9405  1.0422
   49DOPE  H15R 6263   3.056   7.289   4.339  0.4207 -0.6482 -0.0103
   49DOPE  H15S 6264   3.204   7.379   4.315 -0.1350 -1.6321 -1.0512
   49DOPE  C216 6265   3.198   7.283   4.506 -0.1012 -0.3951 -0.3191
   49DOPE  H16R 6266   3.302   7.243   4.503 -0.1386 -0.5784  0.5408
   49DOPE  H16S 6267   3.132   7.208   4.555 -1.3877  1.6251  1.2186
   49DOPE  C217 6268   3.178   7.413   4.584  0.2197 -0.5180  0.4758
   49DOPE  H17R 6269   3.211   7.498   4.520 -1.0485 -1.7108 -1.8821
   49DOPE  H17S 6270   3.247   7.412   4.671  0.5388 -1.7973  0.2264
   49DOPE  C218 6271   3.035   7.441   4.637 -0.1513 -0.4001  0.0124
   49DOPE  H18R 6272   2.963   7.456   4.554  0.0395 -0.3951 -0.1517
   49DOPE  H18S 6273   3.039   7.529   4.705 -0.0277  0.8827 -1.5927
   49DOPE  H18T 6274   2.990   7.359   4.698  0.9086 -0.2111  1.0966
   49DOPE   C33 6275   3.581   6.422   3.162  0.3281  0.1626 -0.3972
   49DOPE   H3X 6276   3.674   6.382   3.208 -1.3442 -1.3083  1.8853
   49DOPE   H3Y 6277   3.526   6.338   3.113  0.0555  0.2165 -0.1859
   49DOPE   C34 6278   3.507   6.486   3.272 -0.1056  0.5709  0.3663
   49DOPE   H4X 6279   3.404   6.521   3.247  0.2140  0.0688 -1.8826
   49DOPE   H4Y 6280   3.489   6.404   3.344 -0.8948  1.1645  0.8637
   49DOPE   C35 6281   3.590   6.592   3.341 -0.2489  0.4555  0.0576
   49DOPE   H5X 6282   3.533   6.688   3.340 -1.3857 -0.2087 -0.0060
   49DOPE   H5Y 6283   3.689   6.605   3.293 -1.4668  0.7792 -2.5429
   49DOPE   C36 6284   3.599   6.563   3.492  0.1468  0.4114  0.1410
   49DOPE   H6X 6285   3.648   6.464   3.504  1.5292  0.8199 -1.7033
   49DOPE   H6Y 6286   3.495   6.554   3.531 -0.8785 -0.0763 -2.4494
   49DOPE   C37 6287   3.676   6.665   3.575 -0.1138  0.5974 -0.2532
   49DOPE   H7X 6288   3.653   6.757   3.518 -1.2382  1.3246  1.3122
   49DOPE   H7Y 6289   3.620   6.677   3.670 -1.7506  1.4229 -1.2703
   49DOPE   C38 6290   3.830   6.661   3.586 -0.1361 -0.4426 -0.1181
   49DOPE   H8X 6291   3.858   6.751   3.645 -3.7169  0.2925  0.7442
   49DOPE   H8Y 6292   3.872   6.677   3.485  0.0226  1.5574  0.2108
   49DOPE   C39 6293   3.879   6.534   3.646 -0.4709  0.1502  0.8679
   49DOPE   H9X 6294   3.873   6.445   3.582 -0.6899  0.2468  0.7513
   49DOPE  C310 6295   3.940   6.526   3.767 -0.1573 -0.2665  0.4970
   49DOPE  H10X 6296   3.991   6.434   3.802  0.0386 -0.8366 -1.1917
   49DOPE  C311 6297   3.959   6.637   3.872 -0.0047  0.1193  1.1719
   49DOPE  H11X 6298   4.033   6.603   3.947 -0.1105 -3.9603 -0.3227
   49DOPE  H11Y 6299   3.990   6.728   3.816  2.5344 -0.0413  2.1960
   49DOPE  C312 6300   3.827   6.672   3.943  0.1210 -0.2774 -0.0370
   49DOPE  H12X 6301   3.740   6.695   3.878 -0.5728  0.4763  1.1155
   49DOPE  H12Y 6302   3.838   6.771   3.994 -0.6294 -0.2074 -0.0069
   49DOPE  C313 6303   3.773   6.555   4.034  0.4554 -0.8560  0.5317
   49DOPE  H13X 6304   3.736   6.472   3.969 -2.0690  1.4503 -1.2023
   49DOPE  H13Y 6305   3.857   6.516   4.095  1.5947  0.7046  0.0167
   49DOPE  C314 6306   3.661   6.594   4.123 -0.1428 -0.3049 -0.5375
   49DOPE  H14X 6307   3.573   6.611   4.057 -1.6242 -0.9304  1.1670
   49DOPE  H14Y 6308   3.685   6.692   4.171  0.1324 -1.1827  1.1931
   49DOPE  C315 6309   3.608   6.511   4.239 -0.5424 -0.3335 -0.9128
   49DOPE  H15X 6310   3.670   6.528   4.329 -1.6820  4.0214 -0.6983
   49DOPE  H15Y 6311   3.618   6.405   4.207 -1.0478 -0.8166  0.4896
   49DOPE  C316 6312   3.468   6.547   4.301  0.1059  0.3168 -0.3423
   49DOPE  H16X 6313   3.433   6.484   4.386 -0.9783 -0.1077 -1.0803
   49DOPE  H16Y 6314   3.384   6.556   4.229  0.2672  1.9517 -0.3588
   49DOPE  C317 6315   3.489   6.679   4.379 -0.3949  0.6995  0.2146
   49DOPE  H17X 6316   3.558   6.675   4.466 -2.8606 -2.5353  2.2506
   49DOPE  H17Y 6317   3.530   6.762   4.318 -0.9518 -0.6627 -2.1423
   49DOPE  C318 6318   3.368   6.730   4.457 -0.0933 -0.4574 -0.0662
   49DOPE  H18X 6319   3.291   6.784   4.399  0.8382  3.1544  1.7668
   49DOPE  H18Y 6320   3.310   6.644   4.498 -2.4373  0.3657 -1.5102
   49DOPE  H18Z 6321   3.407   6.784   4.546 -0.9750  1.5126 -0.8340
   50DOPE     N 6322   7.304   4.794   2.814 -0.5981 -0.6197  0.0897
   50DOPE   HN1 6323   7.223   4.739   2.848 -0.6360 -1.2468 -0.9440
   50DOPE   HN2 6324   7.373   4.793   2.891  0.2677  2.0911 -0.5558
   50DOPE   HN3 6325   7.292   4.894   2.788  0.9958 -0.6844 -1.0261
   50DOPE   C12 6326   7.365   4.710   2.708 -0.2673  0.1326 -0.1320
   50DOPE  H12A 6327   7.397   4.777   2.625 -1.6511  2.1093  0.8338
   50DOPE  H12B 6328   7.281   4.646   2.674 -0.0681 -1.4332  2.0978
   50DOPE   C11 6329   7.480   4.615   2.753  0.3913  0.3620 -0.3624
   50DOPE  H11A 6330   7.436   4.551   2.833 -0.7184  1.7877  0.2207
   50DOPE  H11B 6331   7.561   4.678   2.795  2.0435  0.1192 -2.9749
   50DOPE     P 6332   7.675   4.544   2.591 -0.2204 -0.0946 -0.3355
   50DOPE   O13 6333   7.707   4.679   2.540 -0.2411  0.0834 -0.0101
   50DOPE   O14 6334   7.691   4.436   2.494  0.8561 -0.0875  0.5045
   50DOPE   O11 6335   7.759   4.516   2.717  0.3857  0.1671  0.2221
   50DOPE   O12 6336   7.521   4.539   2.643 -0.6872 -0.2284  0.3082
   50DOPE    C1 6337   7.727   4.410   2.810 -0.2794  0.2634 -0.3165
   50DOPE    HA 6338   7.812   4.340   2.794  1.0519  2.3145 -2.8686
   50DOPE    HB 6339   7.625   4.367   2.800 -0.6463 -0.5059  4.4113
   50DOPE    C2 6340   7.735   4.463   2.955 -0.3685  0.0391 -0.2834
   50DOPE    HS 6341   7.641   4.519   2.972 -2.4484 -3.4438  0.6335
   50DOPE   O21 6342   7.857   4.542   2.971  0.1523 -0.4212 -0.1051
   50DOPE   C21 6343   7.842   4.655   3.037 -0.3255 -0.0311 -0.6578
   50DOPE   O22 6344   7.735   4.691   3.087 -0.1282  0.0681  0.2112
   50DOPE   C22 6345   7.974   4.721   3.054 -0.1578 -0.3188  0.3690
   50DOPE   H2R 6346   7.979   4.805   2.981 -3.8867 -0.5874 -0.4077
   50DOPE   H2S 6347   8.061   4.654   3.040  0.6445  1.1085 -2.2506
   50DOPE    C3 6348   7.739   4.341   3.041 -0.2910  1.0477 -0.0108
   50DOPE    HX 6349   7.830   4.283   3.016 -0.8541  0.0804  0.1280
   50DOPE    HY 6350   7.655   4.272   3.019 -0.3838  0.1647  2.7325
   50DOPE   O31 6351   7.734   4.378   3.179 -0.3418 -0.2889 -0.2994
   50DOPE   C31 6352   7.621   4.420   3.223  0.1831 -0.7400 -0.0401
   50DOPE   O32 6353   7.515   4.429   3.162  1.0719  0.2474 -0.2777
   50DOPE   C32 6354   7.640   4.473   3.361  0.1759  0.2031  0.2939
   50DOPE   H2X 6355   7.726   4.415   3.401  1.1157 -0.1819 -2.1341
   50DOPE   H2Y 6356   7.652   4.583   3.369 -2.5145  0.5122  1.3145
   50DOPE   C23 6357   7.990   4.793   3.182 -0.1159 -0.2997 -0.2499
   50DOPE   H3R 6358   7.995   4.719   3.265  0.0625  2.9011  2.7940
   50DOPE   H3S 6359   7.906   4.857   3.215 -0.2315 -0.1609 -0.8057
   50DOPE   C24 6360   8.117   4.875   3.195 -0.4292 -1.5543  0.3765
   50DOPE   H4R 6361   8.092   4.976   3.157  1.9684 -1.1599 -0.3220
   50DOPE   H4S 6362   8.200   4.840   3.129  0.2707  0.2913  0.2397
   50DOPE   C25 6363   8.167   4.894   3.341  0.0138 -0.2573  0.8048
   50DOPE   H5R 6364   8.258   4.954   3.318  0.2525 -0.8150  0.2584
   50DOPE   H5S 6365   8.195   4.802   3.398 -2.9155 -0.1015  2.6925
   50DOPE   C26 6366   8.071   4.977   3.425  0.2362  0.0414  0.1181
   50DOPE   H6R 6367   7.975   4.922   3.430  1.1079 -1.5533  0.0126
   50DOPE   H6S 6368   8.058   5.080   3.385  0.1441  0.8384  2.0857
   50DOPE   C27 6369   8.131   4.986   3.564 -0.1897 -0.0997 -0.3596
   50DOPE   H7R 6370   8.226   5.042   3.559 -0.2962  0.3472  1.6713
   50DOPE   H7S 6371   8.147   4.880   3.595  0.1149  0.4751  1.6211
   50DOPE   C28 6372   8.039   5.061   3.664  0.2261  0.2012 -0.0555
   50DOPE   H8R 6373   8.084   5.028   3.761  0.5301 -1.6641 -0.7850
   50DOPE   H8S 6374   7.944   5.004   3.654  0.2813 -0.0174  0.5994
   50DOPE   C29 6375   8.028   5.207   3.648 -0.1607  0.6049 -0.3483
   50DOPE   H9R 6376   8.099   5.256   3.579 -0.8568  2.3106  0.1228
   50DOPE  C210 6377   7.952   5.275   3.736  0.3144  0.5839  0.2551
   50DOPE  H10R 6378   7.958   5.384   3.727 -2.6935  0.9968  2.0340
   50DOPE  C211 6379   7.879   5.221   3.859 -0.1009 -0.4119 -0.1967
   50DOPE  H11R 6380   7.885   5.110   3.860 -2.2927 -0.6233 -2.0391
   50DOPE  H11S 6381   7.771   5.247   3.858 -0.3120 -0.9459  2.4815
   50DOPE  C212 6382   7.938   5.272   3.997 -0.4143  0.1312 -0.1348
   50DOPE  H12R 6383   8.050   5.271   3.999 -0.3660 -2.4623  1.7540
   50DOPE  H12S 6384   7.912   5.197   4.075  1.7381  0.0126  0.5362
   50DOPE  C213 6385   7.883   5.404   4.041 -0.7482  0.3240  0.2672
   50DOPE  H13R 6386   7.773   5.394   4.050 -0.5270 -1.7177  1.1800
   50DOPE  H13S 6387   7.914   5.494   3.983  1.4190 -2.3577 -3.1240
   50DOPE  C214 6388   7.940   5.430   4.183  0.4100  0.1881 -0.0177
   50DOPE  H14R 6389   8.051   5.433   4.190  0.3686 -0.6757  1.6542
   50DOPE  H14S 6390   7.914   5.353   4.259 -0.2950  2.3824  2.1026
   50DOPE  C215 6391   7.891   5.572   4.230 -0.2551  0.1371 -0.9516
   50DOPE  H15R 6392   7.787   5.595   4.197  0.2012  0.6051 -2.0924
   50DOPE  H15S 6393   7.955   5.644   4.175  0.3930  0.6078  0.3800
   50DOPE  C216 6394   7.910   5.598   4.379 -0.0449 -0.1220  0.2695
   50DOPE  H16R 6395   8.011   5.643   4.395 -0.5609  1.0998  0.2385
   50DOPE  H16S 6396   7.908   5.501   4.433  0.7518 -1.2634 -1.6361
   50DOPE  C217 6397   7.828   5.712   4.438  0.4857 -0.0253  0.7429
   50DOPE  H17R 6398   7.724   5.678   4.454  0.9735 -2.3250 -0.4998
   50DOPE  H17S 6399   7.809   5.787   4.359  1.2483 -0.1996  0.3767
   50DOPE  C218 6400   7.876   5.761   4.570  0.4244 -0.3898  0.5017
   50DOPE  H18R 6401   7.823   5.856   4.593  0.8904 -0.1632  0.6632
   50DOPE  H18S 6402   7.983   5.786   4.553  0.6260 -0.9904  0.8830
   50DOPE  H18T 6403   7.864   5.695   4.659 -1.6961  0.5796  1.0007
   50DOPE   C33 6404   7.515   4.444   3.452  0.0447 -0.5791 -0.1810
   50DOPE   H3X 6405   7.501   4.334   3.446 -2.1854 -0.2988 -0.9510
   50DOPE   H3Y 6406   7.427   4.493   3.406  0.4478 -1.2218 -1.7164
   50DOPE   C34 6407   7.553   4.497   3.594  1.1413 -0.1010  1.0817
   50DOPE   H4X 6408   7.612   4.591   3.584  0.4046  0.2760  0.1374
   50DOPE   H4Y 6409   7.464   4.524   3.654 -0.7905 -1.6867 -0.9309
   50DOPE   C35 6410   7.645   4.393   3.666 -0.5999  0.6191  0.1468
   50DOPE   H5X 6411   7.748   4.383   3.625  0.4839  0.2903  2.7818
   50DOPE   H5Y 6412   7.590   4.297   3.655  1.8981 -0.8689 -0.1289
   50DOPE   C36 6413   7.648   4.409   3.816 -0.4258  0.4999  0.6597
   50DOPE   H6X 6414   7.552   4.446   3.858 -0.2235  1.6927  0.1161
   50DOPE   H6Y 6415   7.717   4.494   3.835 -0.3623  0.2092  1.7943
   50DOPE   C37 6416   7.688   4.280   3.898 -0.0318  0.0286  1.2212
   50DOPE   H7X 6417   7.704   4.310   4.004 -0.0967 -1.5404  1.6990
   50DOPE   H7Y 6418   7.608   4.203   3.892  0.6977 -0.6007 -1.5416
   50DOPE   C38 6419   7.804   4.206   3.839 -0.1047  0.0406  0.4172
   50DOPE   H8X 6420   7.777   4.166   3.739 -1.5929 -3.1989  1.9670
   50DOPE   H8Y 6421   7.819   4.115   3.901 -0.9958 -0.6185 -0.3044
   50DOPE   C39 6422   7.928   4.288   3.839  0.4936 -0.2186 -0.1642
   50DOPE   H9X 6423   7.957   4.333   3.742  2.2946  0.5061  0.6479
   50DOPE  C310 6424   8.013   4.292   3.947  0.8218  0.3767  0.7450
   50DOPE  H10X 6425   8.106   4.351   3.945  2.1556 -1.4061  3.7912
   50DOPE  C311 6426   7.986   4.237   4.083  0.8157  0.3605 -0.3309
   50DOPE  H11X 6427   7.887   4.186   4.076  1.6308 -1.1136 -1.9619
   50DOPE  H11Y 6428   8.057   4.154   4.101 -1.2016 -1.2437  0.7593
   50DOPE  C312 6429   7.984   4.334   4.203 -0.1427 -0.9111 -0.6073
   50DOPE  H12X 6430   8.084   4.383   4.204  0.0928 -1.3430 -1.4519
   50DOPE  H12Y 6431   7.977   4.269   4.293 -0.2016  0.4281  0.3755
   50DOPE  C313 6432   7.864   4.430   4.210  0.1709  0.6898  0.3308
   50DOPE  H13X 6433   7.868   4.488   4.116 -3.5970 -0.0910 -0.4632
   50DOPE  H13Y 6434   7.769   4.372   4.212 -0.2731  1.2870 -1.7213
   50DOPE  C314 6435   7.874   4.537   4.321  0.1303 -0.1654  0.1575
   50DOPE  H14X 6436   7.798   4.613   4.296  1.3346  1.3337  0.8915
   50DOPE  H14Y 6437   7.966   4.593   4.291 -0.5963  1.7058  1.2844
   50DOPE  C315 6438   7.872   4.497   4.470 -0.2169 -0.8148  0.5724
   50DOPE  H15X 6439   7.856   4.594   4.522 -0.1093  0.2522 -1.3115
   50DOPE  H15Y 6440   7.968   4.448   4.498  0.1047  0.4678  1.8217
   50DOPE  C316 6441   7.774   4.388   4.506 -0.3112 -0.2564 -0.6187
   50DOPE  H16X 6442   7.802   4.308   4.435  0.9000  0.7837 -1.3290
   50DOPE  H16Y 6443   7.669   4.418   4.486 -0.2843  0.1781 -0.1363
   50DOPE  C317 6444   7.789   4.333   4.651 -0.2141  0.2619 -0.5613
   50DOPE  H17X 6445   7.893   4.296   4.661 -0.9400 -1.9572 -0.7458
   50DOPE  H17Y 6446   7.769   4.409   4.729 -0.0229  0.6757 -0.9103
   50DOPE  C318 6447   7.707   4.206   4.683  0.7309  0.4032 -0.5103
   50DOPE  H18X 6448   7.698   4.132   4.600 -0.3114 -0.6042  0.4527
   50DOPE  H18Y 6449   7.749   4.151   4.770 -0.9131  1.5505  1.0646
   50DOPE  H18Z 6450   7.604   4.229   4.716 -0.0215 -0.6199 -2.0225
   51DOPE     N 6451   4.140   6.351   2.607  0.1127  0.2140  0.4404
   51DOPE   HN1 6452   4.142   6.284   2.528 -2.8213  1.3576 -0.7307
   51DOPE   HN2 6453   4.192   6.319   2.691 -0.6672  1.0569  1.2704
   51DOPE   HN3 6454   4.040   6.348   2.637 -0.3107 -0.2070 -0.9266
   51DOPE   C12 6455   4.179   6.481   2.544 -0.1980 -0.0693  0.7629
   51DOPE  H12A 6456   4.151   6.479   2.436  2.1443 -0.3810  0.1213
   51DOPE  H12B 6457   4.289   6.486   2.539 -0.2990  2.9096 -0.9477
   51DOPE   C11 6458   4.115   6.597   2.623  0.6908  0.8983  0.2389
   51DOPE  H11A 6459   4.147   6.687   2.567  2.2649  0.4021  0.3078
   51DOPE  H11B 6460   4.161   6.616   2.722 -0.4434 -0.0576  0.9780
   51DOPE     P 6461   3.889   6.636   2.516  0.3977  0.0429 -0.1028
   51DOPE   O13 6462   3.747   6.638   2.543 -0.1222 -0.9542 -0.2066
   51DOPE   O14 6463   3.927   6.555   2.400 -0.0826  0.6707  0.1532
   51DOPE   O11 6464   3.941   6.780   2.506 -0.3872  0.0649  0.0915
   51DOPE   O12 6465   3.973   6.588   2.640 -0.6849  0.8389  0.1226
   51DOPE    C1 6466   3.869   6.891   2.563 -0.4556 -0.3757  0.8319
   51DOPE    HA 6467   3.763   6.872   2.536 -0.9662  1.4926  1.3679
   51DOPE    HB 6468   3.908   6.987   2.522 -2.1166  0.5897  1.3908
   51DOPE    C2 6469   3.886   6.905   2.716 -0.1323 -1.1695 -0.0811
   51DOPE    HS 6470   3.864   7.011   2.744 -0.3824 -1.2809  0.1471
   51DOPE   O21 6471   4.016   6.864   2.764  0.0823 -0.5896 -0.6328
   51DOPE   C21 6472   4.101   6.965   2.744 -0.3680 -0.3727  0.1892
   51DOPE   O22 6473   4.074   7.071   2.685 -0.3796 -0.0383 -0.0891
   51DOPE   C22 6474   4.240   6.937   2.799  0.0323 -0.0571 -0.3665
   51DOPE   H2R 6475   4.312   6.976   2.724  0.0199 -1.7379 -1.3038
   51DOPE   H2S 6476   4.247   6.827   2.812 -3.4223 -0.1280  2.5700
   51DOPE    C3 6477   3.782   6.823   2.792  0.2164  0.5413 -0.2715
   51DOPE    HX 6478   3.827   6.722   2.805  1.0101  0.8823 -0.3245
   51DOPE    HY 6479   3.693   6.798   2.730  0.9764  0.9221 -1.5311
   51DOPE   O31 6480   3.741   6.863   2.926 -0.6955 -0.2671  0.0991
   51DOPE   C31 6481   3.656   6.959   2.929  0.0148 -0.1855 -0.2919
   51DOPE   O32 6482   3.609   7.022   2.836 -0.6223  0.3292  0.1886
   51DOPE   C32 6483   3.616   6.974   3.082 -0.6390 -0.5122  0.1818
   51DOPE   H2X 6484   3.526   6.913   3.104 -1.1133  0.4399  0.9035
   51DOPE   H2Y 6485   3.699   6.919   3.132  0.6164  0.6138 -0.5742
   51DOPE   C23 6486   4.262   7.004   2.935 -0.0607 -0.6854  0.0371
   51DOPE   H3R 6487   4.169   7.009   2.996 -0.7293  0.0989 -1.0171
   51DOPE   H3S 6488   4.278   7.111   2.914  1.9208 -0.7003  1.2900
   51DOPE   C24 6489   4.375   6.941   3.022 -0.1328 -0.8149  0.1545
   51DOPE   H4R 6490   4.336   6.838   3.041 -0.2365 -1.2288 -2.0838
   51DOPE   H4S 6491   4.380   7.001   3.116  0.1065  0.2933 -0.5539
   51DOPE   C25 6492   4.504   6.923   2.938  0.3908  0.1969  0.0324
   51DOPE   H5R 6493   4.534   7.026   2.906 -0.2586  0.7763  1.2244
   51DOPE   H5S 6494   4.478   6.862   2.849  1.5214 -1.0764  0.5613
   51DOPE   C26 6495   4.623   6.871   3.010 -0.5644  0.0198  0.7517
   51DOPE   H6R 6496   4.713   6.862   2.946 -2.2378 -1.7929 -1.4922
   51DOPE   H6S 6497   4.595   6.767   3.039 -0.0444 -0.3000  0.1351
   51DOPE   C27 6498   4.657   6.953   3.135 -0.6716  0.3666 -0.4038
   51DOPE   H7R 6499   4.567   6.957   3.199 -0.8983  1.1387 -0.7640
   51DOPE   H7S 6500   4.657   7.061   3.113 -1.8003  0.4237 -0.1716
   51DOPE   C28 6501   4.795   6.908   3.193  0.6389  0.5721 -0.3060
   51DOPE   H8R 6502   4.876   6.910   3.116  0.3617  1.3241 -0.5881
   51DOPE   H8S 6503   4.796   6.802   3.224  0.8336  0.4321 -0.7766
   51DOPE   C29 6504   4.819   6.996   3.319  0.0241  0.4802 -0.6818
   51DOPE   H9R 6505   4.731   6.996   3.384  1.3464 -1.7144  1.2360
   51DOPE  C210 6506   4.919   7.084   3.349 -0.8252  0.4362 -0.2824
   51DOPE  H10R 6507   4.918   7.146   3.440  1.3916  0.1474 -0.0111
   51DOPE  C211 6508   5.051   7.090   3.272 -0.6513 -0.1226 -1.1436
   51DOPE  H11R 6509   5.062   7.005   3.201  1.0454  0.1592 -1.2712
   51DOPE  H11S 6510   5.127   7.075   3.352  0.3310  1.0877 -1.8151
   51DOPE  C212 6511   5.096   7.212   3.191 -0.9870  0.9893 -0.1121
   51DOPE  H12R 6512   5.016   7.243   3.121 -0.4943  0.4912 -0.9009
   51DOPE  H12S 6513   5.177   7.171   3.128 -0.7001  0.2477  0.7274
   51DOPE  C213 6514   5.163   7.328   3.274  0.3715 -0.3388  0.6088
   51DOPE  H13R 6515   5.095   7.374   3.348  0.8005  0.5572  0.4622
   51DOPE  H13S 6516   5.183   7.419   3.214 -0.5646  1.4917  2.9401
   51DOPE  C214 6517   5.300   7.292   3.330  0.3837 -0.5465 -0.0942
   51DOPE  H14R 6518   5.358   7.255   3.243  0.5434  0.2370 -0.3320
   51DOPE  H14S 6519   5.288   7.212   3.407 -0.5263  0.1746  0.5305
   51DOPE  C215 6520   5.366   7.413   3.400  0.3472 -1.0313  0.7170
   51DOPE  H15R 6521   5.310   7.447   3.490  1.9684  1.3531  0.9034
   51DOPE  H15S 6522   5.378   7.489   3.321  1.6915 -1.6267  0.3030
   51DOPE  C216 6523   5.498   7.371   3.468 -0.4575 -0.0321  0.4785
   51DOPE  H16R 6524   5.571   7.334   3.393 -0.4542 -1.3647  1.1190
   51DOPE  H16S 6525   5.472   7.293   3.542 -1.7278 -0.2336 -0.1534
   51DOPE  C217 6526   5.559   7.491   3.544  0.1475 -0.2814 -0.2803
   51DOPE  H17R 6527   5.493   7.525   3.626  0.4145  3.4843 -1.4263
   51DOPE  H17S 6528   5.569   7.586   3.487 -1.5034 -0.2588 -0.6022
   51DOPE  C218 6529   5.683   7.440   3.602  0.0677 -0.7649  0.8835
   51DOPE  H18R 6530   5.756   7.401   3.528 -0.0182 -2.5395  1.6670
   51DOPE  H18S 6531   5.660   7.354   3.670  0.8696 -2.2257 -0.6271
   51DOPE  H18T 6532   5.738   7.516   3.661  1.2680 -1.5916  0.8736
   51DOPE   C33 6533   3.614   7.118   3.133  0.2391  0.5721  0.1506
   51DOPE   H3X 6534   3.551   7.180   3.065 -0.2547 -1.6587 -1.5035
   51DOPE   H3Y 6535   3.716   7.161   3.137  0.5359 -0.1439  3.5444
   51DOPE   C34 6536   3.569   7.134   3.273  0.4929  0.4727  0.0065
   51DOPE   H4X 6537   3.463   7.103   3.281  0.4288  1.0555  2.4182
   51DOPE   H4Y 6538   3.628   7.071   3.344 -0.9816 -2.2818 -1.0619
   51DOPE   C35 6539   3.569   7.281   3.324  0.7399 -0.6495 -0.5077
   51DOPE   H5X 6540   3.500   7.352   3.274  0.2752  0.7244  1.9149
   51DOPE   H5Y 6541   3.671   7.316   3.298  0.4674 -1.0058 -2.2179
   51DOPE   C36 6542   3.553   7.291   3.477 -0.4097 -0.0863 -0.0178
   51DOPE   H6X 6543   3.597   7.387   3.509 -4.5736  1.9624  0.2458
   51DOPE   H6Y 6544   3.617   7.213   3.522 -1.2946  0.0011  1.4506
   51DOPE   C37 6545   3.405   7.281   3.521 -0.3101  0.2133 -0.2943
   51DOPE   H7X 6546   3.352   7.378   3.504 -3.6098 -1.4455 -0.2956
   51DOPE   H7Y 6547   3.352   7.202   3.463  1.5779  0.2828 -2.2736
   51DOPE   C38 6548   3.380   7.262   3.672  0.3197  0.0288  0.4021
   51DOPE   H8X 6549   3.406   7.158   3.701  2.6325  0.4280 -0.0101
   51DOPE   H8Y 6550   3.273   7.274   3.698  0.1164  0.3651 -0.5590
   51DOPE   C39 6551   3.449   7.373   3.746  0.5426 -0.3306  0.3518
   51DOPE   H9X 6552   3.405   7.470   3.718  0.0920 -0.7280 -0.3634
   51DOPE  C310 6553   3.546   7.378   3.832 -0.3267  0.0038 -0.9362
   51DOPE  H10X 6554   3.576   7.469   3.886  2.6155 -0.9073 -0.8519
   51DOPE  C311 6555   3.616   7.253   3.886 -0.1233  0.2749  0.8619
   51DOPE  H11X 6556   3.564   7.159   3.859  2.7196 -1.3905  0.8018
   51DOPE  H11Y 6557   3.717   7.247   3.839 -0.3626  0.6689  0.2884
   51DOPE  C312 6558   3.623   7.247   4.036 -0.0609 -0.1256  0.2463
   51DOPE  H12X 6559   3.523   7.264   4.081 -0.4366  0.7649 -0.8822
   51DOPE  H12Y 6560   3.682   7.329   4.083 -1.4260  0.8646  0.2814
   51DOPE  C313 6561   3.695   7.118   4.091 -0.3897  0.6783  0.2174
   51DOPE  H13X 6562   3.635   7.035   4.048  0.9038  0.3584 -1.0555
   51DOPE  H13Y 6563   3.798   7.113   4.048 -1.5952 -1.6202 -2.7267
   51DOPE  C314 6564   3.695   7.115   4.244  0.1396  0.4063 -0.1745
   51DOPE  H14X 6565   3.587   7.108   4.272  0.2571 -1.0867  0.0183
   51DOPE  H14Y 6566   3.721   7.214   4.287 -1.3686  1.3764 -1.3713
   51DOPE  C315 6567   3.761   6.992   4.311  0.5990  0.1574  0.4329
   51DOPE  H15X 6568   3.727   6.899   4.260  1.2742  0.9421 -1.5697
   51DOPE  H15Y 6569   3.713   6.984   4.411 -0.1360 -1.7207 -0.0220
   51DOPE  C316 6570   3.912   6.990   4.315  0.4281 -0.7106  0.2407
   51DOPE  H16X 6571   3.951   7.093   4.331  0.5118 -0.9487  1.7945
   51DOPE  H16Y 6572   3.949   6.954   4.217 -1.3340  0.2643 -0.8343
   51DOPE  C317 6573   3.970   6.896   4.416 -0.4573  0.5130 -0.2280
   51DOPE  H17X 6574   4.074   6.931   4.434 -1.2596  2.1027  1.6751
   51DOPE  H17Y 6575   3.903   6.885   4.503 -0.1612  0.6759  0.0217
   51DOPE  C318 6576   3.977   6.758   4.359 -0.2584  0.1278 -0.7984
   51DOPE  H18X 6577   4.063   6.742   4.290  0.7724  1.7129  0.0642
   51DOPE  H18Y 6578   3.995   6.683   4.438 -0.6467  0.1494 -0.6850
   51DOPE  H18Z 6579   3.882   6.732   4.306 -1.0676 -0.5247  0.9129
   52DOPE     N 6580   7.001   3.768   2.900  0.3242  0.0337  0.2717
   52DOPE   HN1 6581   7.014   3.668   2.925  0.3395  0.3548  1.5981
   52DOPE   HN2 6582   6.904   3.786   2.866  0.5176  0.8774  0.1656
   52DOPE   HN3 6583   7.073   3.783   2.826 -0.1861 -0.7874 -0.4203
   52DOPE   C12 6584   7.040   3.854   3.018  0.0916 -0.4588 -0.0639
   52DOPE  H12A 6585   7.151   3.857   3.015  0.0687  2.1849 -1.4087
   52DOPE  H12B 6586   6.999   3.811   3.112  2.7778  0.0312  1.4447
   52DOPE   C11 6587   6.975   3.994   2.998 -0.0894  0.0683 -0.2043
   52DOPE  H11A 6588   7.026   4.032   2.907  0.0822  0.8934  0.2334
   52DOPE  H11B 6589   6.996   4.062   3.083 -0.2558  1.0800 -0.9535
   52DOPE     P 6590   6.758   4.068   2.861  0.3877 -0.0789  0.0914
   52DOPE   O13 6591   6.634   4.004   2.825  0.1252 -0.6576  0.3351
   52DOPE   O14 6592   6.847   4.094   2.747 -0.1681 -0.0274  0.0376
   52DOPE   O11 6593   6.723   4.205   2.933 -0.4016 -0.0075  0.2053
   52DOPE   O12 6594   6.832   3.983   2.971  0.0332  0.0992  0.2761
   52DOPE    C1 6595   6.614   4.224   3.023  0.2087 -0.3291  0.5138
   52DOPE    HA 6596   6.519   4.172   2.996  0.1856 -0.1157  0.1752
   52DOPE    HB 6597   6.584   4.331   3.020 -1.6634 -0.8419 -1.2206
   52DOPE    C2 6598   6.643   4.197   3.172 -0.0093 -0.4347  0.0455
   52DOPE    HS 6599   6.738   4.253   3.187 -1.4615  1.4905  3.2017
   52DOPE   O21 6600   6.656   4.056   3.203 -0.1753  0.1224  0.0241
   52DOPE   C21 6601   6.753   4.022   3.291 -0.1430  0.1913  0.5691
   52DOPE   O22 6602   6.833   4.099   3.341  0.2698 -0.0147 -0.1599
   52DOPE   C22 6603   6.762   3.872   3.294 -0.2265 -0.2173  0.0497
   52DOPE   H2R 6604   6.862   3.860   3.340 -0.6063 -2.5238  0.3866
   52DOPE   H2S 6605   6.764   3.831   3.191 -0.2585  0.0698 -0.0641
   52DOPE    C3 6606   6.527   4.258   3.265  0.0978  0.0566  0.6817
   52DOPE    HX 6607   6.431   4.213   3.233 -0.2084  0.8963  0.4028
   52DOPE    HY 6608   6.522   4.367   3.246  0.1410 -0.1591 -0.7285
   52DOPE   O31 6609   6.544   4.223   3.405  0.3617 -0.3912  1.3328
   52DOPE   C31 6610   6.626   4.297   3.469  0.4031 -0.2283 -0.2504
   52DOPE   O32 6611   6.682   4.399   3.437  0.0560  0.2302 -0.1471
   52DOPE   C32 6612   6.631   4.247   3.608 -0.3813 -0.5617 -0.1017
   52DOPE   H2X 6613   6.545   4.181   3.629  0.5476 -2.0321 -0.7834
   52DOPE   H2Y 6614   6.721   4.186   3.631 -1.4485 -2.4273 -0.6544
   52DOPE   C23 6615   6.658   3.793   3.371  0.1253 -0.6162 -0.3602
   52DOPE   H3R 6616   6.690   3.686   3.365  1.5929 -0.1964 -0.3251
   52DOPE   H3S 6617   6.557   3.808   3.325 -0.8114  1.1788  2.0716
   52DOPE   C24 6618   6.647   3.836   3.519  0.4100 -0.0794  0.2387
   52DOPE   H4R 6619   6.580   3.762   3.569 -1.2853  1.4645  0.3876
   52DOPE   H4S 6620   6.590   3.932   3.525 -1.0868 -0.7028 -2.3257
   52DOPE   C25 6621   6.777   3.836   3.603 -0.6373 -0.4588 -0.4135
   52DOPE   H5R 6622   6.832   3.920   3.556 -0.2957 -0.6271 -0.3148
   52DOPE   H5S 6623   6.832   3.742   3.581  0.6867  0.6904 -2.3383
   52DOPE   C26 6624   6.759   3.860   3.757  0.1827 -0.2299  0.4318
   52DOPE   H6R 6625   6.687   3.784   3.794 -2.4110  1.8191 -0.0284
   52DOPE   H6S 6626   6.711   3.960   3.770 -0.0250 -0.4417  1.3082
   52DOPE   C27 6627   6.892   3.862   3.841 -0.0481  0.4527 -0.5562
   52DOPE   H7R 6628   6.953   3.950   3.813  1.2633  0.0878  1.0012
   52DOPE   H7S 6629   6.951   3.771   3.816  2.5750  1.7886  0.4459
   52DOPE   C28 6630   6.874   3.859   3.992  0.0533  0.3120 -0.7865
   52DOPE   H8R 6631   6.967   3.818   4.036 -0.0883 -0.9490 -1.6146
   52DOPE   H8S 6632   6.792   3.789   4.021 -2.8153  3.1518 -1.3715
   52DOPE   C29 6633   6.849   4.000   4.056  0.6765  0.8316  0.4531
   52DOPE   H9R 6634   6.781   4.059   3.993 -1.2548  0.4282  2.0835
   52DOPE  C210 6635   6.871   4.037   4.181  0.4994 -0.4913 -0.2353
   52DOPE  H10R 6636   6.835   4.136   4.212  0.8187 -0.0980 -1.0892
   52DOPE  C211 6637   6.941   3.954   4.285 -0.1223 -0.3119 -0.0672
   52DOPE  H11R 6638   7.047   3.988   4.287  0.8202 -2.4490 -3.5464
   52DOPE  H11S 6639   6.953   3.846   4.261  0.7960 -0.2480  0.0680
   52DOPE  C212 6640   6.865   3.954   4.419  0.0857  0.2866 -0.1444
   52DOPE  H12R 6641   6.933   3.892   4.481  1.7177  0.6378 -1.4971
   52DOPE  H12S 6642   6.763   3.913   4.407  0.4272 -0.7767  0.4746
   52DOPE  C213 6643   6.868   4.088   4.493 -0.0017  0.9282  0.6565
   52DOPE  H13R 6644   6.793   4.152   4.442  1.0616  1.0180 -0.8850
   52DOPE  H13S 6645   6.970   4.131   4.492 -0.3968  1.8805  0.6753
   52DOPE  C214 6646   6.845   4.083   4.643  0.6841 -0.6404  0.0017
   52DOPE  H14R 6647   6.851   4.183   4.691 -0.2744 -0.0480 -1.0686
   52DOPE  H14S 6648   6.924   4.021   4.691  0.6465 -0.7327 -0.0557
   52DOPE  C215 6649   6.719   4.017   4.687 -0.7663 -0.3115 -0.4882
   52DOPE  H15R 6650   6.712   3.918   4.637  0.5072  0.2422 -1.8513
   52DOPE  H15S 6651   6.633   4.077   4.649  0.4409  0.9305 -1.3578
   52DOPE  C216 6652   6.714   4.001   4.845  0.3692  0.4296  0.1392
   52DOPE  H16R 6653   6.730   4.103   4.886 -3.2377  1.2505 -0.1734
   52DOPE  H16S 6654   6.793   3.930   4.878 -0.5291 -0.7946 -0.2605
   52DOPE  C217 6655   6.573   3.957   4.888 -0.1349  0.5356 -0.0716
   52DOPE  H17R 6656   6.511   4.034   4.838  1.4004  1.1584 -1.1120
   52DOPE  H17S 6657   6.564   3.993   4.993 -1.4338 -1.0683  0.3902
   52DOPE  C218 6658   6.535   3.814   4.868  0.5111  0.2159  0.3486
   52DOPE  H18R 6659   6.425   3.813   4.851  0.5448 -1.7443  0.0383
   52DOPE  H18S 6660   6.574   3.771   4.773  2.0973  0.7194  0.7407
   52DOPE  H18T 6661   6.558   3.747   4.954 -0.6358  0.2773  0.7195
   52DOPE   C33 6662   6.626   4.363   3.709  0.1673  0.1943 -0.3477
   52DOPE   H3X 6663   6.533   4.422   3.717  0.3023  0.2369  1.2277
   52DOPE   H3Y 6664   6.704   4.440   3.693  1.2786 -1.0179 -0.9738
   52DOPE   C34 6665   6.654   4.307   3.850  0.0500 -0.4301 -0.1227
   52DOPE   H4X 6666   6.589   4.220   3.877  0.3483 -1.4372 -2.4412
   52DOPE   H4Y 6667   6.757   4.266   3.840  0.9658  1.6442  0.3819
   52DOPE   C35 6668   6.662   4.408   3.961 -0.2042  0.4601  0.4838
   52DOPE   H5X 6669   6.560   4.452   3.955 -0.2318  0.2971 -0.4094
   52DOPE   H5Y 6670   6.746   4.476   3.935 -0.3762  1.0613  1.4555
   52DOPE   C36 6671   6.699   4.341   4.096 -0.3765  0.0793 -0.1334
   52DOPE   H6X 6672   6.792   4.283   4.082 -0.3281 -0.4958  2.2369
   52DOPE   H6Y 6673   6.620   4.264   4.117  1.2552 -1.4914  0.5114
   52DOPE   C37 6674   6.731   4.427   4.220 -0.0299 -1.0374  0.2288
   52DOPE   H7X 6675   6.780   4.367   4.300  0.5140  1.0301  1.5229
   52DOPE   H7Y 6676   6.802   4.507   4.190 -3.3456  2.6704  1.4986
   52DOPE   C38 6677   6.603   4.491   4.286 -0.2119 -0.2989  1.3337
   52DOPE   H8X 6678   6.540   4.532   4.203  1.9278 -0.0225 -0.2347
   52DOPE   H8Y 6679   6.631   4.575   4.353 -1.7486  1.4034 -0.0212
   52DOPE   C39 6680   6.527   4.383   4.355 -0.3338  0.2946 -0.2264
   52DOPE   H9X 6681   6.522   4.293   4.293  0.3986 -0.6616  1.0532
   52DOPE  C310 6682   6.494   4.395   4.485 -0.6880  0.3528  0.7452
   52DOPE  H10X 6683   6.441   4.305   4.519  0.3105  0.4745  2.7812
   52DOPE  C311 6684   6.492   4.525   4.562 -0.2372 -0.4507  0.0035
   52DOPE  H11X 6685   6.524   4.614   4.503  1.1747 -0.4643  0.7189
   52DOPE  H11Y 6686   6.387   4.542   4.593 -0.2258  0.3749 -0.3878
   52DOPE  C312 6687   6.576   4.523   4.695  0.3063  0.2279 -0.2613
   52DOPE  H12X 6688   6.586   4.619   4.750  0.9894  0.7770 -1.3146
   52DOPE  H12Y 6689   6.683   4.506   4.671  1.2995  0.3798  3.4094
   52DOPE  C313 6690   6.538   4.415   4.803  0.3390  0.8264 -0.1914
   52DOPE  H13X 6691   6.431   4.430   4.829 -0.0804  0.7939 -1.7776
   52DOPE  H13Y 6692   6.532   4.320   4.745 -1.0299  0.7840 -0.0057
   52DOPE  C314 6693   6.641   4.406   4.922  0.2872 -0.4507  0.0224
   52DOPE  H14X 6694   6.741   4.454   4.911  0.2552 -0.4666 -0.3583
   52DOPE  H14Y 6695   6.647   4.300   4.955  2.0579  0.3149  2.4737
   52DOPE  C315 6696   6.587   4.481   5.044  0.2999  0.1873  0.0536
   52DOPE  H15X 6697   6.480   4.457   5.063  0.4875  0.6110  1.8245
   52DOPE  H15Y 6698   6.588   4.588   5.014 -0.5172  0.3922  0.7292
   52DOPE  C316 6699   6.687   4.453   5.157  0.1309  0.4105 -0.3759
   52DOPE  H16X 6700   6.791   4.486   5.136 -0.4835  1.7426 -1.5011
   52DOPE  H16Y 6701   6.692   4.342   5.157  2.7280  0.3141  3.9529
   52DOPE  C317 6702   6.630   4.492   5.292 -0.0001 -0.3723 -0.1024
   52DOPE  H17X 6703   6.540   4.434   5.324  0.1998 -0.5450  0.1612
   52DOPE  H17Y 6704   6.703   4.472   5.374 -0.1301 -2.0079 -0.3506
   52DOPE  C318 6705   6.605   4.645   5.292  0.1257 -0.4034 -0.0518
   52DOPE  H18X 6706   6.507   4.667   5.243  0.2015 -0.6013 -0.2873
   52DOPE  H18Y 6707   6.587   4.693   5.391 -2.1641  1.6617 -1.3339
   52DOPE  H18Z 6708   6.692   4.699   5.249 -1.6972  1.5603 -1.5239
   53DOPE     N 6709   6.254   5.754   2.612 -0.2075  0.0486  0.1418
   53DOPE   HN1 6710   6.345   5.771   2.565  0.1033  1.0495  1.0760
   53DOPE   HN2 6711   6.262   5.817   2.694  3.2321  0.8628 -0.6573
   53DOPE   HN3 6712   6.239   5.658   2.651 -2.2400 -0.3583 -1.4589
   53DOPE   C12 6713   6.134   5.780   2.541 -0.8403  0.7378  0.9822
   53DOPE  H12A 6714   6.105   5.679   2.506  0.5500  0.6032  0.1282
   53DOPE  H12B 6715   6.151   5.845   2.452  1.9201 -0.1110  0.8086
   53DOPE   C11 6716   6.019   5.845   2.621 -0.3328 -0.3219  0.6156
   53DOPE  H11A 6717   5.997   5.778   2.706  0.0208 -1.3234 -0.0713
   53DOPE  H11B 6718   5.932   5.846   2.552 -0.4861  0.4770  0.8022
   53DOPE     P 6719   5.975   6.099   2.609  0.1873  0.1368  0.2572
   53DOPE   O13 6720   5.943   6.070   2.471  0.3131 -0.2682  0.0183
   53DOPE   O14 6721   6.059   6.214   2.636 -0.6670 -1.0662 -0.6083
   53DOPE   O11 6722   5.844   6.094   2.699 -0.4753 -0.2763  0.5236
   53DOPE   O12 6723   6.051   5.974   2.669 -0.0944 -0.1181 -0.3427
   53DOPE    C1 6724   5.841   6.150   2.832 -0.6626  0.2408  0.6518
   53DOPE    HA 6725   5.736   6.168   2.862 -1.7683  3.9076 -4.1891
   53DOPE    HB 6726   5.878   6.254   2.833  0.4732 -0.1432  2.0110
   53DOPE    C2 6727   5.925   6.054   2.937  0.1951 -0.5895  0.3541
   53DOPE    HS 6728   6.031   6.078   2.916  0.0451 -1.0860 -1.1463
   53DOPE   O21 6729   5.896   5.916   2.918 -0.9300  0.4297  0.8217
   53DOPE   C21 6730   5.982   5.832   2.972 -0.1149 -0.4347 -0.4659
   53DOPE   O22 6731   6.091   5.862   3.019  0.0835  0.5843 -0.2496
   53DOPE   C22 6732   5.918   5.697   2.977 -0.1699 -0.2883 -0.1243
   53DOPE   H2R 6733   5.904   5.669   2.871  1.7704 -0.1656 -0.4417
   53DOPE   H2S 6734   5.820   5.720   3.025 -0.1125 -0.5716  0.1273
   53DOPE    C3 6735   5.906   6.095   3.088 -0.3799  0.3784 -0.5074
   53DOPE    HX 6736   5.981   6.044   3.152 -0.7350 -0.9988 -1.1739
   53DOPE    HY 6737   5.809   6.055   3.124  0.1204  0.1863  0.6549
   53DOPE   O31 6738   5.901   6.238   3.107  0.2167  0.1934 -0.6839
   53DOPE   C31 6739   6.015   6.310   3.096  0.5024  1.6105 -0.1616
   53DOPE   O32 6740   6.121   6.260   3.059 -0.1870 -0.4469 -0.4679
   53DOPE   C32 6741   5.984   6.454   3.129 -0.5463 -0.5224 -0.4060
   53DOPE   H2X 6742   5.908   6.487   3.054 -0.6850 -2.4437 -1.1785
   53DOPE   H2Y 6743   5.938   6.452   3.230 -0.7874  1.9754 -0.4033
   53DOPE   C23 6744   5.976   5.596   3.077  0.4166 -0.1373 -0.3707
   53DOPE   H3R 6745   6.086   5.581   3.064  0.4179  1.5240 -3.0687
   53DOPE   H3S 6746   5.925   5.500   3.057 -3.1824  1.8312 -1.5434
   53DOPE   C24 6747   5.936   5.624   3.224  0.1724  0.0993  0.8971
   53DOPE   H4R 6748   5.826   5.614   3.222  0.2317 -0.4413  0.2631
   53DOPE   H4S 6749   5.954   5.729   3.256 -1.0472  0.7908 -0.5617
   53DOPE   C25 6750   6.002   5.536   3.331  0.3054 -0.5186 -0.0714
   53DOPE   H5R 6751   6.106   5.522   3.296  0.7113  1.7583  0.0714
   53DOPE   H5S 6752   5.945   5.441   3.338 -2.4410  1.0516  0.1373
   53DOPE   C26 6753   5.991   5.588   3.471 -0.0054  0.0877  0.3059
   53DOPE   H6R 6754   5.891   5.636   3.475 -1.0357 -1.8784 -0.5087
   53DOPE   H6S 6755   6.075   5.657   3.490  0.4554 -0.8205  1.6972
   53DOPE   C27 6756   5.995   5.472   3.570 -0.0103  0.3147 -0.9480
   53DOPE   H7R 6757   6.087   5.410   3.571 -1.4771 -2.0032  1.0232
   53DOPE   H7S 6758   5.910   5.403   3.552 -0.4982  0.4059  0.8371
   53DOPE   C28 6759   5.985   5.535   3.720  0.8883  0.4366  1.1609
   53DOPE   H8R 6760   5.890   5.586   3.746  0.6698 -0.1014  1.4426
   53DOPE   H8S 6761   6.071   5.602   3.738  2.0464 -1.2810  2.3328
   53DOPE   C29 6762   5.997   5.423   3.825  0.4278  0.2015  0.7499
   53DOPE   H9R 6763   6.011   5.322   3.782 -0.5464  0.0245  0.8284
   53DOPE  C210 6764   6.005   5.447   3.960  0.2595 -0.1014  1.0092
   53DOPE  H10R 6765   6.004   5.358   4.025 -0.6066 -0.8902 -0.0557
   53DOPE  C211 6766   6.010   5.581   4.025 -0.1707  0.7556  0.3645
   53DOPE  H11R 6767   5.918   5.643   4.016 -0.3824  0.2113 -1.7677
   53DOPE  H11S 6768   6.101   5.634   3.992  0.1126  1.1322  1.6890
   53DOPE  C212 6769   6.045   5.560   4.173  0.3350 -0.4397  0.3934
   53DOPE  H12R 6770   6.126   5.486   4.192 -0.9114 -2.3347 -1.2346
   53DOPE  H12S 6771   5.956   5.524   4.229 -0.1582  0.3402  0.1155
   53DOPE  C213 6772   6.102   5.686   4.239 -0.4982  0.3036  0.5416
   53DOPE  H13R 6773   6.031   5.772   4.237 -1.6429 -0.6135  0.3680
   53DOPE  H13S 6774   6.187   5.716   4.174  0.4392 -0.1997  1.5252
   53DOPE  C214 6775   6.141   5.668   4.381  0.8406 -0.0972  0.2320
   53DOPE  H14R 6776   6.234   5.607   4.391  1.5557  0.9522  0.1882
   53DOPE  H14S 6777   6.059   5.614   4.432 -1.2623  0.0388 -2.7301
   53DOPE  C215 6778   6.179   5.811   4.448 -0.6960  0.5659  0.5203
   53DOPE  H15R 6779   6.098   5.882   4.421  0.1071  1.3153  0.0276
   53DOPE  H15S 6780   6.269   5.845   4.393  0.5591  0.1281  2.2120
   53DOPE  C216 6781   6.207   5.793   4.595 -0.2071  0.8009 -0.0506
   53DOPE  H16R 6782   6.285   5.715   4.607 -1.8664 -1.0895 -0.9584
   53DOPE  H16S 6783   6.113   5.754   4.640  0.4225 -0.2135  0.4175
   53DOPE  C217 6784   6.231   5.925   4.667 -0.7057 -0.5152  0.1098
   53DOPE  H17R 6785   6.151   5.995   4.635  0.3528  1.1618  0.9875
   53DOPE  H17S 6786   6.332   5.961   4.638 -0.4035 -2.3389 -1.2974
   53DOPE  C218 6787   6.219   5.927   4.821  0.6719  0.5494 -0.2944
   53DOPE  H18R 6788   6.208   6.033   4.851 -0.2124  0.8370 -1.5290
   53DOPE  H18S 6789   6.305   5.870   4.861  0.5695 -0.0409 -0.8985
   53DOPE  H18T 6790   6.125   5.875   4.851 -0.6132  2.0973 -1.5069
   53DOPE   C33 6791   6.100   6.550   3.128 -0.3195  0.5871  0.4782
   53DOPE   H3X 6792   6.162   6.531   3.038  0.7260  0.3802  1.2176
   53DOPE   H3Y 6793   6.168   6.529   3.214 -0.5850  2.2424  1.1344
   53DOPE   C34 6794   6.068   6.696   3.132  0.2944 -1.2186 -0.2422
   53DOPE   H4X 6795   6.163   6.754   3.129 -0.8760  0.7521 -1.4590
   53DOPE   H4Y 6796   6.009   6.719   3.041 -0.0737  1.7381  0.6123
   53DOPE   C35 6797   5.994   6.749   3.262 -0.2987  0.1150 -0.1268
   53DOPE   H5X 6798   5.920   6.672   3.294 -0.6549  1.0030  1.2548
   53DOPE   H5Y 6799   5.938   6.837   3.223  0.0453  0.3789 -0.0216
   53DOPE   C36 6800   6.087   6.792   3.385  0.3900 -0.0080 -0.1117
   53DOPE   H6X 6801   6.161   6.868   3.353  1.6534 -0.8384  0.7362
   53DOPE   H6Y 6802   6.145   6.700   3.409  0.8686  0.5808  1.0849
   53DOPE   C37 6803   6.008   6.841   3.515 -0.3594  0.7580  0.1311
   53DOPE   H7X 6804   5.953   6.935   3.495 -1.8262  0.0865  0.8834
   53DOPE   H7Y 6805   5.936   6.762   3.547 -2.5138  2.5046 -0.1934
   53DOPE   C38 6806   6.103   6.861   3.635  0.5736 -0.4362 -0.5124
   53DOPE   H8X 6807   6.183   6.935   3.613 -0.7515  1.5074  0.8679
   53DOPE   H8Y 6808   6.149   6.765   3.668  0.9468  0.1741  0.8028
   53DOPE   C39 6809   6.028   6.910   3.755  1.1570 -0.3253  0.5073
   53DOPE   H9X 6810   5.921   6.936   3.749  1.6492  1.3746 -3.3764
   53DOPE  C310 6811   6.088   6.943   3.871 -0.4541 -0.3079  0.3078
   53DOPE  H10X 6812   6.024   6.967   3.956  0.0922 -1.2740  1.0083
   53DOPE  C311 6813   6.230   6.929   3.910  0.1061 -0.0405  0.3511
   53DOPE  H11X 6814   6.284   6.894   3.819 -0.3191  0.3477 -0.0522
   53DOPE  H11Y 6815   6.269   7.029   3.940 -0.2567 -0.3489  1.9464
   53DOPE  C312 6816   6.235   6.832   4.026 -0.1343 -0.2796 -0.6274
   53DOPE  H12X 6817   6.204   6.730   3.994  0.1434 -0.7836  0.6425
   53DOPE  H12Y 6818   6.159   6.846   4.105  0.6642 -2.0939  0.5141
   53DOPE  C313 6819   6.374   6.821   4.092 -0.0540 -0.1620 -0.6612
   53DOPE  H13X 6820   6.450   6.784   4.020  0.2398 -1.5683  0.3394
   53DOPE  H13Y 6821   6.408   6.922   4.123  1.5200 -0.9207  0.2001
   53DOPE  C314 6822   6.377   6.724   4.215  0.5315 -0.2627  0.2227
   53DOPE  H14X 6823   6.317   6.638   4.178 -0.8110  0.1059  1.4150
   53DOPE  H14Y 6824   6.322   6.770   4.300  0.7785 -0.4300  0.4734
   53DOPE  C315 6825   6.508   6.667   4.273 -0.7170 -0.1228 -0.1513
   53DOPE  H15X 6826   6.493   6.582   4.343  1.2063 -2.1809 -2.0844
   53DOPE  H15Y 6827   6.566   6.747   4.325  0.7518 -2.1884  1.6028
   53DOPE  C316 6828   6.599   6.614   4.165 -0.4157  0.5827 -0.1529
   53DOPE  H16X 6829   6.649   6.693   4.105  0.6139  1.1376  1.3593
   53DOPE  H16Y 6830   6.531   6.558   4.097  0.4775 -1.0425  0.2209
   53DOPE  C317 6831   6.705   6.521   4.220 -1.3643 -0.1262 -0.5984
   53DOPE  H17X 6832   6.654   6.436   4.270  0.3508 -0.2842  1.0088
   53DOPE  H17Y 6833   6.760   6.491   4.128  0.9485 -0.2483  0.7332
   53DOPE  C318 6834   6.806   6.592   4.323  0.4933  0.3460  0.1457
   53DOPE  H18X 6835   6.895   6.528   4.337 -0.3391 -0.6522  1.0335
   53DOPE  H18Y 6836   6.834   6.696   4.296 -0.5966  0.7461  0.4813
   53DOPE  H18Z 6837   6.765   6.591   4.426  0.6311 -1.8880  0.2175
   54DOPE     N 6838   0.409   3.626   2.739  0.0904 -0.5895 -0.0722
   54DOPE   HN1 6839   0.451   3.559   2.806  0.0555  0.4527  1.0253
   54DOPE   HN2 6840   0.371   3.564   2.665  0.7207 -2.1369  0.8571
   54DOPE   HN3 6841   0.491   3.675   2.697 -0.9263  2.5065  1.2737
   54DOPE   C12 6842   0.315   3.721   2.803  0.2388 -0.2153  0.3901
   54DOPE  H12A 6843   0.359   3.823   2.793 -2.1220  0.9730  1.1122
   54DOPE  H12B 6844   0.306   3.686   2.908  0.9897 -2.0215 -0.1091
   54DOPE   C11 6845   0.183   3.727   2.730 -0.9150 -0.2353 -0.7435
   54DOPE  H11A 6846   0.190   3.739   2.620 -0.2124 -1.0668 -0.8085
   54DOPE  H11B 6847   0.144   3.823   2.768  1.4434  0.6965 -0.4945
   54DOPE     P 6848  -0.021   3.609   2.843  0.3194  0.1937 -0.2316
   54DOPE   O13 6849  -0.024   3.490   2.931 -0.1589 -0.3063  0.5307
   54DOPE   O14 6850  -0.128   3.620   2.741 -0.0636 -0.3633 -0.2515
   54DOPE   O11 6851  -0.031   3.734   2.938  0.6385 -0.4079  0.3459
   54DOPE   O12 6852   0.108   3.613   2.762  0.0103  0.0416  0.2951
   54DOPE    C1 6853   0.031   3.733   3.063  0.2096  0.1789 -0.2830
   54DOPE    HA 6854   0.098   3.648   3.085 -2.6161 -1.9026  0.8788
   54DOPE    HB 6855  -0.046   3.743   3.142  1.7598  2.4642  1.0300
   54DOPE    C2 6856   0.121   3.854   3.079  0.3562  0.1637 -0.2213
   54DOPE    HS 6857   0.198   3.860   2.999  0.2085  1.3019 -0.3010
   54DOPE   O21 6858   0.177   3.855   3.211 -0.1733 -0.2163  0.6120
   54DOPE   C21 6859   0.283   3.934   3.223 -1.1168 -0.0808 -0.1982
   54DOPE   O22 6860   0.351   3.989   3.137  0.3559  0.2680  0.3381
   54DOPE   C22 6861   0.323   3.942   3.371  0.3293 -0.4666 -0.6184
   54DOPE   H2R 6862   0.248   4.007   3.421 -0.5061 -1.4956 -0.4956
   54DOPE   H2S 6863   0.426   3.982   3.370  0.6401 -1.2393 -0.0762
   54DOPE    C3 6864   0.044   3.989   3.056 -0.5698 -0.1306  0.3347
   54DOPE    HX 6865   0.014   3.992   2.949  1.1835 -1.0339 -0.2377
   54DOPE    HY 6866   0.115   4.072   3.075 -0.1024 -0.4434 -0.0191
   54DOPE   O31 6867  -0.067   4.008   3.142 -0.1879  0.3596  0.3230
   54DOPE   C31 6868  -0.057   4.066   3.263 -0.7580 -0.4976  0.8462
   54DOPE   O32 6869   0.041   4.123   3.304 -0.4572 -0.3081 -0.6129
   54DOPE   C32 6870  -0.195   4.052   3.338 -0.4617  0.7898  0.5670
   54DOPE   H2X 6871  -0.196   4.100   3.439 -2.6645 -0.3294  1.1334
   54DOPE   H2Y 6872  -0.269   4.088   3.265  1.8868  1.1161 -1.8006
   54DOPE   C23 6873   0.312   3.806   3.450  0.5147 -0.2692 -0.0666
   54DOPE   H3R 6874   0.359   3.721   3.396  1.1856  0.9258 -1.4218
   54DOPE   H3S 6875   0.202   3.787   3.445  0.1263  1.5305  0.9590
   54DOPE   C24 6876   0.350   3.804   3.594  0.1061 -0.3114 -0.1524
   54DOPE   H4R 6877   0.293   3.717   3.634  0.2486 -2.0836 -3.4941
   54DOPE   H4S 6878   0.304   3.889   3.649  3.0033 -1.2166  4.1795
   54DOPE   C25 6879   0.495   3.827   3.625  0.3380 -0.6835 -0.3090
   54DOPE   H5R 6880   0.529   3.891   3.541 -1.2359 -0.0518 -0.4992
   54DOPE   H5S 6881   0.547   3.729   3.616  0.7951 -0.5350  0.5868
   54DOPE   C26 6882   0.531   3.901   3.758 -0.1868  0.5081  0.5439
   54DOPE   H6R 6883   0.455   3.874   3.834 -1.4207  3.5651  0.5659
   54DOPE   H6S 6884   0.512   4.007   3.732  1.8206  0.8246  0.1830
   54DOPE   C27 6885   0.671   3.865   3.810 -0.0646  0.0579 -0.1679
   54DOPE   H7R 6886   0.744   3.871   3.726 -0.4748  1.2960 -0.4500
   54DOPE   H7S 6887   0.657   3.761   3.846 -0.6955 -0.8347 -2.7646
   54DOPE   C28 6888   0.706   3.964   3.918 -0.1312  0.0926  0.5142
   54DOPE   H8R 6889   0.640   3.940   4.003 -0.8221  1.2266  0.3188
   54DOPE   H8S 6890   0.696   4.064   3.871  1.7586 -0.6974 -1.7567
   54DOPE   C29 6891   0.855   3.948   3.951  0.0031 -0.0975  0.5000
   54DOPE   H9R 6892   0.920   3.947   3.862  0.9606 -0.2780  1.1760
   54DOPE  C210 6893   0.912   3.933   4.074 -0.0841  0.3033 -0.3595
   54DOPE  H10R 6894   1.019   3.909   4.083 -0.1885 -0.0681 -0.0647
   54DOPE  C211 6895   0.859   3.926   4.213  0.3392  0.5217 -0.3318
   54DOPE  H11R 6896   0.881   3.831   4.267  0.7867 -0.5722 -2.3078
   54DOPE  H11S 6897   0.749   3.932   4.209  0.3921  1.0906 -1.1292
   54DOPE  C212 6898   0.896   4.050   4.291  0.2631  0.4231  0.0599
   54DOPE  H12R 6899   0.828   4.067   4.377 -0.5039 -4.0602  0.5653
   54DOPE  H12S 6900   0.886   4.142   4.229  2.2674  1.1090  0.6810
   54DOPE  C213 6901   1.035   4.049   4.361  0.6379 -0.1515  0.2229
   54DOPE  H13R 6902   1.123   4.060   4.295  0.9458  0.9063  0.7835
   54DOPE  H13S 6903   1.036   3.958   4.425  1.6265 -1.3846 -1.4596
   54DOPE  C214 6904   1.062   4.170   4.442 -0.1070  0.5494  0.5838
   54DOPE  H14R 6905   0.978   4.200   4.509 -2.0832  2.3366 -2.4631
   54DOPE  H14S 6906   1.068   4.251   4.366 -2.6350  0.4350  0.1774
   54DOPE  C215 6907   1.196   4.156   4.516  0.8158 -0.2753  0.1879
   54DOPE  H15R 6908   1.269   4.106   4.449 -0.5206 -1.5038 -0.4156
   54DOPE  H15S 6909   1.197   4.077   4.595 -0.0794 -1.5660 -1.0276
   54DOPE  C216 6910   1.256   4.287   4.560  0.9673 -0.0814  0.3190
   54DOPE  H16R 6911   1.189   4.342   4.630 -1.1421 -2.3256  0.2207
   54DOPE  H16S 6912   1.265   4.353   4.471  1.4874 -0.1541  0.3161
   54DOPE  C217 6913   1.400   4.288   4.609 -0.8459 -0.4963 -0.5134
   54DOPE  H17R 6914   1.410   4.214   4.692 -0.4910 -0.3781 -0.4495
   54DOPE  H17S 6915   1.408   4.391   4.650  2.7896 -1.3249  1.3345
   54DOPE  C218 6916   1.517   4.278   4.505  0.5284 -0.0520  0.2534
   54DOPE  H18R 6917   1.610   4.268   4.565  0.0997  0.5961  1.0462
   54DOPE  H18S 6918   1.523   4.372   4.447  1.0055  0.6984  1.4717
   54DOPE  H18T 6919   1.502   4.193   4.434  0.9459 -0.8098  1.0519
   54DOPE   C33 6920  -0.227   3.907   3.368 -0.7916  0.1131  0.2290
   54DOPE   H3X 6921  -0.229   3.850   3.272  0.0421  1.2873 -0.5116
   54DOPE   H3Y 6922  -0.326   3.895   3.418 -0.9594  0.7446  0.0581
   54DOPE   C34 6923  -0.130   3.838   3.465 -0.0513  0.3945 -0.6445
   54DOPE   H4X 6924  -0.143   3.728   3.464 -0.0104  0.3792 -1.9588
   54DOPE   H4Y 6925  -0.027   3.858   3.428 -0.0372  1.2887 -0.1547
   54DOPE   C35 6926  -0.137   3.883   3.612 -0.3802 -0.3579 -0.1056
   54DOPE   H5X 6927  -0.217   3.840   3.676 -0.2641 -1.9234 -0.9754
   54DOPE   H5Y 6928  -0.150   3.993   3.613 -1.7362 -0.3092 -4.3199
   54DOPE   C36 6929  -0.004   3.852   3.686  0.3155  0.6274 -0.0202
   54DOPE   H6X 6930   0.082   3.891   3.628  0.6987  0.3621  0.3672
   54DOPE   H6Y 6931  -0.002   3.741   3.694  1.1782  0.3751 -2.7252
   54DOPE   C37 6932  -0.006   3.903   3.828 -0.0803 -0.5137  0.1980
   54DOPE   H7X 6933  -0.030   4.011   3.837  0.9527 -0.0624 -1.8257
   54DOPE   H7Y 6934  -0.073   3.836   3.886  0.0323 -1.4329 -0.7088
   54DOPE   C38 6935   0.137   3.892   3.899 -0.1497 -0.4564 -0.8124
   54DOPE   H8X 6936   0.216   3.950   3.847 -0.2452  1.8812  1.4357
   54DOPE   H8Y 6937   0.166   3.785   3.900 -2.1914 -1.0616  0.3737
   54DOPE   C39 6938   0.122   3.933   4.046  1.3715 -0.1402 -0.1355
   54DOPE   H9X 6939   0.038   4.001   4.060  1.7655  0.9061 -2.4950
   54DOPE  C310 6940   0.211   3.904   4.145 -0.1146 -0.2247 -0.0099
   54DOPE  H10X 6941   0.189   3.937   4.248  3.3189  2.0937  0.1619
   54DOPE  C311 6942   0.342   3.824   4.140  0.6592 -0.0516 -0.0688
   54DOPE  H11X 6943   0.319   3.727   4.092  0.8838 -0.7182  1.1157
   54DOPE  H11Y 6944   0.414   3.885   4.080 -1.2407  0.7711 -1.6195
   54DOPE  C312 6945   0.395   3.799   4.278 -0.0598  0.2697 -0.2338
   54DOPE  H12X 6946   0.465   3.713   4.276 -1.8483 -1.2507 -0.3737
   54DOPE  H12Y 6947   0.315   3.758   4.342 -1.2966  1.4980 -0.9179
   54DOPE  C313 6948   0.452   3.920   4.352  0.3125  0.3431  0.5545
   54DOPE  H13X 6949   0.544   3.957   4.302 -0.0511 -0.6068 -0.8853
   54DOPE  H13Y 6950   0.384   4.006   4.339 -2.7444 -2.1352 -1.2540
   54DOPE  C314 6951   0.476   3.899   4.504 -1.0038 -0.1255 -0.4555
   54DOPE  H14X 6952   0.388   3.850   4.551  0.9172 -2.8994  0.4974
   54DOPE  H14Y 6953   0.489   4.004   4.537 -0.6159 -0.8547  1.8854
   54DOPE  C315 6954   0.607   3.819   4.527  0.6593  0.3861 -0.2063
   54DOPE  H15X 6955   0.682   3.859   4.456  0.5957  1.2431  0.1912
   54DOPE  H15Y 6956   0.575   3.717   4.499 -0.4736  1.0130 -1.2717
   54DOPE  C316 6957   0.657   3.834   4.669  0.3271  0.0330 -1.3060
   54DOPE  H16X 6958   0.589   3.782   4.739  2.9757 -2.4806 -0.3675
   54DOPE  H16Y 6959   0.653   3.943   4.691 -0.3765 -0.3053  0.3903
   54DOPE  C317 6960   0.793   3.769   4.703 -0.6029  0.7491 -0.0277
   54DOPE  H17X 6961   0.816   3.788   4.810 -2.4368  3.0290  0.0353
   54DOPE  H17Y 6962   0.791   3.661   4.677  0.2724  0.1802  2.0735
   54DOPE  C318 6963   0.904   3.829   4.616  0.8709  0.2906 -0.2094
   54DOPE  H18X 6964   0.892   3.782   4.515 -3.4067 -0.4600  0.4675
   54DOPE  H18Y 6965   0.887   3.936   4.591  0.4078 -0.2681 -2.5298
   54DOPE  H18Z 6966   1.005   3.816   4.661  1.4997  1.2574 -1.2852
   55DOPE     N 6967   0.908   6.037   2.675 -0.8819 -0.0235  0.0581
   55DOPE   HN1 6968   0.974   6.045   2.756 -2.2379 -1.7895  1.4003
   55DOPE   HN2 6969   0.815   6.074   2.704 -0.8886  0.3749 -0.4638
   55DOPE   HN3 6970   0.896   5.935   2.659  0.8389 -0.0770 -1.1690
   55DOPE   C12 6971   0.960   6.095   2.543  0.2068 -0.3577 -0.1438
   55DOPE  H12A 6972   0.937   6.204   2.545  0.7452 -0.1874 -1.8632
   55DOPE  H12B 6973   0.902   6.043   2.464  1.0880 -0.4108 -0.7645
   55DOPE   C11 6974   1.116   6.071   2.520  0.2810 -0.8756  0.1708
   55DOPE  H11A 6975   1.178   6.100   2.607 -0.6139  0.8189  0.2786
   55DOPE  H11B 6976   1.150   6.139   2.439 -0.5457 -1.6887 -0.8932
   55DOPE     P 6977   1.274   5.860   2.506  0.4240 -0.0451  0.1529
   55DOPE   O13 6978   1.345   5.916   2.392 -0.8297 -0.3735  0.5462
   55DOPE   O14 6979   1.247   5.711   2.506 -0.1728 -0.4760 -0.0618
   55DOPE   O11 6980   1.341   5.908   2.634  0.2831 -0.4504  0.2701
   55DOPE   O12 6981   1.134   5.932   2.495  0.3447 -0.0944  0.5111
   55DOPE    C1 6982   1.285   5.921   2.765 -0.3539  0.2671  0.4925
   55DOPE    HA 6983   1.174   5.920   2.759 -0.6324  0.4043  3.6960
   55DOPE    HB 6984   1.313   6.017   2.812 -0.1033 -0.2776  1.4828
   55DOPE    C2 6985   1.325   5.810   2.862  0.2755  0.4405  0.1496
   55DOPE    HS 6986   1.288   5.709   2.832 -0.0664  0.9461 -1.1669
   55DOPE   O21 6987   1.282   5.845   2.998  0.6432 -0.8349  0.2367
   55DOPE   C21 6988   1.145   5.831   3.017  0.3425  0.5004 -0.7173
   55DOPE   O22 6989   1.072   5.783   2.934 -0.2476  0.2252 -0.5734
   55DOPE   C22 6990   1.111   5.879   3.152  0.2120  0.0882 -0.6994
   55DOPE   H2R 6991   1.100   5.989   3.157  0.8451  0.1409 -0.1166
   55DOPE   H2S 6992   1.176   5.825   3.225  1.7516  1.0863 -1.2765
   55DOPE    C3 6993   1.478   5.791   2.864 -0.3430  0.6241  0.4914
   55DOPE    HX 6994   1.506   5.741   2.769  0.1103 -0.1579  1.0236
   55DOPE    HY 6995   1.489   5.706   2.934  0.0087 -0.9900 -1.4245
   55DOPE   O31 6996   1.555   5.907   2.894 -0.4252  0.1983  0.7843
   55DOPE   C31 6997   1.684   5.875   2.928 -0.0616  0.2594 -0.4365
   55DOPE   O32 6998   1.730   5.762   2.926  0.9085 -0.2975 -0.2746
   55DOPE   C32 6999   1.760   6.004   2.944  0.3024 -0.1700 -0.6819
   55DOPE   H2X 7000   1.809   6.021   2.846  0.7031 -0.8038 -0.6002
   55DOPE   H2Y 7001   1.684   6.078   2.976 -1.0093 -0.5896 -2.6646
   55DOPE   C23 7002   0.975   5.820   3.188 -0.8108  0.3328  0.1191
   55DOPE   H3R 7003   0.980   5.710   3.198  0.8851  0.2547 -1.2085
   55DOPE   H3S 7004   0.897   5.838   3.111  0.4810  0.5017 -1.1886
   55DOPE   C24 7005   0.917   5.883   3.315 -0.2451  0.7077 -0.2371
   55DOPE   H4R 7006   0.833   5.822   3.355  0.1113  1.2463  1.4367
   55DOPE   H4S 7007   0.886   5.987   3.294 -0.5514  0.3999 -1.3429
   55DOPE   C25 7008   1.015   5.893   3.432 -0.0159  0.0633 -0.0024
   55DOPE   H5R 7009   1.108   5.944   3.398  1.4691 -3.1383 -1.1651
   55DOPE   H5S 7010   1.035   5.789   3.466 -0.5412  0.5754  1.9852
   55DOPE   C26 7011   0.941   5.968   3.547  0.4836 -0.0363  0.5409
   55DOPE   H6R 7012   0.844   5.915   3.565  1.2141 -2.2705 -1.4717
   55DOPE   H6S 7013   0.912   6.067   3.507 -1.2426 -0.7625 -0.1433
   55DOPE   C27 7014   1.027   5.995   3.671 -1.0559  0.5482  0.4072
   55DOPE   H7R 7015   1.111   6.056   3.631 -0.9474 -0.5737 -1.2015
   55DOPE   H7S 7016   1.057   5.896   3.713  1.0448  0.6048 -0.7935
   55DOPE   C28 7017   0.951   6.071   3.780  0.3152 -0.1382  0.1013
   55DOPE   H8R 7018   0.850   6.024   3.788  0.4627 -0.8212 -1.6419
   55DOPE   H8S 7019   0.932   6.171   3.736 -1.3303 -0.7685 -0.7286
   55DOPE   C29 7020   1.022   6.077   3.918 -0.2375  0.8689 -0.5215
   55DOPE   H9R 7021   1.025   5.981   3.970  1.0521  1.3593  0.3607
   55DOPE  C210 7022   1.096   6.177   3.961  0.1381 -0.0690 -0.0606
   55DOPE  H10R 7023   1.151   6.162   4.055  0.6875 -1.1255 -0.5391
   55DOPE  C211 7024   1.138   6.302   3.887  0.4450  0.2732  0.1668
   55DOPE  H11R 7025   1.129   6.294   3.776 -0.7603  0.0400  0.2618
   55DOPE  H11S 7026   1.246   6.312   3.908  1.0319 -2.1002 -1.2789
   55DOPE  C212 7027   1.061   6.430   3.914  0.2418 -0.5925 -0.4552
   55DOPE  H12R 7028   0.961   6.408   3.871 -0.4629 -0.7608  1.2240
   55DOPE  H12S 7029   1.115   6.509   3.857 -1.6878 -1.1079 -3.1925
   55DOPE  C213 7030   1.045   6.466   4.062  0.0010  0.1627 -0.1387
   55DOPE  H13R 7031   0.997   6.384   4.120 -0.0177  0.8878  0.8827
   55DOPE  H13S 7032   0.981   6.557   4.061  0.5855  0.5777 -0.4789
   55DOPE  C214 7033   1.168   6.505   4.135  0.5206 -0.5080 -1.0228
   55DOPE  H14R 7034   1.221   6.594   4.094 -1.8817  2.6144  2.0777
   55DOPE  H14S 7035   1.239   6.420   4.147  0.7128 -0.4191 -1.4793
   55DOPE  C215 7036   1.135   6.558   4.275  0.7211 -0.1383  0.2843
   55DOPE  H15R 7037   1.224   6.576   4.339  0.6979  0.5477  0.1308
   55DOPE  H15S 7038   1.074   6.480   4.326  1.8859  0.0540  2.0593
   55DOPE  C216 7039   1.058   6.691   4.262 -0.1451 -0.7088 -0.5745
   55DOPE  H16R 7040   0.950   6.668   4.253  0.1711 -2.3895 -0.5370
   55DOPE  H16S 7041   1.097   6.734   4.167  1.4284 -1.1999 -0.1793
   55DOPE  C217 7042   1.080   6.781   4.384 -0.0291 -0.3931 -0.3323
   55DOPE  H17R 7043   1.006   6.863   4.372  0.7489  0.7805  2.2002
   55DOPE  H17S 7044   1.182   6.824   4.380  0.2549 -0.9315  0.6898
   55DOPE  C218 7045   1.064   6.721   4.525  0.4590 -0.8902  0.1085
   55DOPE  H18R 7046   1.066   6.806   4.596  1.0368 -0.3798 -0.5025
   55DOPE  H18S 7047   1.146   6.649   4.542  0.2164 -1.2719 -0.2864
   55DOPE  H18T 7048   0.963   6.676   4.539  0.6120 -0.6345  2.2888
   55DOPE   C33 7049   1.870   5.992   3.050 -0.2456  0.1134  0.0553
   55DOPE   H3X 7050   1.964   5.938   3.028  0.6428  1.0267  1.4396
   55DOPE   H3Y 7051   1.833   5.958   3.149  2.6681 -0.9202  0.9034
   55DOPE   C34 7052   1.924   6.134   3.091 -1.0512 -0.2580  0.3332
   55DOPE   H4X 7053   2.014   6.115   3.152  1.6369 -1.6925 -3.6764
   55DOPE   H4Y 7054   1.953   6.191   3.000 -3.3703  0.3637 -0.0877
   55DOPE   C35 7055   1.828   6.228   3.170  0.7486 -0.3837  0.8862
   55DOPE   H5X 7056   1.777   6.181   3.257  1.6746  0.9118  2.1828
   55DOPE   H5Y 7057   1.749   6.275   3.108  1.7488  1.8428  1.2225
   55DOPE   C36 7058   1.905   6.347   3.229  0.5641  0.2528 -0.0700
   55DOPE   H6X 7059   1.939   6.399   3.137 -0.9744 -2.3630 -2.2626
   55DOPE   H6Y 7060   1.989   6.303   3.288 -1.2812 -2.7327  0.5445
   55DOPE   C37 7061   1.816   6.438   3.318  0.1727  0.9087  0.3558
   55DOPE   H7X 7062   1.783   6.397   3.415  1.1265  0.7826  0.6404
   55DOPE   H7Y 7063   1.887   6.521   3.339  1.7658 -0.4779  0.7121
   55DOPE   C38 7064   1.684   6.496   3.255 -0.6547 -0.0749  0.0517
   55DOPE   H8X 7065   1.610   6.418   3.225 -1.3924  0.8451 -0.6037
   55DOPE   H8Y 7066   1.707   6.553   3.162  0.1875 -0.3587  0.0781
   55DOPE   C39 7067   1.615   6.597   3.352  0.2528  0.1108 -0.0164
   55DOPE   H9X 7068   1.536   6.566   3.423  1.8508  0.9591  2.2824
   55DOPE  C310 7069   1.635   6.726   3.362 -0.4563  0.0131 -0.7281
   55DOPE  H10X 7070   1.576   6.791   3.428 -1.2697  2.1588 -3.3877
   55DOPE  C311 7071   1.743   6.795   3.290 -0.8582 -0.2282  0.5177
   55DOPE  H11X 7072   1.807   6.722   3.237 -1.2915  0.1056 -0.4845
   55DOPE  H11Y 7073   1.689   6.864   3.222  1.5008  1.4794  0.2750
   55DOPE  C312 7074   1.833   6.884   3.385  0.5759  0.2729  0.6474
   55DOPE  H12X 7075   1.772   6.972   3.414 -3.2387 -1.8740 -0.0551
   55DOPE  H12Y 7076   1.923   6.916   3.329  2.3398 -0.7998  2.6854
   55DOPE  C313 7077   1.886   6.800   3.504  0.1781  0.1874  0.1482
   55DOPE  H13X 7078   1.852   6.694   3.499  0.6351 -0.0512  1.4392
   55DOPE  H13Y 7079   1.995   6.790   3.485  0.4568  2.7530  0.0873
   55DOPE  C314 7080   1.879   6.874   3.637 -0.4336 -0.2532  0.1947
   55DOPE  H14X 7081   1.773   6.905   3.653 -0.2711 -0.2581  1.3401
   55DOPE  H14Y 7082   1.947   6.961   3.640  0.5787 -0.9127 -1.7354
   55DOPE  C315 7083   1.919   6.774   3.755  0.6017 -0.8267  0.9463
   55DOPE  H15X 7084   2.019   6.736   3.722 -0.0260 -0.1647 -2.0240
   55DOPE  H15Y 7085   1.852   6.687   3.767 -2.0651  0.9547 -0.1436
   55DOPE  C316 7086   1.919   6.843   3.890 -0.2338 -0.6036  0.2076
   55DOPE  H16X 7087   1.943   6.770   3.971 -0.2228 -0.2560  0.5209
   55DOPE  H16Y 7088   1.815   6.877   3.908 -0.0896  0.2789 -0.5680
   55DOPE  C317 7089   2.011   6.960   3.901  0.9097  0.6307  0.0478
   55DOPE  H17X 7090   2.107   6.948   3.847  1.0222 -1.7587  0.6465
   55DOPE  H17Y 7091   1.955   7.046   3.859 -0.6263 -0.3346  0.0347
   55DOPE  C318 7092   2.037   6.977   4.051 -0.0982 -0.3507 -0.0817
   55DOPE  H18X 7093   1.939   6.988   4.103  0.3242  0.4993  0.5398
   55DOPE  H18Y 7094   2.098   6.893   4.090 -0.5833 -0.1442  1.1888
   55DOPE  H18Z 7095   2.100   7.068   4.055 -0.9002  0.5259 -3.6833
   56DOPE     N 7096   1.198   6.559   2.418 -0.7825  0.1093 -0.1671
   56DOPE   HN1 7097   1.230   6.503   2.500 -0.8770  1.2630  0.6719
   56DOPE   HN2 7098   1.135   6.631   2.458  0.1308  1.4767 -1.0910
   56DOPE   HN3 7099   1.149   6.502   2.346 -1.3019  1.7867 -1.1835
   56DOPE   C12 7100   1.308   6.645   2.365 -0.3723  0.1406  0.3856
   56DOPE  H12A 7101   1.287   6.676   2.261 -2.5573  1.3409  1.1250
   56DOPE  H12B 7102   1.402   6.586   2.363 -1.0943 -1.0245 -0.0409
   56DOPE   C11 7103   1.338   6.761   2.467  0.2914  0.6112  0.2929
   56DOPE  H11A 7104   1.243   6.819   2.466 -0.4072 -0.4339 -2.2379
   56DOPE  H11B 7105   1.415   6.830   2.426  0.3175  1.1818  1.2485
   56DOPE     P 7106   1.517   6.684   2.638 -0.5457  0.0725 -0.2385
   56DOPE   O13 7107   1.613   6.724   2.538  0.0147 -0.4916  0.1772
   56DOPE   O14 7108   1.527   6.538   2.673 -0.5274  0.2811  0.3185
   56DOPE   O11 7109   1.522   6.780   2.767  0.2223  0.4150  0.3114
   56DOPE   O12 7110   1.367   6.711   2.600  0.6005  0.0794 -0.0596
   56DOPE    C1 7111   1.493   6.723   2.896  0.1268 -0.2199  0.0615
   56DOPE    HA 7112   1.539   6.788   2.973  1.5827 -1.1364  0.0066
   56DOPE    HB 7113   1.550   6.630   2.918  0.6166 -0.1049 -0.6715
   56DOPE    C2 7114   1.344   6.696   2.928  0.2543  0.3413  0.1022
   56DOPE    HS 7115   1.294   6.641   2.845  0.7662  0.8430 -0.5434
   56DOPE   O21 7116   1.282   6.820   2.946  0.1409 -0.8593 -0.3869
   56DOPE   C21 7117   1.152   6.825   2.954  0.3770  0.2292  0.3034
   56DOPE   O22 7118   1.080   6.738   2.915  0.2596 -0.3267  0.2057
   56DOPE   C22 7119   1.100   6.961   2.993 -0.7475 -0.6307 -0.0608
   56DOPE   H2R 7120   1.039   6.989   2.905  0.8742  1.3168 -0.6308
   56DOPE   H2S 7121   1.177   7.041   3.000 -1.4968  0.1671 -0.8881
   56DOPE    C3 7122   1.328   6.603   3.062 -0.2882  0.2572 -0.5514
   56DOPE    HX 7123   1.221   6.577   3.081  0.3458 -1.7630  0.5060
   56DOPE    HY 7124   1.349   6.668   3.150 -0.9375  0.9787 -0.9169
   56DOPE   O31 7125   1.409   6.485   3.064 -0.8205 -0.0420  0.6562
   56DOPE   C31 7126   1.372   6.389   2.989 -0.1054 -0.3721 -0.3401
   56DOPE   O32 7127   1.275   6.376   2.914 -0.8824 -0.2506 -0.1981
   56DOPE   C32 7128   1.474   6.277   3.011  0.0532  0.2295  0.0622
   56DOPE   H2X 7129   1.487   6.231   2.910  0.1538 -0.5152  0.4103
   56DOPE   H2Y 7130   1.572   6.321   3.040  0.7103  0.1800 -1.9173
   56DOPE   C23 7131   1.028   6.961   3.126 -0.1083 -0.0861 -0.1194
   56DOPE   H3R 7132   0.951   6.881   3.119  0.6044 -1.0112  1.8307
   56DOPE   H3S 7133   0.961   7.049   3.128  2.3034  1.9274 -1.8616
   56DOPE   C24 7134   1.112   6.960   3.257  0.0359  0.2564  0.0811
   56DOPE   H4R 7135   1.156   6.860   3.275  0.0742 -0.0731 -1.6679
   56DOPE   H4S 7136   1.041   6.980   3.340  0.3971  0.4371  0.3467
   56DOPE   C25 7137   1.221   7.066   3.253  0.3121  0.6584  0.1716
   56DOPE   H5R 7138   1.192   7.163   3.209 -0.3175  0.4095  0.0242
   56DOPE   H5S 7139   1.318   7.027   3.216 -0.1553 -0.9389  0.5147
   56DOPE   C26 7140   1.260   7.099   3.402  0.1257  0.6863 -0.2404
   56DOPE   H6R 7141   1.310   7.010   3.446 -1.4178 -0.0522  0.1024
   56DOPE   H6S 7142   1.166   7.111   3.460  0.1021  1.3603 -0.4147
   56DOPE   C27 7143   1.353   7.219   3.410 -0.9237  0.7510  0.2185
   56DOPE   H7R 7144   1.297   7.314   3.397 -0.3867  1.1275  0.6124
   56DOPE   H7S 7145   1.421   7.213   3.322  1.1014  2.5893  1.5640
   56DOPE   C28 7146   1.429   7.226   3.541 -0.0257 -0.8159 -0.3429
   56DOPE   H8R 7147   1.478   7.129   3.561 -0.6314 -0.7405  1.7621
   56DOPE   H8S 7148   1.359   7.256   3.623 -0.5053 -0.8733 -0.7307
   56DOPE   C29 7149   1.534   7.332   3.532  0.6102 -0.3974 -0.3660
   56DOPE   H9R 7150   1.525   7.396   3.443 -3.5634  0.0682  0.2087
   56DOPE  C210 7151   1.639   7.345   3.615  0.1452 -0.8981 -0.1928
   56DOPE  H10R 7152   1.715   7.423   3.600  1.6662 -2.3169 -0.2562
   56DOPE  C211 7153   1.673   7.266   3.737  0.3965  0.0264 -0.2251
   56DOPE  H11R 7154   1.782   7.264   3.753  0.7394  3.0953 -1.5082
   56DOPE  H11S 7155   1.645   7.159   3.728 -0.0706  0.1958 -0.8594
   56DOPE  C212 7156   1.618   7.328   3.871 -0.4115  0.1450  0.1738
   56DOPE  H12R 7157   1.508   7.310   3.871 -0.6162  1.3546 -0.1204
   56DOPE  H12S 7158   1.639   7.437   3.871 -0.2421  0.1158 -0.1415
   56DOPE  C213 7159   1.673   7.277   4.003 -0.2964  0.0597 -0.1101
   56DOPE  H13R 7160   1.781   7.302   4.010 -0.0386 -0.5321 -1.5149
   56DOPE  H13S 7161   1.670   7.166   4.008  1.2487 -0.0935 -1.5673
   56DOPE  C214 7162   1.620   7.345   4.128  0.1721 -0.2947 -0.0452
   56DOPE  H14R 7163   1.510   7.358   4.125  0.3610  1.6406  0.2670
   56DOPE  H14S 7164   1.665   7.446   4.139 -0.7773  0.2632 -1.0572
   56DOPE  C215 7165   1.646   7.262   4.263 -0.0982  0.2140  0.4777
   56DOPE  H15R 7166   1.751   7.283   4.291  0.0559  2.0978 -1.2484
   56DOPE  H15S 7167   1.628   7.153   4.248  1.7928  0.0191 -0.5985
   56DOPE  C216 7168   1.555   7.304   4.376 -0.0605 -0.2644  0.0537
   56DOPE  H16R 7169   1.585   7.255   4.472 -3.1570 -0.3024  1.1143
   56DOPE  H16S 7170   1.451   7.269   4.362 -0.0286 -0.8778  1.1783
   56DOPE  C217 7171   1.557   7.451   4.404  0.2848 -0.1380 -0.7126
   56DOPE  H17R 7172   1.506   7.509   4.324  1.8111  1.9721 -0.2512
   56DOPE  H17S 7173   1.662   7.485   4.392  0.0246  0.7615 -0.5318
   56DOPE  C218 7174   1.501   7.499   4.539 -0.4571  0.3613 -0.0523
   56DOPE  H18R 7175   1.391   7.489   4.535 -0.3592 -0.5301 -0.8713
   56DOPE  H18S 7176   1.530   7.606   4.544  0.3916  0.2958 -2.4435
   56DOPE  H18T 7177   1.547   7.450   4.628 -1.4026  0.2800  0.4104
   56DOPE   C33 7178   1.431   6.168   3.113  0.5609  0.4353  0.6025
   56DOPE   H3X 7179   1.506   6.086   3.109  1.3461  1.0319  2.0348
   56DOPE   H3Y 7180   1.334   6.124   3.081 -1.0543  4.0511  0.1020
   56DOPE   C34 7181   1.418   6.227   3.252  0.4828  0.4317 -0.0124
   56DOPE   H4X 7182   1.521   6.253   3.284  0.3944 -0.2897  0.9136
   56DOPE   H4Y 7183   1.357   6.319   3.254 -0.2185  0.0309 -1.4173
   56DOPE   C35 7184   1.364   6.126   3.354 -0.8194 -0.1471 -0.1877
   56DOPE   H5X 7185   1.366   6.027   3.304 -1.0446 -0.9052  1.2422
   56DOPE   H5Y 7186   1.259   6.140   3.387 -1.3160 -0.4257 -1.5873
   56DOPE   C36 7187   1.441   6.121   3.487 -0.5649  0.3940  0.9648
   56DOPE   H6X 7188   1.545   6.095   3.458  0.0618  2.9994  0.6452
   56DOPE   H6Y 7189   1.405   6.038   3.552 -0.9198 -2.2711 -2.3677
   56DOPE   C37 7190   1.436   6.253   3.568  0.4511 -1.3846  0.5308
   56DOPE   H7X 7191   1.464   6.328   3.491  0.8767 -1.4835  0.5811
   56DOPE   H7Y 7192   1.334   6.276   3.604  0.0654 -0.9750 -0.7993
   56DOPE   C38 7193   1.533   6.239   3.690 -0.0911  0.4255  0.1017
   56DOPE   H8X 7194   1.632   6.214   3.646  0.1277  0.2462  0.6928
   56DOPE   H8Y 7195   1.503   6.155   3.757  1.8899 -0.5738 -0.1731
   56DOPE   C39 7196   1.540   6.371   3.764 -0.1517 -0.2146 -0.0968
   56DOPE   H9X 7197   1.537   6.458   3.697  1.8513 -0.1215 -0.1430
   56DOPE  C310 7198   1.534   6.388   3.896  0.1650  0.0654 -0.4903
   56DOPE  H10X 7199   1.507   6.487   3.936  1.0534  0.6173 -1.2168
   56DOPE  C311 7200   1.535   6.284   4.008  0.0746  0.2726  0.6612
   56DOPE  H11X 7201   1.435   6.252   4.044 -0.0539  1.3503  1.3118
   56DOPE  H11Y 7202   1.591   6.199   3.964  1.2946  1.4095 -0.0611
   56DOPE  C312 7203   1.619   6.339   4.128  0.2020  0.5115 -0.3407
   56DOPE  H12X 7204   1.725   6.371   4.114  0.7224 -0.8474  0.3691
   56DOPE  H12Y 7205   1.613   6.261   4.207  0.4944  0.7903 -0.0398
   56DOPE  C313 7206   1.550   6.461   4.196  0.1403  0.0444 -0.7267
   56DOPE  H13X 7207   1.521   6.536   4.119 -0.5983  0.6015  0.0803
   56DOPE  H13Y 7208   1.455   6.439   4.248  1.0892  0.3735  1.2545
   56DOPE  C314 7209   1.651   6.518   4.296 -0.2188 -0.2994 -0.6836
   56DOPE  H14X 7210   1.724   6.440   4.330  1.5780  1.4111 -0.4371
   56DOPE  H14Y 7211   1.595   6.548   4.387 -0.7343  2.1618 -1.7510
   56DOPE  C315 7212   1.734   6.642   4.248  0.0764 -0.3109  0.6959
   56DOPE  H15X 7213   1.665   6.725   4.220 -0.0409 -0.9849 -1.1154
   56DOPE  H15Y 7214   1.800   6.619   4.162 -2.3529  0.6791 -1.5825
   56DOPE  C316 7215   1.811   6.704   4.357  0.1348  0.0779  0.5959
   56DOPE  H16X 7216   1.900   6.640   4.379  1.2478  1.6837  0.9833
   56DOPE  H16Y 7217   1.752   6.711   4.451  1.1429  0.1969  1.2411
   56DOPE  C317 7218   1.868   6.842   4.326  0.0271 -0.3351 -0.3209
   56DOPE  H17X 7219   1.957   6.833   4.260  3.0192  0.9917  3.1817
   56DOPE  H17Y 7220   1.800   6.912   4.272  0.4820 -1.5082 -2.5482
   56DOPE  C318 7221   1.921   6.918   4.449  0.5685 -0.1617 -0.7800
   56DOPE  H18X 7222   1.938   7.025   4.425  1.1418  0.4562  1.9431
   56DOPE  H18Y 7223   1.851   6.907   4.535 -3.2426  3.1179 -3.1367
   56DOPE  H18Z 7224   2.019   6.896   4.497  0.0665  2.6498  1.8944
   57DOPE     N 7225   1.362   2.965   2.835 -0.5577  0.7536  0.5208
   57DOPE   HN1 7226   1.405   3.060   2.841  0.5498  0.3358 -0.2564
   57DOPE   HN2 7227   1.267   2.977   2.794  0.6160 -0.3913 -2.9313
   57DOPE   HN3 7228   1.354   2.936   2.934  0.2839 -0.3924  0.2769
   57DOPE   C12 7229   1.450   2.861   2.760 -0.0716 -0.0019  0.0965
   57DOPE  H12A 7230   1.524   2.826   2.835  0.2268  0.7218  0.1495
   57DOPE  H12B 7231   1.507   2.914   2.681  0.8549  0.4163  1.0078
   57DOPE   C11 7232   1.376   2.738   2.706  0.2714 -0.7591  0.1586
   57DOPE  H11A 7233   1.361   2.668   2.791 -1.0877  0.1214  0.6828
   57DOPE  H11B 7234   1.441   2.690   2.630  1.8328  0.1380  0.8740
   57DOPE     P 7235   1.178   2.695   2.541  0.5689 -0.6307  0.3113
   57DOPE   O13 7236   1.280   2.657   2.444 -0.5848  0.1451  0.5368
   57DOPE   O14 7237   1.075   2.777   2.477  0.1407 -0.1397  1.2485
   57DOPE   O11 7238   1.126   2.572   2.615  0.4231  0.2225 -0.1593
   57DOPE   O12 7239   1.246   2.777   2.658 -0.2074 -0.4263 -0.1191
   57DOPE    C1 7240   1.010   2.602   2.699  0.2791 -0.6319  0.2585
   57DOPE    HA 7241   0.941   2.515   2.700 -0.3841 -0.1097  0.5893
   57DOPE    HB 7242   0.946   2.685   2.662  1.3423 -0.2054 -0.7074
   57DOPE    C2 7243   1.046   2.625   2.840 -0.8473  0.1481 -0.7113
   57DOPE    HS 7244   1.101   2.720   2.855 -0.4854  0.0907 -1.6265
   57DOPE   O21 7245   1.114   2.497   2.882  0.1706 -0.0573 -0.4502
   57DOPE   C21 7246   1.198   2.510   2.992 -0.3952  0.7390 -0.2106
   57DOPE   O22 7247   1.229   2.614   3.046 -0.5089 -0.0468 -0.6741
   57DOPE   C22 7248   1.261   2.373   3.029 -0.2359  0.0441  0.5596
   57DOPE   H2R 7249   1.342   2.412   3.094  0.1281 -0.3763  0.3557
   57DOPE   H2S 7250   1.281   2.316   2.936 -2.5736 -0.4248  0.2826
   57DOPE    C3 7251   0.905   2.644   2.916 -0.3984  0.0900 -0.1400
   57DOPE    HX 7252   0.834   2.562   2.892 -2.6562  1.3841  1.6472
   57DOPE    HY 7253   0.872   2.744   2.880  1.5038  1.1624  0.9166
   57DOPE   O31 7254   0.924   2.644   3.060  0.6824 -0.1062 -0.2871
   57DOPE   C31 7255   0.967   2.764   3.101  0.1398 -0.5961 -0.5940
   57DOPE   O32 7256   0.969   2.867   3.033  0.8343 -0.2289  0.6109
   57DOPE   C32 7257   1.003   2.760   3.249 -0.1051 -0.0491  0.2885
   57DOPE   H2X 7258   0.911   2.734   3.305 -0.8733 -1.3842 -1.4755
   57DOPE   H2Y 7259   1.071   2.679   3.284  0.3893  1.0250  1.9359
   57DOPE   C23 7260   1.160   2.298   3.115  0.6810  0.0764  0.7409
   57DOPE   H3R 7261   1.213   2.201   3.128 -1.1651 -1.1194 -0.1480
   57DOPE   H3S 7262   1.065   2.272   3.062 -0.4922  0.4578  2.5584
   57DOPE   C24 7263   1.113   2.361   3.246  0.2352  0.6091 -0.1191
   57DOPE   H4R 7264   1.062   2.283   3.306 -2.4759  0.3237 -2.5373
   57DOPE   H4S 7265   1.051   2.449   3.216  0.8449  1.0830 -0.0204
   57DOPE   C25 7266   1.229   2.419   3.328  0.4833 -0.1730  0.0324
   57DOPE   H5R 7267   1.265   2.511   3.277  0.1250 -0.7402 -1.2868
   57DOPE   H5S 7268   1.318   2.353   3.330 -0.8753 -2.0363  0.7443
   57DOPE   C26 7269   1.197   2.464   3.471 -0.1708  0.7763 -0.2493
   57DOPE   H6R 7270   1.155   2.380   3.529 -0.2777  0.9915 -0.0114
   57DOPE   H6S 7271   1.114   2.538   3.476 -0.8455  0.1322 -1.4320
   57DOPE   C27 7272   1.320   2.514   3.547  0.1562  0.5758 -0.2360
   57DOPE   H7R 7273   1.348   2.609   3.496  2.1613  0.0526 -0.1830
   57DOPE   H7S 7274   1.406   2.446   3.535  0.4408  1.0965 -1.2189
   57DOPE   C28 7275   1.283   2.541   3.694 -0.6378  0.0164  0.2619
   57DOPE   H8R 7276   1.271   2.444   3.747 -1.7168  0.0516  0.0905
   57DOPE   H8S 7277   1.183   2.589   3.702 -1.0922 -0.5524 -1.5741
   57DOPE   C29 7278   1.395   2.617   3.761 -0.3736  0.7216 -0.2758
   57DOPE   H9R 7279   1.475   2.643   3.691 -0.1842 -0.7320 -0.6284
   57DOPE  C210 7280   1.410   2.639   3.892  0.0366 -0.2036  0.3619
   57DOPE  H10R 7281   1.499   2.696   3.923 -0.2443  0.5611 -0.2108
   57DOPE  C211 7282   1.326   2.593   4.008 -0.1292  0.1634  0.4212
   57DOPE  H11R 7283   1.348   2.487   4.029  1.1333  0.0089 -1.4658
   57DOPE  H11S 7284   1.220   2.584   3.974 -0.2719 -0.6546  1.0467
   57DOPE  C212 7285   1.336   2.677   4.139  0.4649  0.1287  0.0922
   57DOPE  H12R 7286   1.266   2.764   4.133 -2.9172 -2.3943 -0.0499
   57DOPE  H12S 7287   1.441   2.712   4.148  0.3683  0.7399 -0.9457
   57DOPE  C213 7288   1.276   2.590   4.249 -0.2863  0.4539 -0.3718
   57DOPE  H13R 7289   1.323   2.491   4.270 -3.6397 -1.1421  0.3351
   57DOPE  H13S 7290   1.176   2.561   4.209 -0.7721 -1.1644  1.8057
   57DOPE  C214 7291   1.264   2.657   4.387  0.0284  1.0859 -0.0523
   57DOPE  H14R 7292   1.224   2.760   4.376 -0.5441  0.6449 -2.7427
   57DOPE  H14S 7293   1.361   2.656   4.440  1.1519  0.8307 -2.0277
   57DOPE  C215 7294   1.162   2.580   4.473 -0.0549  0.3474 -0.5301
   57DOPE  H15R 7295   1.206   2.478   4.478 -0.1885  0.2823 -0.6692
   57DOPE  H15S 7296   1.061   2.575   4.428 -0.4623 -1.8321  0.4711
   57DOPE  C216 7297   1.151   2.635   4.615  0.7854 -0.0249  0.0380
   57DOPE  H16R 7298   1.138   2.746   4.613 -0.1634 -0.0911  1.0141
   57DOPE  H16S 7299   1.243   2.614   4.674 -0.8476 -2.3640  1.9841
   57DOPE  C217 7300   1.045   2.562   4.707 -0.1526  0.0971 -0.7693
   57DOPE  H17R 7301   0.947   2.546   4.657 -0.8186  0.5238  0.3583
   57DOPE  H17S 7302   1.015   2.625   4.793 -0.9302 -0.8681 -0.3153
   57DOPE  C218 7303   1.087   2.425   4.775  0.2290 -0.5674 -0.6934
   57DOPE  H18R 7304   1.123   2.349   4.703  0.9259  1.0336 -2.1262
   57DOPE  H18S 7305   1.002   2.400   4.841  1.0775  1.8301  1.4991
   57DOPE  H18T 7306   1.175   2.441   4.841 -0.7361 -1.0796  0.7622
   57DOPE   C33 7307   1.062   2.895   3.309  0.3975  0.2597 -0.3031
   57DOPE   H3X 7308   1.168   2.919   3.288  0.5436  0.5466  0.6990
   57DOPE   H3Y 7309   1.064   2.891   3.420 -0.9959  0.9138 -0.2213
   57DOPE   C34 7310   0.971   3.017   3.285 -0.5885 -0.3931 -0.0464
   57DOPE   H4X 7311   0.997   3.054   3.183  0.6007  0.5474  0.5630
   57DOPE   H4Y 7312   0.866   2.984   3.291 -1.3823  2.0768  0.9726
   57DOPE   C35 7313   0.997   3.121   3.394  0.6363  0.9103 -0.5756
   57DOPE   H5X 7314   0.942   3.211   3.359 -1.2964 -0.8976 -2.4572
   57DOPE   H5Y 7315   1.105   3.143   3.409  0.5582  2.4198 -2.0534
   57DOPE   C36 7316   0.936   3.094   3.535 -0.3329 -0.3858 -0.1537
   57DOPE   H6X 7317   0.956   2.988   3.563  1.8308 -0.0683 -0.3092
   57DOPE   H6Y 7318   0.825   3.094   3.525 -0.3471 -1.0123 -0.0747
   57DOPE   C37 7319   0.986   3.196   3.640  0.0879  0.2932 -0.1012
   57DOPE   H7X 7320   1.094   3.221   3.632 -0.2508  1.7378 -0.3888
   57DOPE   H7Y 7321   0.926   3.289   3.635 -0.0789  0.1745 -0.2952
   57DOPE   C38 7322   0.959   3.153   3.789  0.4266 -0.6101 -0.6740
   57DOPE   H8X 7323   0.848   3.150   3.792  0.2937 -0.0261 -2.8605
   57DOPE   H8Y 7324   0.982   3.229   3.866  0.2298 -1.7000  0.4803
   57DOPE   C39 7325   1.017   3.024   3.831 -0.2155  0.5741 -0.3371
   57DOPE   H9X 7326   0.961   2.932   3.807 -0.4246  1.1349 -2.1634
   57DOPE  C310 7327   1.140   3.015   3.879 -0.2786 -0.5466  0.0615
   57DOPE  H10X 7328   1.185   2.917   3.896 -0.7698 -0.3946  2.7154
   57DOPE  C311 7329   1.233   3.140   3.890 -0.1375 -0.1609  0.0046
   57DOPE  H11X 7330   1.271   3.167   3.789 -0.3560  1.8574  0.4154
   57DOPE  H11Y 7331   1.187   3.232   3.932 -1.0070 -1.4431  2.0187
   57DOPE  C312 7332   1.351   3.105   3.981 -0.7228  0.2239  0.4639
   57DOPE  H12X 7333   1.417   3.194   3.992  1.8818 -1.6430  0.8123
   57DOPE  H12Y 7334   1.409   3.022   3.937 -0.9201  0.4141 -0.1597
   57DOPE  C313 7335   1.310   3.086   4.126  0.5682 -0.4163 -0.6692
   57DOPE  H13X 7336   1.254   3.175   4.162 -2.2263 -2.4636  0.4438
   57DOPE  H13Y 7337   1.232   3.007   4.120 -0.9863  0.8574  1.2066
   57DOPE  C314 7338   1.409   3.065   4.243 -0.1843 -0.4427  0.1223
   57DOPE  H14X 7339   1.473   3.155   4.253 -0.5604 -0.0404 -0.9077
   57DOPE  H14Y 7340   1.480   2.982   4.219 -2.5016 -2.6763  0.5301
   57DOPE  C315 7341   1.338   3.052   4.371 -0.2634  0.4977 -0.3973
   57DOPE  H15X 7342   1.303   2.946   4.379 -0.1591  0.6502  4.1338
   57DOPE  H15Y 7343   1.253   3.121   4.390 -1.5066 -1.1714  0.4526
   57DOPE  C316 7344   1.430   3.074   4.495  0.0783  0.6082 -0.2996
   57DOPE  H16X 7345   1.440   3.183   4.514 -2.0667  1.0997 -1.6479
   57DOPE  H16Y 7346   1.530   3.029   4.475  0.0680 -0.5470  1.9235
   57DOPE  C317 7347   1.374   3.005   4.618  0.7602  0.0417 -0.0477
   57DOPE  H17X 7348   1.270   3.042   4.623 -0.1191 -2.4176  1.6820
   57DOPE  H17Y 7349   1.372   2.895   4.600 -0.8641 -0.0533  0.5361
   57DOPE  C318 7350   1.439   3.037   4.754  0.1256  0.1872 -0.5264
   57DOPE  H18X 7351   1.459   3.144   4.777 -0.0748 -0.5515  3.9283
   57DOPE  H18Y 7352   1.362   3.006   4.828  0.0574  1.1599 -0.1731
   57DOPE  H18Z 7353   1.537   2.987   4.769 -0.0127  0.3837  1.2518
   58DOPE     N 7354   0.317   5.694   2.640  0.4290 -0.2698 -0.3723
   58DOPE   HN1 7355   0.326   5.658   2.737  2.4291 -0.1312 -0.4678
   58DOPE   HN2 7356   0.310   5.612   2.576 -3.9774 -1.3553  1.1433
   58DOPE   HN3 7357   0.404   5.750   2.630  0.6761 -0.6700 -0.4802
   58DOPE   C12 7358   0.188   5.772   2.613  0.3352 -0.2685  0.2972
   58DOPE  H12A 7359   0.107   5.696   2.611 -0.3187  0.4328 -0.2577
   58DOPE  H12B 7360   0.207   5.822   2.516  1.7666 -0.5037  0.4296
   58DOPE   C11 7361   0.167   5.866   2.733  0.1471 -0.8925  0.1944
   58DOPE  H11A 7362   0.127   5.806   2.817 -1.1682 -0.8252 -0.3566
   58DOPE  H11B 7363   0.086   5.935   2.703  1.6548  0.4336 -1.0900
   58DOPE     P 7364   0.304   6.028   2.891  0.0867 -0.0159 -0.3192
   58DOPE   O13 7365   0.171   6.072   2.940 -0.2236 -0.1747  0.0050
   58DOPE   O14 7366   0.412   6.124   2.878 -0.5160 -0.1238  0.6867
   58DOPE   O11 7367   0.363   5.910   2.972  0.1558  0.1073  0.6509
   58DOPE   O12 7368   0.285   5.945   2.758  0.6021  0.0777 -0.3464
   58DOPE    C1 7369   0.281   5.845   3.071  0.2921 -0.0523 -0.3695
   58DOPE    HA 7370   0.336   5.753   3.103 -1.2979 -0.5997  0.9629
   58DOPE    HB 7371   0.186   5.809   3.026  0.2379 -0.2359 -0.1130
   58DOPE    C2 7372   0.248   5.933   3.198  0.0299 -0.4189 -0.1948
   58DOPE    HS 7373   0.194   6.027   3.175  1.4083  0.4586  0.0243
   58DOPE   O21 7374   0.370   5.966   3.261  0.0716  0.7131  0.2689
   58DOPE   C21 7375   0.376   6.080   3.331  0.6390  0.6094 -0.4962
   58DOPE   O22 7376   0.288   6.161   3.345 -0.3306  0.2193 -0.3892
   58DOPE   C22 7377   0.511   6.089   3.397  0.5939 -0.7086  0.3826
   58DOPE   H2R 7378   0.589   6.120   3.325  1.7202  1.1506  2.2633
   58DOPE   H2S 7379   0.539   5.983   3.414  3.2541 -0.1274  0.0657
   58DOPE    C3 7380   0.170   5.855   3.307  0.2517  0.4248  0.5224
   58DOPE    HX 7381   0.241   5.780   3.349  1.2568  1.9876  1.7254
   58DOPE    HY 7382   0.093   5.792   3.259  0.1128  0.8663  0.1569
   58DOPE   O31 7383   0.131   5.936   3.415 -0.2916 -0.5259 -0.4728
   58DOPE   C31 7384   0.024   6.013   3.390  0.0907  0.6159  0.1002
   58DOPE   O32 7385  -0.040   6.016   3.287 -1.1575  0.3872  0.0139
   58DOPE   C32 7386   0.006   6.105   3.512  0.2508  0.1857  0.8719
   58DOPE   H2X 7387   0.043   6.052   3.602  0.2832 -2.9991 -0.8832
   58DOPE   H2Y 7388   0.063   6.197   3.484 -0.1679  0.5615  1.2416
   58DOPE   C23 7389   0.514   6.183   3.522 -0.0418  0.3783 -0.4792
   58DOPE   H3R 7390   0.432   6.150   3.588 -0.4539  0.8354 -0.7611
   58DOPE   H3S 7391   0.492   6.285   3.486  1.2582  0.7148 -0.3921
   58DOPE   C24 7392   0.652   6.181   3.592 -0.1546  0.4605  0.1408
   58DOPE   H4R 7393   0.730   6.179   3.513 -1.6459 -0.6217 -1.3829
   58DOPE   H4S 7394   0.661   6.079   3.634 -1.4537  1.4451  3.0476
   58DOPE   C25 7395   0.661   6.291   3.702 -0.3792  0.0430 -0.5682
   58DOPE   H5R 7396   0.612   6.388   3.681 -1.0002 -0.1525 -0.0465
   58DOPE   H5S 7397   0.770   6.312   3.697 -0.9173  3.1375 -1.0948
   58DOPE   C26 7398   0.626   6.253   3.846  0.4248  0.6436  1.4008
   58DOPE   H6R 7399   0.652   6.147   3.869 -3.0472 -0.6697  0.0506
   58DOPE   H6S 7400   0.515   6.256   3.855  0.4909  0.1168  2.7668
   58DOPE   C27 7401   0.684   6.348   3.954  0.3349 -0.1399 -0.3952
   58DOPE   H7R 7402   0.652   6.449   3.921  0.8884 -0.2834 -1.4239
   58DOPE   H7S 7403   0.793   6.336   3.932  0.2547 -0.3118 -0.6982
   58DOPE   C28 7404   0.649   6.341   4.103  0.0532  0.8225  0.1485
   58DOPE   H8R 7405   0.541   6.357   4.123  0.0546  0.7087  0.2496
   58DOPE   H8S 7406   0.709   6.424   4.147  0.6351  0.0453  0.8624
   58DOPE   C29 7407   0.697   6.211   4.168 -0.7973 -0.5390 -0.0419
   58DOPE   H9R 7408   0.804   6.217   4.193 -1.4258  0.0851  2.7704
   58DOPE  C210 7409   0.629   6.113   4.226 -0.3551  0.0013 -0.4335
   58DOPE  H10R 7410   0.677   6.021   4.263 -1.9792 -1.3617 -1.5393
   58DOPE  C211 7411   0.478   6.097   4.221  0.2177 -0.0642 -0.0175
   58DOPE  H11R 7412   0.459   5.991   4.197  1.3539 -0.2128 -0.3128
   58DOPE  H11S 7413   0.438   6.160   4.138  2.3644  2.2401  0.5654
   58DOPE  C212 7414   0.393   6.116   4.352 -0.2168 -0.1671 -0.2684
   58DOPE  H12R 7415   0.433   6.049   4.431 -1.4325  0.5480  1.0013
   58DOPE  H12S 7416   0.288   6.087   4.331  0.0236 -0.2765 -1.3813
   58DOPE  C213 7417   0.381   6.257   4.402  0.0901 -0.4180 -0.2256
   58DOPE  H13R 7418   0.367   6.334   4.323  0.9759 -0.0265 -0.0106
   58DOPE  H13S 7419   0.478   6.282   4.450 -1.0503  1.0001  1.4551
   58DOPE  C214 7420   0.269   6.281   4.509  0.1891 -0.1071 -0.0754
   58DOPE  H14R 7421   0.283   6.216   4.598 -1.9820 -0.0449  0.3741
   58DOPE  H14S 7422   0.174   6.250   4.460  0.3700 -0.6291 -0.1014
   58DOPE  C215 7423   0.251   6.425   4.567  0.5147  0.3711  0.0632
   58DOPE  H15R 7424   0.355   6.467   4.569  1.1026 -1.0410  2.9472
   58DOPE  H15S 7425   0.203   6.434   4.666  1.2769 -1.8645  0.6727
   58DOPE  C216 7426   0.169   6.505   4.458  0.1588 -1.0046  0.0671
   58DOPE  H16R 7427   0.061   6.481   4.468 -0.2756  0.9673  0.8136
   58DOPE  H16S 7428   0.189   6.476   4.353  0.1980 -0.7256 -0.0049
   58DOPE  C217 7429   0.188   6.662   4.475  0.0231  0.1803  0.3243
   58DOPE  H17R 7430   0.294   6.695   4.464 -0.2730  1.0921  0.1447
   58DOPE  H17S 7431   0.173   6.688   4.582  2.2223  0.1874  0.6778
   58DOPE  C218 7432   0.101   6.740   4.379 -0.6126 -0.2822  0.3693
   58DOPE  H18R 7433   0.137   6.844   4.389  0.1237 -0.6112  1.2896
   58DOPE  H18S 7434  -0.005   6.750   4.413 -0.5529 -0.0445  0.4837
   58DOPE  H18T 7435   0.099   6.714   4.271  1.8595  2.9764 -0.6337
   58DOPE   C33 7436  -0.142   6.146   3.533  0.2510  0.4676 -0.4488
   58DOPE   H3X 7437  -0.206   6.058   3.508 -0.6277  1.4172 -1.6373
   58DOPE   H3Y 7438  -0.168   6.215   3.450  1.7595 -1.3327 -2.5672
   58DOPE   C34 7439  -0.185   6.186   3.680 -0.2206  0.4880  0.7819
   58DOPE   H4X 7440  -0.168   6.104   3.752 -3.7219 -1.9400 -0.8847
   58DOPE   H4Y 7441  -0.141   6.284   3.709 -0.6295  1.3856 -1.4308
   58DOPE   C35 7442  -0.338   6.204   3.700  0.5329  0.4368 -0.8943
   58DOPE   H5X 7443  -0.395   6.118   3.659  1.5692  0.3110 -2.1142
   58DOPE   H5Y 7444  -0.373   6.299   3.654 -0.2044 -0.5155 -2.3612
   58DOPE   C36 7445  -0.370   6.208   3.855 -0.7227  0.7930  0.1590
   58DOPE   H6X 7446  -0.336   6.305   3.898  1.8350  0.2906 -0.5349
   58DOPE   H6Y 7447  -0.320   6.125   3.909 -3.0729  0.9806  2.8173
   58DOPE   C37 7448  -0.524   6.197   3.873  0.4828 -0.1293  0.0690
   58DOPE   H7X 7449  -0.569   6.277   3.810  1.8140  0.6998  0.1244
   58DOPE   H7Y 7450  -0.547   6.095   3.835 -0.5530 -0.0083  0.3237
   58DOPE   C38 7451  -0.569   6.206   4.020  0.4269  0.0858  0.1068
   58DOPE   H8X 7452  -0.675   6.236   4.034  0.3103 -1.0678  1.8386
   58DOPE   H8Y 7453  -0.506   6.285   4.067  0.2429 -0.0426  0.5685
   58DOPE   C39 7454  -0.546   6.069   4.083  0.4111 -0.8112  0.2281
   58DOPE   H9X 7455  -0.580   5.982   4.026 -0.1686 -1.2845  1.2846
   58DOPE  C310 7456  -0.478   6.053   4.199  0.0466  0.1691  0.6991
   58DOPE  H10X 7457  -0.456   5.951   4.234 -0.9427 -0.5754 -0.6943
   58DOPE  C311 7458  -0.425   6.158   4.300  0.1390  0.0013  0.6871
   58DOPE  H11X 7459  -0.315   6.169   4.301  0.1735 -0.3578  1.1624
   58DOPE  H11Y 7460  -0.460   6.260   4.270  2.4560 -0.4110 -4.6217
   58DOPE  C312 7461  -0.457   6.127   4.443  0.3351  0.0419 -0.1483
   58DOPE  H12X 7462  -0.423   6.206   4.512  1.0905 -0.4263  0.0258
   58DOPE  H12Y 7463  -0.397   6.036   4.466  1.8478  1.1186  0.2944
   58DOPE  C313 7464  -0.602   6.097   4.479  0.8087 -0.2199 -0.0533
   58DOPE  H13X 7465  -0.662   6.184   4.443  0.7773 -0.0335  0.4389
   58DOPE  H13Y 7466  -0.634   6.007   4.422 -0.0128  0.9451 -1.5131
   58DOPE  C314 7467  -0.631   6.081   4.631  0.3107  0.6170 -0.2069
   58DOPE  H14X 7468  -0.586   6.169   4.682  0.3752  0.7835 -0.5494
   58DOPE  H14Y 7469  -0.577   5.988   4.660 -0.6708  0.4641  1.2361
   58DOPE  C315 7470  -0.785   6.052   4.660 -0.2331  0.0071  0.3727
   58DOPE  H15X 7471  -0.820   5.972   4.592  0.1865  1.1848 -1.2962
   58DOPE  H15Y 7472  -0.834   6.150   4.645 -0.8395  0.4673  4.2967
   58DOPE  C316 7473  -0.809   5.998   4.798 -0.0594  0.0202 -0.3927
   58DOPE  H16X 7474  -0.763   5.896   4.800  0.8930  0.4392 -0.2734
   58DOPE  H16Y 7475  -0.917   5.985   4.817  0.0423  1.8601  1.7599
   58DOPE  C317 7476  -0.746   6.081   4.899  0.2035 -0.0747 -0.3443
   58DOPE  H17X 7477  -0.636   6.070   4.909  0.2708  1.4941  1.0868
   58DOPE  H17Y 7478  -0.755   6.191   4.884  0.8041 -0.2207 -2.0555
   58DOPE  C318 7479  -0.785   6.046   5.047 -0.0613  0.3012  0.7961
   58DOPE  H18X 7480  -0.895   6.037   5.036 -0.3217  3.4706 -0.2928
   58DOPE  H18Y 7481  -0.744   5.947   5.077 -2.4400 -1.0596 -0.1644
   58DOPE  H18Z 7482  -0.761   6.131   5.114 -0.6685  0.5280  0.7338
   59DOPE     N 7483   7.375   1.433   2.500 -0.0025  0.3278 -0.2086
   59DOPE   HN1 7484   7.297   1.481   2.451  0.7785  1.0363 -0.7791
   59DOPE   HN2 7485   7.471   1.436   2.461  0.0619  0.8866 -0.0151
   59DOPE   HN3 7486   7.354   1.331   2.491  4.5063 -0.8561  0.2255
   59DOPE   C12 7487   7.387   1.479   2.638 -0.1088 -0.4659 -0.3722
   59DOPE  H12A 7488   7.297   1.446   2.694 -0.7216  0.2252 -0.9470
   59DOPE  H12B 7489   7.404   1.589   2.640  2.7940 -0.8224 -0.2470
   59DOPE   C11 7490   7.506   1.416   2.714  0.2006  0.9421 -0.4882
   59DOPE  H11A 7491   7.498   1.305   2.707  1.1747  0.8149  0.1741
   59DOPE  H11B 7492   7.492   1.437   2.822  0.9301  0.8645 -0.3765
   59DOPE     P 7493   7.707   1.588   2.722  0.0433 -0.0825 -0.0437
   59DOPE   O13 7494   7.627   1.705   2.702 -0.1972  0.5346 -0.1092
   59DOPE   O14 7495   7.835   1.574   2.652 -0.3659 -0.3655  0.7148
   59DOPE   O11 7496   7.727   1.552   2.878 -0.2257  0.0510 -0.2225
   59DOPE   O12 7497   7.634   1.459   2.663  0.6103  0.2606 -0.0458
   59DOPE    C1 7498   7.829   1.626   2.949  0.7162 -0.2030  0.2482
   59DOPE    HA 7499   7.808   1.735   2.942 -0.4444 -0.4988 -1.5796
   59DOPE    HB 7500   7.932   1.607   2.911 -0.2839 -0.6626 -2.5089
   59DOPE    C2 7501   7.840   1.593   3.103 -0.1655 -0.0760  0.0314
   59DOPE    HS 7502   7.916   1.662   3.145  1.3644 -1.5996 -0.1333
   59DOPE   O21 7503   7.881   1.454   3.128  0.2267  0.4613 -0.4828
   59DOPE   C21 7504   8.013   1.425   3.119  0.8078 -0.3861  0.6834
   59DOPE   O22 7505   8.104   1.501   3.102 -0.6881  0.5673  0.3273
   59DOPE   C22 7506   8.030   1.273   3.155  0.7511 -0.4328 -0.5046
   59DOPE   H2R 7507   8.086   1.225   3.072  2.2997 -2.3681  1.5311
   59DOPE   H2S 7508   7.929   1.226   3.156  2.0775 -3.5794 -1.0290
   59DOPE    C3 7509   7.708   1.609   3.177  0.1855  0.5839 -0.4349
   59DOPE    HX 7510   7.634   1.538   3.134  0.3495 -1.1555  2.0057
   59DOPE    HY 7511   7.662   1.708   3.153  0.8374  1.0544  0.2138
   59DOPE   O31 7512   7.727   1.593   3.316 -0.6550  0.9678  0.0718
   59DOPE   C31 7513   7.773   1.683   3.392  0.1010  0.1559 -0.3160
   59DOPE   O32 7514   7.830   1.786   3.358  0.2044 -0.4087  0.2831
   59DOPE   C32 7515   7.752   1.642   3.535  0.1909  0.0807 -0.3048
   59DOPE   H2X 7516   7.646   1.619   3.557  0.2905 -2.2441 -1.9053
   59DOPE   H2Y 7517   7.802   1.544   3.550  0.1509  0.0423 -0.4234
   59DOPE   C23 7518   8.108   1.257   3.291  0.0359  0.2273  0.4072
   59DOPE   H3R 7519   8.206   1.307   3.274  0.3648  0.4026  2.5758
   59DOPE   H3S 7520   8.125   1.152   3.322 -0.6335  0.0415  0.1560
   59DOPE   C24 7521   8.045   1.325   3.408  0.1085  0.2193  0.0257
   59DOPE   H4R 7522   7.951   1.273   3.439 -0.1793  0.0559 -1.0854
   59DOPE   H4S 7523   8.025   1.432   3.388  0.7600  0.4910  0.7950
   59DOPE   C25 7524   8.141   1.321   3.532  0.2157  0.7261 -0.0066
   59DOPE   H5R 7525   8.239   1.364   3.502 -0.2447  1.4960 -0.4728
   59DOPE   H5S 7526   8.166   1.215   3.551  2.3975  1.6061  2.6434
   59DOPE   C26 7527   8.093   1.405   3.654 -0.5749  0.2887 -0.3911
   59DOPE   H6R 7528   7.999   1.365   3.698 -0.1028 -0.4967 -0.0520
   59DOPE   H6S 7529   8.070   1.512   3.636 -1.9069 -0.1758 -1.6388
   59DOPE   C27 7530   8.181   1.395   3.783 -0.2026  1.0851  0.2872
   59DOPE   H7R 7531   8.268   1.462   3.768  0.3082  0.5483  0.7877
   59DOPE   H7S 7532   8.208   1.288   3.794  0.5706  1.5239  3.5710
   59DOPE   C28 7533   8.106   1.425   3.916 -0.5821  0.0682  0.1167
   59DOPE   H8R 7534   8.011   1.369   3.917 -0.7782  0.4001  0.2526
   59DOPE   H8S 7535   8.076   1.531   3.901 -1.3751 -0.2718 -0.8104
   59DOPE   C29 7536   8.199   1.420   4.033  0.1040  0.5986 -0.1108
   59DOPE   H9R 7537   8.280   1.493   4.042 -0.1518  0.6888  2.0369
   59DOPE  C210 7538   8.173   1.350   4.149 -0.0372 -0.0616  0.1874
   59DOPE  H10R 7539   8.249   1.360   4.227  1.4101 -1.8221 -0.9082
   59DOPE  C211 7540   8.052   1.259   4.165  0.4439 -0.0028 -0.8942
   59DOPE  H11R 7541   8.021   1.228   4.063 -1.5646 -1.5378  0.1151
   59DOPE  H11S 7542   7.965   1.307   4.216  0.8947 -0.4946  0.3742
   59DOPE  C212 7543   8.089   1.132   4.244 -0.4951  0.4459 -0.2396
   59DOPE  H12R 7544   8.192   1.092   4.233  0.4674  2.2421  1.6612
   59DOPE  H12S 7545   8.027   1.059   4.189 -0.7838  0.0880  0.5578
   59DOPE  C213 7546   8.052   1.150   4.390  0.4450  0.0747 -1.0695
   59DOPE  H13R 7547   8.107   1.242   4.422  2.1492 -0.8359 -1.2340
   59DOPE  H13S 7548   8.090   1.058   4.439  0.0840  0.7378  0.5127
   59DOPE  C214 7549   7.906   1.149   4.425  0.0678 -0.2552 -0.0352
   59DOPE  H14R 7550   7.863   1.047   4.433 -0.2840 -0.1547 -0.5957
   59DOPE  H14S 7551   7.849   1.184   4.337  1.8832  1.6145 -0.5303
   59DOPE  C215 7552   7.871   1.225   4.556  0.2124 -0.7813  0.3486
   59DOPE  H15R 7553   7.892   1.330   4.525  0.3574 -1.5177 -2.1901
   59DOPE  H15S 7554   7.928   1.190   4.645  1.3950  2.6468  1.1019
   59DOPE  C216 7555   7.718   1.222   4.591  0.6009 -0.7218 -0.0265
   59DOPE  H16R 7556   7.652   1.229   4.502  2.3113 -0.8013 -1.3463
   59DOPE  H16S 7557   7.700   1.312   4.653 -1.1081 -1.8476  1.1973
   59DOPE  C217 7558   7.660   1.113   4.684  0.1174 -0.6196  0.7227
   59DOPE  H17R 7559   7.715   1.106   4.780 -1.1222  2.6367  1.8209
   59DOPE  H17S 7560   7.666   1.011   4.641 -1.4104  0.3294 -2.0031
   59DOPE  C218 7561   7.509   1.136   4.702  1.0620  0.2244  0.0283
   59DOPE  H18R 7562   7.463   1.037   4.723 -0.4659  0.7725 -0.5839
   59DOPE  H18S 7563   7.449   1.159   4.611 -0.6561 -1.8490  0.5836
   59DOPE  H18T 7564   7.480   1.205   4.784 -0.1071 -0.1446 -0.0574
   59DOPE   C33 7565   7.806   1.757   3.630 -0.4400 -0.0002 -0.4868
   59DOPE   H3X 7566   7.724   1.832   3.631 -1.1758 -0.6486  3.2220
   59DOPE   H3Y 7567   7.897   1.805   3.587  0.0804 -0.1542  0.4086
   59DOPE   C34 7568   7.813   1.704   3.776 -0.0604  0.3816  0.2584
   59DOPE   H4X 7569   7.711   1.692   3.819 -1.1089  1.1386 -1.9006
   59DOPE   H4Y 7570   7.858   1.602   3.778 -1.5426 -0.2872  0.7662
   59DOPE   C35 7571   7.906   1.804   3.848  0.1041 -0.1056 -0.0763
   59DOPE   H5X 7572   7.870   1.907   3.830  1.8238  0.4277 -0.6667
   59DOPE   H5Y 7573   8.005   1.805   3.799  0.4508  0.9621  0.6077
   59DOPE   C36 7574   7.926   1.775   4.003 -0.5639  0.4473 -0.0766
   59DOPE   H6X 7575   7.975   1.865   4.046 -1.5012  0.7656  0.3499
   59DOPE   H6Y 7576   7.993   1.686   4.007  1.0509  1.5376 -1.1580
   59DOPE   C37 7577   7.799   1.746   4.077 -0.2826 -0.0994  0.0453
   59DOPE   H7X 7578   7.723   1.822   4.052 -0.4443 -0.4482 -0.5281
   59DOPE   H7Y 7579   7.765   1.647   4.039  1.7475 -0.4483 -1.0176
   59DOPE   C38 7580   7.811   1.731   4.231  0.2372  0.1138  0.1539
   59DOPE   H8X 7581   7.896   1.661   4.247  0.1724  0.3130  1.4761
   59DOPE   H8Y 7582   7.713   1.686   4.256 -0.7729  1.1160 -1.8234
   59DOPE   C39 7583   7.842   1.864   4.295  0.4413  0.2731  0.2688
   59DOPE   H9X 7584   7.931   1.921   4.264  1.2559 -0.2970  1.4958
   59DOPE  C310 7585   7.767   1.927   4.390  0.2803 -0.5485  0.7761
   59DOPE  H10X 7586   7.795   2.030   4.420 -0.0668 -0.8170  2.0849
   59DOPE  C311 7587   7.653   1.872   4.458  0.7651 -0.0573 -0.9800
   59DOPE  H11X 7588   7.587   1.953   4.497 -0.0579 -0.6104 -1.2130
   59DOPE  H11Y 7589   7.594   1.800   4.398 -1.2608 -0.5902  1.4349
   59DOPE  C312 7590   7.698   1.774   4.573  0.4709 -0.0623 -0.0991
   59DOPE  H12X 7591   7.766   1.696   4.532 -0.8286 -0.3906 -1.6992
   59DOPE  H12Y 7592   7.606   1.723   4.609 -0.4855  2.8541  1.9624
   59DOPE  C313 7593   7.753   1.850   4.686  0.8315  0.3850 -0.1128
   59DOPE  H13X 7594   7.835   1.923   4.669  0.3057  0.7926 -0.9440
   59DOPE  H13Y 7595   7.663   1.902   4.725  0.5033 -1.2294  1.3832
   59DOPE  C314 7596   7.787   1.751   4.804 -0.5159  0.1523 -0.4189
   59DOPE  H14X 7597   7.854   1.679   4.753  0.5647  0.0669  1.0807
   59DOPE  H14Y 7598   7.696   1.694   4.833 -1.0077  0.5699 -1.1062
   59DOPE  C315 7599   7.862   1.825   4.916  0.4301  0.3207  0.5687
   59DOPE  H15X 7600   7.947   1.882   4.872  1.9212 -1.8304  0.5144
   59DOPE  H15Y 7601   7.912   1.747   4.977 -2.6643 -1.5909  0.8488
   59DOPE  C316 7602   7.770   1.915   4.998 -1.1268 -0.3598  0.1461
   59DOPE  H16X 7603   7.707   1.847   5.058  1.0139 -2.0377  0.6199
   59DOPE  H16Y 7604   7.705   1.969   4.926  1.2539  1.6085 -0.6918
   59DOPE  C317 7605   7.855   2.008   5.081 -0.0267 -0.5706 -0.6167
   59DOPE  H17X 7606   7.921   1.950   5.149  0.0506  0.1567 -0.0615
   59DOPE  H17Y 7607   7.932   2.067   5.026  0.0279  1.0736  1.1151
   59DOPE  C318 7608   7.780   2.113   5.169 -0.0865 -0.6384  0.2674
   59DOPE  H18X 7609   7.857   2.171   5.223 -0.3856 -0.2835  0.3130
   59DOPE  H18Y 7610   7.729   2.175   5.093 -0.7452 -1.4742  0.0104
   59DOPE  H18Z 7611   7.695   2.068   5.226  1.1047 -2.1751  0.9255
   60DOPE     N 7612   0.239   6.515   2.730 -0.1753  0.4605 -0.7914
   60DOPE   HN1 7613   0.203   6.434   2.785  1.8130 -1.0290 -1.5672
   60DOPE   HN2 7614   0.173   6.512   2.649 -2.1129  0.5579  0.7110
   60DOPE   HN3 7615   0.333   6.476   2.707  0.0287 -0.2089  1.0210
   60DOPE   C12 7616   0.252   6.643   2.812  0.0989 -0.6221  0.3286
   60DOPE  H12A 7617   0.299   6.725   2.754  1.0247 -1.1572  0.3021
   60DOPE  H12B 7618   0.326   6.614   2.890  0.6688  0.7202  0.3138
   60DOPE   C11 7619   0.118   6.690   2.870  0.6798  0.5886 -0.1432
   60DOPE  H11A 7620   0.142   6.762   2.952 -0.4364 -0.7696  1.4466
   60DOPE  H11B 7621   0.061   6.610   2.922  0.6391  1.4122  1.1298
   60DOPE     P 7622  -0.082   6.693   2.699 -0.2625 -0.2059 -0.2021
   60DOPE   O13 7623  -0.025   6.582   2.618  0.4989  0.8894 -0.2078
   60DOPE   O14 7624  -0.157   6.805   2.624  0.2229 -0.0047 -0.1913
   60DOPE   O11 7625  -0.169   6.646   2.827 -0.0963  0.2032  0.2502
   60DOPE   O12 7626   0.043   6.761   2.773  0.0557 -0.1148  0.5286
   60DOPE    C1 7627  -0.279   6.720   2.882  0.1732 -0.5067 -0.0172
   60DOPE    HA 7628  -0.365   6.656   2.909  0.6241 -1.4875 -0.8392
   60DOPE    HB 7629  -0.325   6.797   2.816 -1.6059 -0.7882  0.8250
   60DOPE    C2 7630  -0.238   6.797   3.012  0.1468 -0.6492 -0.0797
   60DOPE    HS 7631  -0.147   6.858   2.992 -0.0932 -0.1662  0.2773
   60DOPE   O21 7632  -0.198   6.696   3.107  0.1692  0.0509  0.0397
   60DOPE   C21 7633  -0.102   6.734   3.193  0.7590  0.4090 -0.1927
   60DOPE   O22 7634  -0.038   6.832   3.195  0.1636 -0.2989  0.3449
   60DOPE   C22 7635  -0.082   6.611   3.290 -0.1719 -0.2323  0.0709
   60DOPE   H2R 7636  -0.010   6.542   3.242 -1.3887  0.7587 -3.4451
   60DOPE   H2S 7637  -0.179   6.561   3.307  0.2631 -1.6207 -1.2994
   60DOPE    C3 7638  -0.351   6.888   3.062  0.8296 -0.1802 -0.4196
   60DOPE    HX 7639  -0.426   6.806   3.070  1.3416 -0.6362 -0.2364
   60DOPE    HY 7640  -0.380   6.968   2.991  0.2885  1.1791  1.2609
   60DOPE   O31 7641  -0.323   6.949   3.186  0.1446  0.8806  0.2337
   60DOPE   C31 7642  -0.242   7.050   3.185 -0.0862 -0.2471  0.3949
   60DOPE   O32 7643  -0.182   7.095   3.085 -0.0263  0.8443  0.3733
   60DOPE   C32 7644  -0.230   7.106   3.330  0.6577  0.7270 -0.0326
   60DOPE   H2X 7645  -0.314   7.175   3.354 -1.1895 -2.3456  3.3146
   60DOPE   H2Y 7646  -0.228   7.012   3.390  1.4456  0.0501 -1.0858
   60DOPE   C23 7647  -0.029   6.648   3.429 -0.2736  0.1923  0.2250
   60DOPE   H3R 7648  -0.096   6.727   3.468 -0.6194 -0.2233  0.4763
   60DOPE   H3S 7649   0.076   6.685   3.421 -0.9056  2.0323 -0.1097
   60DOPE   C24 7650  -0.018   6.529   3.524  0.1534  0.0954  0.0013
   60DOPE   H4R 7651   0.036   6.445   3.474 -2.2242 -1.9304  0.6499
   60DOPE   H4S 7652  -0.117   6.486   3.550 -1.2217  1.8917 -1.9545
   60DOPE   C25 7653   0.047   6.589   3.650 -0.9019 -0.6162 -0.7381
   60DOPE   H5R 7654  -0.001   6.680   3.692  1.0343 -0.7627  2.0324
   60DOPE   H5S 7655   0.145   6.629   3.616  0.0078  1.6988  3.7964
   60DOPE   C26 7656   0.070   6.484   3.765 -0.0033  0.1077 -0.1297
   60DOPE   H6R 7657  -0.023   6.443   3.808  0.8350  0.6230  2.3618
   60DOPE   H6S 7658   0.118   6.550   3.841 -0.5057 -0.2506  0.5074
   60DOPE   C27 7659   0.176   6.375   3.734 -0.0903  0.1724  0.0675
   60DOPE   H7R 7660   0.274   6.419   3.705  0.6045 -0.9426  0.6026
   60DOPE   H7S 7661   0.127   6.318   3.652  2.0443 -0.9156 -0.5216
   60DOPE   C28 7662   0.197   6.277   3.852 -0.4239  0.9213 -0.4669
   60DOPE   H8R 7663   0.273   6.199   3.832 -0.3656  0.4344  1.4927
   60DOPE   H8S 7664   0.114   6.216   3.893  1.6131 -0.1012  2.3879
   60DOPE   C29 7665   0.245   6.367   3.959  0.0928 -0.3731 -0.7078
   60DOPE   H9R 7666   0.333   6.428   3.933 -1.2326  3.0639  2.0822
   60DOPE  C210 7667   0.206   6.384   4.083  0.1839 -0.5945  0.0324
   60DOPE  H10R 7668   0.262   6.455   4.147 -0.2361  0.6933 -0.9897
   60DOPE  C211 7669   0.089   6.315   4.148  0.4090 -0.3194  0.6715
   60DOPE  H11R 7670   0.114   6.316   4.257  2.0852  1.3586  0.3280
   60DOPE  H11S 7671   0.096   6.208   4.120 -1.5178 -0.3042 -0.0035
   60DOPE  C212 7672  -0.058   6.372   4.137 -0.5142  0.1720  0.2068
   60DOPE  H12R 7673  -0.123   6.313   4.206 -1.7237 -0.2970 -1.2847
   60DOPE  H12S 7674  -0.081   6.365   4.029 -0.5218  1.8974  0.0655
   60DOPE  C213 7675  -0.073   6.515   4.178 -0.4047  0.0752 -0.3476
   60DOPE  H13R 7676   0.005   6.572   4.123 -0.3967  0.6996  0.3036
   60DOPE  H13S 7677  -0.061   6.529   4.288 -1.0674  3.5133 -0.6313
   60DOPE  C214 7678  -0.209   6.574   4.147 -0.0451 -0.6795  0.7857
   60DOPE  H14R 7679  -0.223   6.676   4.188 -1.3029 -0.8819  0.9129
   60DOPE  H14S 7680  -0.293   6.517   4.194 -1.3205  1.2954  1.0094
   60DOPE  C215 7681  -0.238   6.586   3.995  0.4190 -0.8704  0.7171
   60DOPE  H15R 7682  -0.268   6.485   3.959 -3.0161  0.5124 -0.7846
   60DOPE  H15S 7683  -0.156   6.609   3.924 -0.9245 -1.0723 -0.9744
   60DOPE  C216 7684  -0.356   6.679   3.961 -0.8409  0.0325 -0.5762
   60DOPE  H16R 7685  -0.344   6.787   3.985 -0.0716 -0.1862  0.0584
   60DOPE  H16S 7686  -0.436   6.634   4.023  0.0307 -1.8631 -0.7513
   60DOPE  C217 7687  -0.399   6.666   3.812 -0.1440 -0.3401 -0.0129
   60DOPE  H17R 7688  -0.500   6.711   3.811 -0.2324 -0.4978 -2.2060
   60DOPE  H17S 7689  -0.400   6.557   3.789  0.3570 -0.2158 -0.6620
   60DOPE  C218 7690  -0.306   6.745   3.718 -0.7026  0.8338 -0.0119
   60DOPE  H18R 7691  -0.326   6.849   3.749  1.5875  0.9473  1.3282
   60DOPE  H18S 7692  -0.321   6.727   3.609 -0.2998  1.6439 -0.2069
   60DOPE  H18T 7693  -0.203   6.713   3.745 -0.8950  1.6133  1.7251
   60DOPE   C33 7694  -0.094   7.171   3.356  0.1833 -0.0393 -0.0720
   60DOPE   H3X 7695  -0.083   7.273   3.312  0.9563 -0.0335  0.1192
   60DOPE   H3Y 7696  -0.016   7.111   3.304 -0.6853 -1.3184  0.0466
   60DOPE   C34 7697  -0.057   7.186   3.498 -0.1637 -0.1115 -0.1498
   60DOPE   H4X 7698   0.026   7.259   3.506 -1.9683  2.5136 -3.3740
   60DOPE   H4Y 7699  -0.140   7.235   3.554  0.7251 -0.2637  1.3865
   60DOPE   C35 7700  -0.014   7.053   3.559 -0.0185 -0.1457 -0.0365
   60DOPE   H5X 7701   0.053   6.993   3.494  1.6865  2.0089 -0.3866
   60DOPE   H5Y 7702  -0.112   7.003   3.575  1.3757 -3.0224  0.2540
   60DOPE   C36 7703   0.060   7.087   3.694 -0.1099 -0.0072 -0.0320
   60DOPE   H6X 7704   0.005   7.144   3.772  0.7644  1.5213 -0.5019
   60DOPE   H6Y 7705   0.154   7.144   3.679  0.4343  0.2608  3.6610
   60DOPE   C37 7706   0.104   6.951   3.760 -0.1349 -0.3997 -0.1248
   60DOPE   H7X 7707   0.008   6.904   3.788 -1.3790  2.1977  0.3071
   60DOPE   H7Y 7708   0.161   6.883   3.693  0.1434 -0.8286  0.5426
   60DOPE   C38 7709   0.196   6.968   3.881 -0.3419  0.3459 -0.3145
   60DOPE   H8X 7710   0.160   7.059   3.934 -0.6490  0.4881 -0.7593
   60DOPE   H8Y 7711   0.303   6.979   3.852 -0.1587 -2.7545 -1.1889
   60DOPE   C39 7712   0.172   6.863   3.980 -0.6403  0.1898 -0.1805
   60DOPE   H9X 7713   0.065   6.850   4.003 -1.5216  2.2949 -2.7320
   60DOPE  C310 7714   0.259   6.781   4.047 -0.2726  0.1458 -0.0448
   60DOPE  H10X 7715   0.209   6.699   4.100  0.8584 -0.3535  0.2853
   60DOPE  C311 7716   0.412   6.781   4.022 -0.2798 -0.0345  0.2341
   60DOPE  H11X 7717   0.439   6.682   3.982  0.8807  0.1488  0.5272
   60DOPE  H11Y 7718   0.451   6.859   3.953 -2.4145  1.7050  0.8537
   60DOPE  C312 7719   0.482   6.783   4.157 -0.2576 -0.0399 -0.1598
   60DOPE  H12X 7720   0.586   6.759   4.128 -0.0227 -3.0730  2.5255
   60DOPE  H12Y 7721   0.446   6.704   4.227 -1.2391  1.7385  1.4318
   60DOPE  C313 7722   0.479   6.914   4.232  0.0074 -0.0731  0.2774
   60DOPE  H13X 7723   0.532   6.991   4.172 -0.7562  0.0459 -0.2582
   60DOPE  H13Y 7724   0.375   6.953   4.232  0.1818  0.4416  1.6800
   60DOPE  C314 7725   0.531   6.913   4.376  0.4496 -0.0690 -0.1775
   60DOPE  H14X 7726   0.625   6.854   4.379  0.4346 -0.1464 -1.0390
   60DOPE  H14Y 7727   0.452   6.880   4.447 -1.6181  1.2081 -1.7856
   60DOPE  C315 7728   0.569   7.053   4.429 -0.0680 -0.4704  0.6965
   60DOPE  H15X 7729   0.484   7.124   4.413 -0.8868 -1.7433 -1.1121
   60DOPE  H15Y 7730   0.646   7.098   4.363  0.4681 -0.9938  0.9559
   60DOPE  C316 7731   0.619   7.054   4.574  0.0520 -0.0311  0.2110
   60DOPE  H16X 7732   0.686   6.966   4.580  1.4919  1.0143  0.1300
   60DOPE  H16Y 7733   0.531   7.032   4.638 -0.7326  0.2730 -0.7317
   60DOPE  C317 7734   0.674   7.188   4.614 -0.1356  0.1194 -0.2704
   60DOPE  H17X 7735   0.764   7.213   4.554  0.5652  2.3744  1.5484
   60DOPE  H17Y 7736   0.602   7.270   4.593 -0.9293  0.2672  2.6067
   60DOPE  C318 7737   0.708   7.189   4.765  0.8185  0.5934 -0.4186
   60DOPE  H18X 7738   0.792   7.261   4.779 -1.5591  3.1901  1.7899
   60DOPE  H18Y 7739   0.625   7.218   4.833  3.0580  1.0737  2.3422
   60DOPE  H18Z 7740   0.742   7.091   4.806  1.2836  0.7185 -0.4929
   6123SM     N 7741   2.674   3.522   7.224  0.0271 -0.0877  0.5951
   6123SM   C15 7742   2.599   3.432   7.319  0.3350  0.0979  0.3669
   6123SM  H15A 7743   2.560   3.345   7.268  1.0937  0.1424 -0.3013
   6123SM  H15B 7744   2.517   3.484   7.366 -0.9794 -1.4029 -0.1462
   6123SM  H15C 7745   2.671   3.402   7.394  2.5184  2.4922 -0.6351
   6123SM   C14 7746   2.702   3.651   7.296  0.6861 -0.4141  0.7771
   6123SM  H14A 7747   2.753   3.725   7.236 -1.1122 -0.1257 -0.4945
   6123SM  H14B 7748   2.762   3.628   7.382  0.8532 -1.6805  0.3440
   6123SM  H14C 7749   2.609   3.699   7.324  1.0351  1.0466 -0.3881
   6123SM   C13 7750   2.806   3.451   7.182  0.7435  0.5484 -0.3626
   6123SM  H13A 7751   2.883   3.512   7.137  1.7144 -2.1697 -2.6924
   6123SM  H13B 7752   2.791   3.371   7.112  0.6582  0.1512  0.1030
   6123SM  H13C 7753   2.853   3.419   7.274 -0.4014 -0.4130 -0.0933
   6123SM   C12 7754   2.592   3.544   7.097  0.3595 -0.4913 -0.2253
   6123SM  H12A 7755   2.579   3.454   7.038 -2.2068  0.6738 -1.5858
   6123SM  H12B 7756   2.646   3.614   7.036 -0.2772  0.8274  0.6922
   6123SM   C11 7757   2.449   3.605   7.119  0.5165  0.8484  0.5619
   6123SM  H11A 7758   2.406   3.538   7.197 -3.1421  2.7522  0.3755
   6123SM  H11B 7759   2.384   3.596   7.030  3.0180 -1.1601 -1.2320
   6123SM     P 7760   2.457   3.858   7.067 -0.2499  0.1612 -0.0614
   6123SM   O13 7761   2.324   3.858   7.010 -0.2622 -0.4122 -0.0319
   6123SM   O14 7762   2.506   3.976   7.140 -0.4008  0.2998 -0.0604
   6123SM   O11 7763   2.562   3.817   6.958  0.5456 -0.3389  0.2673
   6123SM   O12 7764   2.454   3.742   7.169  0.3611 -0.0525 -0.3370
   6123SM   C1S 7765   2.507   3.760   6.839  0.6735 -0.2441  0.0965
   6123SM   H1S 7766   2.410   3.799   6.802  0.2503 -2.5156 -1.4492
   6123SM   H1T 7767   2.493   3.651   6.857 -0.7559 -0.1672 -0.4170
   6123SM    NF 7768   2.547   3.761   6.605 -0.2538 -0.2706  0.4109
   6123SM   HNF 7769   2.590   3.691   6.548 -0.0054  0.4161 -0.2696
   6123SM   C2S 7770   2.599   3.803   6.728 -0.9921  0.8681  0.2355
   6123SM   H2S 7771   2.600   3.914   6.731 -1.3821  0.9181 -0.8796
   6123SM   C3S 7772   2.748   3.760   6.749  0.3750 -0.8668  0.2745
   6123SM   H3S 7773   2.753   3.649   6.754 -2.4500 -1.0570  0.7825
   6123SM    O3 7774   2.803   3.802   6.869 -0.9487 -0.6966 -0.3739
   6123SM   HO3 7775   2.732   3.834   6.925  0.3486 -1.2340  1.6856
   6123SM   C4S 7776   2.828   3.810   6.628  0.1058 -0.6208 -0.5573
   6123SM   H4S 7777   2.829   3.733   6.550 -1.5581  0.0567 -1.2971
   6123SM   C5S 7778   2.899   3.925   6.620 -0.0903 -0.3473  0.4343
   6123SM   H5S 7779   2.915   3.992   6.705  1.2452 -0.8077  0.5738
   6123SM   C6S 7780   2.977   3.965   6.500 -0.0987 -0.2295 -0.3671
   6123SM   H6S 7781   3.085   3.977   6.524  0.0846 -0.4899 -1.0616
   6123SM   H6T 7782   2.943   4.070   6.489  0.7158  0.3217  1.7617
   6123SM   C7S 7783   2.960   3.895   6.362  0.4325  0.5221  0.1001
   6123SM   H7S 7784   2.849   3.897   6.351  0.0241  0.8638  3.2613
   6123SM   H7T 7785   2.994   3.789   6.362 -2.0276 -0.3650 -1.3350
   6123SM   C8S 7786   3.028   3.981   6.250  0.4090 -0.5096 -0.2354
   6123SM   H8S 7787   3.137   3.972   6.271  0.2976  0.2359  0.7363
   6123SM   H8T 7788   2.993   4.086   6.252  0.6425 -0.4141 -1.0074
   6123SM   C9S 7789   2.998   3.912   6.117  0.2724 -0.1509 -0.0263
   6123SM   H9S 7790   2.892   3.888   6.096  0.4055  0.1640 -1.1417
   6123SM   H9T 7791   3.034   3.807   6.121 -1.1845 -0.8425 -2.5495
   6123SM  C10S 7792   3.072   3.976   5.998 -0.6472  0.3728 -0.4004
   6123SM  H10S 7793   3.116   3.903   5.926 -1.5167  1.9605 -2.6219
   6123SM  H10T 7794   3.145   4.044   6.047  0.5884 -1.0688 -0.1608
   6123SM  C11S 7795   2.974   4.056   5.909 -0.6429 -0.2822 -0.3994
   6123SM  H11S 7796   2.919   4.134   5.965 -0.3712  0.7758 -1.5647
   6123SM  H11T 7797   2.898   3.987   5.866 -0.7617  0.0879 -0.8006
   6123SM  C12S 7798   3.041   4.104   5.783  0.1624 -1.2138  0.3529
   6123SM  H12S 7799   3.074   4.017   5.722 -0.5504 -0.5829 -0.9796
   6123SM  H12T 7800   3.128   4.166   5.815  1.8511 -1.1408 -3.7186
   6123SM  C13S 7801   2.937   4.186   5.695 -0.0202  0.1249  0.1326
   6123SM  H13S 7802   2.883   4.262   5.757  1.5963  1.0917  0.4144
   6123SM  H13T 7803   2.852   4.121   5.665  0.6924 -1.1133  0.7263
   6123SM  C14S 7804   2.988   4.254   5.574  0.1884  0.3616  0.2307
   6123SM  H14S 7805   2.997   4.177   5.494 -1.4647  1.1477 -0.7651
   6123SM  H14T 7806   3.083   4.308   5.593  1.4540 -1.7503  0.2065
   6123SM  C15S 7807   2.896   4.365   5.524  0.0920 -0.4258 -0.0557
   6123SM  H15S 7808   2.900   4.455   5.590 -0.5930 -1.4257  1.3954
   6123SM  H15T 7809   2.788   4.341   5.511 -0.4294  0.9758  1.2966
   6123SM  C16S 7810   2.957   4.430   5.396 -0.2003  0.2367  0.3369
   6123SM  H16S 7811   2.937   4.359   5.312  0.4529 -0.0916  0.4490
   6123SM  H16T 7812   3.067   4.444   5.404  0.6609 -4.3948 -0.2259
   6123SM  C17S 7813   2.894   4.567   5.369  0.4390  0.2717 -0.4800
   6123SM  H17S 7814   2.907   4.638   5.454  2.6512 -0.4202 -0.1546
   6123SM  H17T 7815   2.785   4.547   5.361  0.2697  0.7025  0.5342
   6123SM  C18S 7816   2.949   4.643   5.252  0.6799  0.1159  0.4477
   6123SM  H18S 7817   2.891   4.735   5.232  1.2333  0.9039  2.2778
   6123SM  H18T 7818   2.948   4.571   5.168  2.1537 -1.7158  1.9040
   6123SM  H18U 7819   3.056   4.661   5.275  0.3855  2.0350  0.4559
   6123SM   C1F 7820   2.433   3.811   6.555  0.0306  0.6356  0.1907
   6123SM    OF 7821   2.389   3.914   6.605  0.4493  0.5835  0.0527
   6123SM   C2F 7822   2.359   3.736   6.459 -0.4670 -0.4049  0.5817
   6123SM   H2F 7823   2.256   3.716   6.496  0.0605 -1.2350  1.6686
   6123SM   H2G 7824   2.396   3.633   6.441  1.6392  0.8252 -3.3626
   6123SM   C3F 7825   2.348   3.815   6.323 -0.5426 -0.6990 -0.2217
   6123SM   H3F 7826   2.315   3.919   6.344 -0.6813 -0.6596 -0.6207
   6123SM   H3G 7827   2.264   3.776   6.261 -1.3728 -2.1883  1.7233
   6123SM   C4F 7828   2.477   3.813   6.236  0.2733  0.3878 -0.3085
   6123SM   H4F 7829   2.498   3.704   6.228  0.8557  0.2763  1.9588
   6123SM   H4G 7830   2.556   3.861   6.298  1.1686 -1.8233  0.3732
   6123SM   C5F 7831   2.457   3.885   6.107 -0.3456 -1.1074 -0.3707
   6123SM   H5F 7832   2.440   3.992   6.130  0.0400 -1.2593  0.6483
   6123SM   H5G 7833   2.377   3.847   6.039  0.3162 -1.1881 -1.1246
   6123SM   C6F 7834   2.586   3.880   6.023 -0.5345  0.1873  0.1233
   6123SM   H6F 7835   2.610   3.776   5.994  0.8889 -0.4957  3.3273
   6123SM   H6G 7836   2.668   3.919   6.086  0.0849 -0.2220 -0.4147
   6123SM   C7F 7837   2.574   3.963   5.895  0.8018 -0.3000 -0.0251
   6123SM   H7F 7838   2.675   3.973   5.852  0.3340  3.3103 -0.6655
   6123SM   H7G 7839   2.534   4.064   5.919 -1.1492 -0.9897 -0.1931
   6123SM   C8F 7840   2.468   3.915   5.785 -0.0212 -0.3270  0.6965
   6123SM   H8F 7841   2.365   3.915   5.827 -0.1179 -0.0933  0.4608
   6123SM   H8G 7842   2.496   3.809   5.767  1.7480  0.4839 -1.7895
   6123SM   C9F 7843   2.480   4.008   5.662  0.1743 -0.6363 -0.4534
   6123SM   H9F 7844   2.585   3.998   5.629 -0.3081 -0.5133 -2.1444
   6123SM   H9G 7845   2.464   4.117   5.677  0.4703 -0.8087  1.2140
   6123SM  C10F 7846   2.389   3.959   5.548 -0.0792 -0.3226  0.2289
   6123SM  H10F 7847   2.287   3.948   5.590  0.0694  1.5566  1.1387
   6123SM  H10G 7848   2.437   3.868   5.506  1.3948  0.0578  1.0067
   6123SM  C11F 7849   2.373   4.060   5.433 -0.6544 -0.6855  0.1831
   6123SM  H11F 7850   2.470   4.093   5.391 -2.6518  2.1301 -2.6845
   6123SM  H11G 7851   2.335   4.158   5.467  3.1452 -0.2522  4.0556
   6123SM  C12F 7852   2.280   4.016   5.312  0.0147 -0.0835 -0.3259
   6123SM  H12F 7853   2.184   3.997   5.365  0.5289  0.3104  0.7912
   6123SM  H12G 7854   2.320   3.921   5.273 -3.1774 -0.8237 -2.1984
   6123SM  C13F 7855   2.261   4.120   5.204  0.0419 -0.2448  0.0850
   6123SM  H13F 7856   2.357   4.142   5.152 -0.1941  0.5662 -0.0226
   6123SM  H13G 7857   2.243   4.219   5.250  4.1356 -0.3555  2.4258
   6123SM  C14F 7858   2.139   4.081   5.115  0.1246  0.5714 -0.2747
   6123SM  H14F 7859   2.112   4.174   5.061 -1.4954  0.5774  0.4933
   6123SM  H14G 7860   2.058   4.065   5.189 -1.5335  1.6685 -1.7656
   6123SM  C15F 7861   2.155   3.961   5.026 -0.7761 -0.0277  0.2226
   6123SM  H15F 7862   2.065   3.963   4.961  0.1818  1.6168 -1.1403
   6123SM  H15G 7863   2.156   3.861   5.076  1.0455 -0.8266 -1.2869
   6123SM  C16F 7864   2.280   3.978   4.934 -0.1437  0.6668 -1.1579
   6123SM  H16F 7865   2.366   3.970   5.005 -1.1204 -1.3979 -0.1245
   6123SM  H16G 7866   2.292   4.082   4.896  0.1628  0.8326 -0.6115
   6123SM  C17F 7867   2.283   3.878   4.818 -0.2216 -0.2063 -0.4598
   6123SM  H17F 7868   2.199   3.886   4.746  0.0683 -0.7464 -0.8682
   6123SM  H17G 7869   2.281   3.775   4.858  0.3250 -1.1117 -2.5986
   6123SM  C18F 7870   2.424   3.873   4.752 -0.1001  0.0446  0.6330
   6123SM  H18F 7871   2.506   3.889   4.825  1.8450  0.3759 -1.4800
   6123SM  H18G 7872   2.438   3.960   4.685 -0.7073 -0.1940  0.1893
   6123SM  C19F 7873   2.444   3.748   4.661  0.0257 -0.7949  0.3422
   6123SM  H19F 7874   2.351   3.731   4.601  0.2167 -0.5207 -0.0373
   6123SM  H19G 7875   2.461   3.661   4.727 -2.0268 -1.5812 -0.0913
   6123SM  C20F 7876   2.570   3.765   4.568  0.4071  0.2414  0.0012
   6123SM  H20F 7877   2.546   3.840   4.489 -0.2006  1.0128  0.8998
   6123SM  H20G 7878   2.581   3.675   4.504 -0.0931  0.6835 -0.7146
   6123SM  C21F 7879   2.705   3.791   4.631  1.0780 -0.2674 -0.1502
   6123SM  H21F 7880   2.734   3.709   4.699  1.2015 -0.6364 -0.6462
   6123SM  H21G 7881   2.696   3.873   4.706  0.8441 -1.9712  1.7429
   6123SM  C22F 7882   2.814   3.819   4.530 -0.8772 -0.4569 -0.2944
   6123SM  H22F 7883   2.810   3.729   4.465 -0.0149 -1.1627  0.5938
   6123SM  H22G 7884   2.911   3.811   4.584 -0.0374 -2.4898 -1.9809
   6123SM  C23F 7885   2.810   3.944   4.443 -0.4235  0.0568 -0.3976
   6123SM  H23F 7886   2.915   3.963   4.412 -0.7311 -0.0670 -1.5678
   6123SM  H23G 7887   2.766   4.033   4.493 -0.1049  1.3886 -2.3327
   6123SM  H23H 7888   2.749   3.917   4.354 -1.8396 -1.5052  0.9752
   6223SM     N 7889   1.945   3.290   6.736 -0.2410 -1.1620 -0.1957
   6223SM   C15 7890   2.004   3.321   6.867 -0.2798 -0.5147  0.1764
   6223SM  H15A 7891   2.110   3.304   6.860  0.3382  2.6221  0.1193
   6223SM  H15B 7892   1.956   3.264   6.945  2.0710 -1.2572  1.1651
   6223SM  H15C 7893   1.994   3.426   6.892  2.9496  0.3684 -1.6617
   6223SM   C14 7894   1.970   3.138   6.713  0.1812  0.0179 -0.3624
   6223SM  H14A 7895   1.902   3.116   6.632 -0.6543 -1.1132  0.6128
   6223SM  H14B 7896   1.932   3.082   6.797  0.4617  0.7659  0.2755
   6223SM  H14C 7897   2.071   3.117   6.679 -0.2136 -1.1657 -0.8542
   6223SM   C13 7898   1.801   3.331   6.747 -0.2699  0.6250 -0.3525
   6223SM  H13A 7899   1.754   3.331   6.650 -0.6017 -1.5811 -0.2458
   6223SM  H13B 7900   1.786   3.430   6.787 -1.2877 -0.1761  1.3518
   6223SM  H13C 7901   1.741   3.266   6.808 -0.6349  0.6480 -0.6836
   6223SM   C12 7902   2.005   3.376   6.623 -0.1110  0.0422 -0.1953
   6223SM  H12A 7903   2.005   3.482   6.645 -3.5257  0.0523  0.3401
   6223SM  H12B 7904   1.941   3.369   6.536  0.2447  2.3493 -0.7038
   6223SM   C11 7905   2.151   3.334   6.579  0.2618 -0.3979  0.8411
   6223SM  H11A 7906   2.192   3.415   6.514  1.1635 -0.5555  1.2004
   6223SM  H11B 7907   2.146   3.243   6.515 -0.4800 -1.0048  1.7568
   6223SM     P 7908   2.353   3.411   6.725  0.1352  0.1109  0.0304
   6223SM   O13 7909   2.286   3.542   6.737 -0.5567  0.0661  0.4258
   6223SM   O14 7910   2.433   3.360   6.842  0.2581 -0.2075  0.4510
   6223SM   O11 7911   2.456   3.413   6.605 -0.2916 -0.4325  0.5286
   6223SM   O12 7912   2.246   3.300   6.684 -0.2340 -0.5404  0.7052
   6223SM   C1S 7913   2.484   3.288   6.544 -0.1541 -0.7839 -0.0014
   6223SM   H1S 7914   2.406   3.209   6.546  1.7968 -2.8080 -0.3127
   6223SM   H1T 7915   2.572   3.243   6.595  1.3200  0.3608 -1.4453
   6223SM    NF 7916   2.527   3.186   6.324 -0.7913  0.0793 -0.1622
   6223SM   HNF 7917   2.621   3.159   6.301 -0.3390  0.9713  0.5603
   6223SM   C2S 7918   2.518   3.312   6.395  0.1828 -1.0041 -0.1241
   6223SM   H2S 7919   2.431   3.369   6.356 -0.0697 -1.1466  0.2244
   6223SM   C3S 7920   2.642   3.400   6.391 -0.1661 -0.0868 -0.0182
   6223SM   H3S 7921   2.719   3.344   6.448  0.0628 -1.2326 -1.4114
   6223SM    O3 7922   2.630   3.525   6.458 -0.3029 -0.2566 -0.1716
   6223SM   HO3 7923   2.553   3.509   6.514  0.8863  0.2035  1.6664
   6223SM   C4S 7924   2.694   3.441   6.251 -0.1355 -0.0348 -0.2460
   6223SM   H4S 7925   2.622   3.482   6.179  0.5807  1.7580  0.0118
   6223SM   C5S 7926   2.825   3.465   6.227  0.4411 -0.2112 -0.2761
   6223SM   H5S 7927   2.899   3.468   6.308  0.4061  0.8431 -0.2690
   6223SM   C6S 7928   2.892   3.514   6.103  0.2651 -0.7530  0.2994
   6223SM   H6S 7929   2.969   3.437   6.078  2.3372  1.0888  0.7080
   6223SM   H6T 7930   2.947   3.609   6.118 -2.6364  0.9010  1.2339
   6223SM   C7S 7931   2.811   3.543   5.974 -0.0689  0.1876  0.7762
   6223SM   H7S 7932   2.717   3.600   5.993 -0.1915 -0.4721  2.3567
   6223SM   H7T 7933   2.790   3.447   5.923 -2.6145  2.0156 -1.8825
   6223SM   C8S 7934   2.894   3.635   5.876  0.4855  0.4811 -0.5709
   6223SM   H8S 7935   2.972   3.578   5.821  1.2104  1.6396 -0.7703
   6223SM   H8T 7936   2.921   3.732   5.923 -1.6983  0.3392  1.1446
   6223SM   C9S 7937   2.799   3.655   5.748  0.4159  0.0019 -0.5861
   6223SM   H9S 7938   2.705   3.701   5.785  0.7558 -0.1131  0.4377
   6223SM   H9T 7939   2.782   3.553   5.706  1.3468 -1.0001  1.3706
   6223SM  C10S 7940   2.860   3.750   5.652 -0.0173 -0.4226  0.4131
   6223SM  H10S 7941   2.965   3.726   5.628 -0.2921 -1.0863 -0.1780
   6223SM  H10T 7942   2.864   3.851   5.698 -0.3607  0.4240 -1.3267
   6223SM  C11S 7943   2.783   3.759   5.515  0.0079 -0.3924  0.0572
   6223SM  H11S 7944   2.679   3.788   5.539 -0.5535 -3.2698  1.5031
   6223SM  H11T 7945   2.785   3.659   5.465 -2.7945  0.3152 -1.6863
   6223SM  C12S 7946   2.842   3.863   5.415 -1.1060 -0.2156 -0.3647
   6223SM  H12S 7947   2.943   3.829   5.384 -0.7564 -0.1796  0.7145
   6223SM  H12T 7948   2.863   3.956   5.473  5.2340  0.2758 -2.6648
   6223SM  C13S 7949   2.749   3.899   5.303  0.3460 -0.0801  0.4369
   6223SM  H13S 7950   2.653   3.936   5.346 -1.5947  1.9075 -4.7942
   6223SM  H13T 7951   2.728   3.822   5.225  2.5664 -0.8457  0.5311
   6223SM  C14S 7952   2.798   4.016   5.215 -0.1178 -0.1414 -0.7713
   6223SM  H14S 7953   2.877   3.973   5.150  1.3904  1.8222 -0.3576
   6223SM  H14T 7954   2.850   4.097   5.272 -0.1859  1.8704 -3.3804
   6223SM  C15S 7955   2.689   4.074   5.119  0.6938 -0.0743 -0.1074
   6223SM  H15S 7956   2.615   4.121   5.186 -0.5549 -2.8778  0.6137
   6223SM  H15T 7957   2.628   3.993   5.074 -0.1053  0.6446 -0.3265
   6223SM  C16S 7958   2.741   4.168   5.008 -0.4378 -0.0260 -0.1848
   6223SM  H16S 7959   2.840   4.128   4.978 -1.0522 -1.7888  0.0239
   6223SM  H16T 7960   2.756   4.270   5.050 -0.8190 -1.3256  3.3540
   6223SM  C17S 7961   2.642   4.201   4.893 -0.1027  0.0969  0.3441
   6223SM  H17S 7962   2.570   4.275   4.934 -0.5190 -0.4384  0.6074
   6223SM  H17T 7963   2.578   4.116   4.862  0.4967  0.5506 -2.3274
   6223SM  C18S 7964   2.712   4.259   4.773  0.1181 -0.0243 -0.3529
   6223SM  H18S 7965   2.623   4.289   4.715 -0.5882  0.9967  1.1957
   6223SM  H18T 7966   2.767   4.174   4.726  0.2617 -1.1977  1.7673
   6223SM  H18U 7967   2.774   4.347   4.801  0.7811 -0.9563  1.2903
   6223SM   C1F 7968   2.423   3.108   6.307 -0.1486  0.7403 -0.6562
   6223SM    OF 7969   2.314   3.160   6.294 -0.2247 -0.1221 -1.0873
   6223SM   C2F 7970   2.451   2.963   6.295  0.1592 -0.1123  0.7119
   6223SM   H2F 7971   2.423   2.902   6.383  1.2214 -0.8758  0.5429
   6223SM   H2G 7972   2.562   2.951   6.298  0.4266  1.7633 -0.2056
   6223SM   C3F 7973   2.396   2.901   6.158 -0.3371  0.6207 -0.4156
   6223SM   H3F 7974   2.288   2.925   6.166 -0.2063  0.8084  1.2655
   6223SM   H3G 7975   2.407   2.791   6.144  1.3662  0.7935 -0.5826
   6223SM   C4F 7976   2.446   2.963   6.034 -0.4919  0.0763  0.8039
   6223SM   H4F 7977   2.438   3.074   6.028 -1.4603 -0.0631 -1.5624
   6223SM   H4G 7978   2.380   2.933   5.950  2.1015 -0.8902 -1.0228
   6223SM   C5F 7979   2.590   2.920   5.999 -0.2273 -0.2213  0.0347
   6223SM   H5F 7980   2.601   2.812   6.018 -0.4045 -0.5020 -1.3282
   6223SM   H5G 7981   2.659   2.975   6.066 -0.9022  1.2855 -0.4601
   6223SM   C6F 7982   2.639   2.942   5.854 -0.4813  0.1159 -0.8141
   6223SM   H6F 7983   2.747   2.913   5.857 -0.0117  1.8286  0.9980
   6223SM   H6G 7984   2.636   3.047   5.816 -0.3815  0.8500  1.0941
   6223SM   C7F 7985   2.550   2.851   5.768  0.4799  0.2042  0.3845
   6223SM   H7F 7986   2.450   2.899   5.757 -0.6592 -1.7385  1.7101
   6223SM   H7G 7987   2.532   2.753   5.816  2.2531 -0.5472 -0.4101
   6223SM   C8F 7988   2.618   2.845   5.626  0.2894  0.1776 -0.8710
   6223SM   H8F 7989   2.599   2.751   5.569 -0.7251  0.0739 -0.3837
   6223SM   H8G 7990   2.727   2.862   5.644  0.8128 -1.8412 -1.7472
   6223SM   C9F 7991   2.569   2.954   5.531 -0.2585  0.1538  0.1191
   6223SM   H9F 7992   2.581   3.060   5.563  2.1322 -0.1106  0.3108
   6223SM   H9G 7993   2.464   2.923   5.513  0.0540 -1.2283  0.5304
   6223SM  C10F 7994   2.639   2.950   5.392 -0.0889 -0.3986  0.0535
   6223SM  H10F 7995   2.577   3.011   5.323 -0.2390 -2.8373 -2.1154
   6223SM  H10G 7996   2.660   2.851   5.346 -1.3799  0.0449 -1.6119
   6223SM  C11F 7997   2.785   3.008   5.398 -1.2810 -0.0085  0.5408
   6223SM  H11F 7998   2.848   2.926   5.438  0.5752  0.6466 -0.9116
   6223SM  H11G 7999   2.783   3.094   5.468 -1.8494  0.6105 -0.2170
   6223SM  C12F 8000   2.839   3.044   5.257 -0.1243  0.2424  0.6218
   6223SM  H12F 8001   2.794   2.965   5.194  0.9036  0.5397 -0.5199
   6223SM  H12G 8002   2.950   3.040   5.259  0.0214  1.6997 -1.3501
   6223SM  C13F 8003   2.796   3.181   5.199  0.0354  0.7098  0.2184
   6223SM  H13F 8004   2.825   3.256   5.275  2.2108  0.8909 -0.6911
   6223SM  H13G 8005   2.686   3.185   5.189 -0.3769 -2.0444  2.3785
   6223SM  C14F 8006   2.870   3.207   5.074  0.5025  0.4644  0.1592
   6223SM  H14F 8007   2.978   3.185   5.087  0.8000  0.7896 -1.4755
   6223SM  H14G 8008   2.864   3.315   5.050  1.3457 -0.1155 -3.3156
   6223SM  C15F 8009   2.802   3.132   4.954  0.1364 -0.4142  0.6323
   6223SM  H15F 8010   2.703   3.180   4.941  2.0306  3.4608 -1.1755
   6223SM  H15G 8011   2.787   3.023   4.973  0.0127 -0.0736  2.7536
   6223SM  C16F 8012   2.868   3.166   4.816 -0.2024  0.6788 -0.8392
   6223SM  H16F 8013   2.979   3.168   4.814 -0.1853  0.7595 -0.1339
   6223SM  H16G 8014   2.825   3.263   4.781 -2.3843 -0.1921 -0.7417
   6223SM  C17F 8015   2.836   3.070   4.706  0.2036 -0.3230  0.1685
   6223SM  H17F 8016   2.862   3.113   4.607  1.0253  0.6497  0.7846
   6223SM  H17G 8017   2.726   3.070   4.692  0.1045  1.8795  0.5201
   6223SM  C18F 8018   2.891   2.926   4.726 -0.0829 -0.0275 -0.1522
   6223SM  H18F 8019   2.851   2.880   4.818 -2.1585  0.0149 -0.9899
   6223SM  H18G 8020   3.002   2.924   4.722  0.0066  0.7726  1.3885
   6223SM  C19F 8021   2.847   2.827   4.620 -0.5018  1.0135 -0.2259
   6223SM  H19F 8022   2.894   2.852   4.523  0.0689 -0.1236 -0.2613
   6223SM  H19G 8023   2.738   2.837   4.601 -0.3606  0.8113 -1.1756
   6223SM  C20F 8024   2.884   2.681   4.649 -0.4672 -0.5455 -0.3445
   6223SM  H20F 8025   2.845   2.656   4.750 -0.8782  2.5655  0.3698
   6223SM  H20G 8026   2.995   2.680   4.655 -0.3434  1.3958 -1.3089
   6223SM  C21F 8027   2.847   2.579   4.547  0.9438  0.9834  0.2141
   6223SM  H21F 8028   2.737   2.586   4.536  1.1392  1.3880 -1.6242
   6223SM  H21G 8029   2.870   2.476   4.584  2.9149  2.0277  2.1774
   6223SM  C22F 8030   2.902   2.595   4.403  0.7080 -0.0551  0.4062
   6223SM  H22F 8031   3.013   2.606   4.411  0.7185 -0.3625  0.6978
   6223SM  H22G 8032   2.862   2.684   4.350  1.5447 -0.4714 -0.9897
   6223SM  C23F 8033   2.869   2.465   4.324 -0.3322 -0.2227  0.5586
   6223SM  H23F 8034   2.896   2.372   4.377 -0.2330 -1.0237 -0.8571
   6223SM  H23G 8035   2.916   2.474   4.224 -0.6461  4.0373  0.5935
   6223SM  H23H 8036   2.759   2.458   4.306  0.1474 -2.0863 -2.1038
   6323SM     N 8037   4.789   4.484   7.044  0.1789 -0.2579 -0.5009
   6323SM   C15 8038   4.766   4.487   6.902  0.8606  0.3974 -0.0963
   6323SM  H15A 8039   4.805   4.574   6.853  0.7865 -0.9008 -2.6046
   6323SM  H15B 8040   4.659   4.483   6.886  0.7001 -1.3482  1.0796
   6323SM  H15C 8041   4.811   4.403   6.851  2.0905  0.0541  1.4587
   6323SM   C14 8042   4.935   4.456   7.074  0.2669 -1.0459  0.1166
   6323SM  H14A 8043   4.947   4.438   7.180 -2.6562 -1.2930  0.4710
   6323SM  H14B 8044   4.991   4.541   7.038  1.2330 -0.7865  2.0475
   6323SM  H14C 8045   4.972   4.367   7.025  0.1915 -1.9470  1.6177
   6323SM   C13 8046   4.760   4.625   7.100  0.3198  0.0223  0.0519
   6323SM  H13A 8047   4.807   4.636   7.197 -0.5125  3.8421  0.1888
   6323SM  H13B 8048   4.653   4.629   7.118  0.2319 -0.5550 -0.3107
   6323SM  H13C 8049   4.797   4.706   7.040 -1.7166  0.3376 -0.8753
   6323SM   C12 8050   4.706   4.376   7.118  0.1598  0.1103 -0.2051
   6323SM  H12A 8051   4.742   4.382   7.220 -1.1777  1.0418  0.2268
   6323SM  H12B 8052   4.737   4.280   7.077  2.7141  0.3032  1.0426
   6323SM   C11 8053   4.550   4.378   7.114 -0.3856 -0.0456 -0.1579
   6323SM  H11A 8054   4.520   4.474   7.161  2.5505 -0.1328  2.2654
   6323SM  H11B 8055   4.506   4.294   7.172 -1.6054  0.0404 -0.9372
   6323SM     P 8056   4.389   4.448   6.923  0.2202 -0.3130  0.0013
   6323SM   O13 8057   4.269   4.450   7.010 -0.0572 -0.2951 -0.1465
   6323SM   O14 8058   4.432   4.577   6.872  0.5843  0.3042  0.1588
   6323SM   O11 8059   4.348   4.363   6.798  0.3783 -0.1097 -0.1153
   6323SM   O12 8060   4.510   4.371   6.983 -0.5376  0.0381 -0.0860
   6323SM   C1S 8061   4.446   4.314   6.712 -0.5292  0.5534  0.9250
   6323SM   H1S 8062   4.464   4.206   6.731 -1.4952  0.2768  0.3538
   6323SM   H1T 8063   4.544   4.366   6.719  0.5353 -1.5595  3.9206
   6323SM    NF 8064   4.486   4.266   6.470 -0.2749  0.3500 -0.0490
   6323SM   HNF 8065   4.535   4.318   6.400 -2.1504  1.5113 -0.5912
   6323SM   C2S 8066   4.403   4.342   6.563  0.5097  0.0849 -0.0847
   6323SM   H2S 8067   4.299   4.306   6.554  0.2824  0.6610  0.2235
   6323SM   C3S 8068   4.406   4.498   6.524 -0.1509 -0.0085 -0.1116
   6323SM   H3S 8069   4.508   4.540   6.542 -1.1635  2.3396  0.5532
   6323SM    O3 8070   4.321   4.579   6.603  0.1009 -0.6004 -0.4538
   6323SM   HO3 8071   4.301   4.535   6.685 -3.3448 -0.4099 -1.0394
   6323SM   C4S 8072   4.381   4.522   6.376 -0.5376 -0.2744  0.4939
   6323SM   H4S 8073   4.477   4.525   6.322 -0.1299 -0.4990  1.1912
   6323SM   C5S 8074   4.272   4.539   6.297 -0.5944 -0.1292 -0.8422
   6323SM   H5S 8075   4.174   4.558   6.343 -0.9838  0.1313 -1.7693
   6323SM   C6S 8076   4.293   4.586   6.155  1.0704  0.5022  0.4954
   6323SM   H6S 8077   4.196   4.561   6.107  0.2028 -1.3450  2.9668
   6323SM   H6T 8078   4.374   4.532   6.101 -2.0433 -1.9038 -2.2274
   6323SM   C7S 8079   4.326   4.735   6.141 -0.0940 -0.8222  0.1383
   6323SM   H7S 8080   4.346   4.761   6.035 -0.4987  0.3970  0.3459
   6323SM   H7T 8081   4.419   4.756   6.197 -1.0606 -0.0957  1.5331
   6323SM   C8S 8082   4.204   4.826   6.180 -0.6873 -0.2113  0.1747
   6323SM   H8S 8083   4.180   4.793   6.284 -2.0754 -0.7211 -0.2865
   6323SM   H8T 8084   4.124   4.796   6.109 -0.4477 -0.1451 -0.1207
   6323SM   C9S 8085   4.238   4.973   6.173  1.2751 -0.3174  0.1798
   6323SM   H9S 8086   4.340   4.988   6.213  0.6910  2.4333  0.8630
   6323SM   H9T 8087   4.170   5.036   6.235 -0.7816  0.5646 -2.7658
   6323SM  C10S 8088   4.218   5.032   6.031  0.1854  0.0925  0.2656
   6323SM  H10S 8089   4.121   4.994   5.992  0.4676  1.3485 -1.7997
   6323SM  H10T 8090   4.285   4.989   5.954 -1.2615  1.1998 -1.7105
   6323SM  C11S 8091   4.213   5.188   6.033 -0.5929  0.7696 -0.1149
   6323SM  H11S 8092   4.302   5.226   6.088 -0.4389 -0.1210  0.2673
   6323SM  H11T 8093   4.127   5.212   6.098  0.6429  0.1875  1.8285
   6323SM  C12S 8094   4.203   5.262   5.897  0.0539 -0.1123  0.0030
   6323SM  H12S 8095   4.104   5.226   5.861 -0.9494  2.4858 -0.1167
   6323SM  H12T 8096   4.291   5.226   5.840 -0.1158  0.1634 -0.4422
   6323SM  C13S 8097   4.191   5.411   5.917 -0.5367  0.2709 -0.2235
   6323SM  H13S 8098   4.289   5.452   5.949 -0.5333  1.7874 -2.0383
   6323SM  H13T 8099   4.111   5.438   5.990 -0.2700  1.7284 -0.4540
   6323SM  C14S 8100   4.161   5.474   5.774  0.0675 -0.2929 -0.2704
   6323SM  H14S 8101   4.111   5.569   5.803  1.0024  0.7669 -2.0203
   6323SM  H14T 8102   4.086   5.408   5.724 -0.5642  0.4247 -0.2907
   6323SM  C15S 8103   4.289   5.489   5.695  0.3865  0.1419  0.1461
   6323SM  H15S 8104   4.337   5.389   5.695  2.0691  0.8531  2.6644
   6323SM  H15T 8105   4.349   5.564   5.751 -1.5452 -0.3651  3.1224
   6323SM  C16S 8106   4.280   5.559   5.559  0.0170 -0.6778  0.1580
   6323SM  H16S 8107   4.378   5.606   5.536 -0.3694 -1.1496 -3.0061
   6323SM  H16T 8108   4.217   5.650   5.561  0.7947 -0.0536 -1.5688
   6323SM  C17S 8109   4.230   5.464   5.448 -0.2685  0.6031 -0.1659
   6323SM  H17S 8110   4.206   5.523   5.357  0.3206  1.6371  0.3322
   6323SM  H17T 8111   4.141   5.412   5.489 -0.7298  1.9126  0.5807
   6323SM  C18S 8112   4.345   5.366   5.399 -0.2985  0.1919 -0.3318
   6323SM  H18S 8113   4.310   5.312   5.308 -2.8873  2.2077 -0.6605
   6323SM  H18T 8114   4.377   5.295   5.478 -0.3286 -1.2789 -1.5984
   6323SM  H18U 8115   4.430   5.430   5.368 -1.0349  1.7887  0.8001
   6323SM   C1F 8116   4.489   4.137   6.453  0.2237 -0.0196  0.1367
   6323SM    OF 8117   4.415   4.061   6.513 -0.2491  0.1610 -0.1529
   6323SM   C2F 8118   4.571   4.079   6.332  0.5117  0.4128 -0.2338
   6323SM   H2F 8119   4.512   4.059   6.240 -0.0948  1.6385 -0.1288
   6323SM   H2G 8120   4.613   3.984   6.373 -0.1063  0.9481  1.7312
   6323SM   C3F 8121   4.672   4.177   6.273 -0.0893 -0.6916  0.3819
   6323SM   H3F 8122   4.747   4.209   6.350  0.7891 -0.8670 -0.3848
   6323SM   H3G 8123   4.629   4.274   6.241  1.3610  0.4668  1.7577
   6323SM   C4F 8124   4.745   4.109   6.156  0.4710 -0.5005  0.0048
   6323SM   H4F 8125   4.753   4.000   6.174  3.7285 -0.0248  2.3474
   6323SM   H4G 8126   4.845   4.152   6.138  1.6037 -3.0081 -0.0688
   6323SM   C5F 8127   4.669   4.118   6.014 -0.5714 -0.0467  0.1456
   6323SM   H5F 8128   4.571   4.071   6.032  0.1389 -1.1293  1.3573
   6323SM   H5G 8129   4.727   4.053   5.945  1.4436  1.6396  0.1302
   6323SM   C6F 8130   4.651   4.260   5.951  0.4724 -0.3611  0.2605
   6323SM   H6F 8131   4.750   4.304   5.925  0.2231 -0.9214 -1.8341
   6323SM   H6G 8132   4.612   4.335   6.023  0.5943  0.1771 -0.2231
   6323SM   C7F 8133   4.572   4.266   5.818  0.2524  0.0498 -0.2242
   6323SM   H7F 8134   4.549   4.372   5.793  0.1029 -0.5448 -2.9788
   6323SM   H7G 8135   4.476   4.214   5.838  0.5264 -0.9099 -1.3293
   6323SM   C8F 8136   4.640   4.199   5.696  0.0982  0.3316  0.3668
   6323SM   H8F 8137   4.683   4.103   5.732 -1.3764 -0.0925  1.0919
   6323SM   H8G 8138   4.724   4.267   5.670 -0.0971 -0.4821 -2.8530
   6323SM   C9F 8139   4.552   4.175   5.572 -0.0439  0.7977 -0.0642
   6323SM   H9F 8140   4.528   4.271   5.521  0.7718  0.2148 -1.5969
   6323SM   H9G 8141   4.459   4.118   5.593  0.2462 -0.8489 -2.7482
   6323SM  C10F 8142   4.623   4.093   5.467  0.1538 -0.8067  0.2001
   6323SM  H10F 8143   4.650   3.990   5.495  0.6284 -1.3168 -1.9355
   6323SM  H10G 8144   4.719   4.145   5.444  0.5904 -0.5917  2.3550
   6323SM  C11F 8145   4.539   4.084   5.338  0.7709  0.4459 -0.5712
   6323SM  H11F 8146   4.522   4.186   5.295 -1.3542  0.7418  0.8083
   6323SM  H11G 8147   4.435   4.057   5.368 -0.3331  2.6534 -2.0976
   6323SM  C12F 8148   4.588   3.991   5.228  0.0735 -0.3387  0.6954
   6323SM  H12F 8149   4.662   3.918   5.270 -1.1129 -2.5653 -0.9117
   6323SM  H12G 8150   4.642   4.063   5.163 -1.3272 -0.4479 -0.6201
   6323SM  C13F 8151   4.470   3.928   5.156 -0.1586 -0.0263  0.2569
   6323SM  H13F 8152   4.421   4.004   5.091  0.8890 -0.5522 -1.2102
   6323SM  H13G 8153   4.396   3.881   5.224  0.4627 -1.6125 -0.1201
   6323SM  C14F 8154   4.524   3.820   5.057 -0.5718 -0.7358  0.1268
   6323SM  H14F 8155   4.623   3.856   5.020 -0.8716  1.4947  1.3375
   6323SM  H14G 8156   4.460   3.794   4.971 -0.2954  1.3755 -0.7632
   6323SM  C15F 8157   4.556   3.681   5.121 -0.0694  0.4442  0.2571
   6323SM  H15F 8158   4.462   3.621   5.115 -0.4830  1.2061 -1.9046
   6323SM  H15G 8159   4.577   3.705   5.227  1.8090 -3.7293  1.0393
   6323SM  C16F 8160   4.673   3.602   5.071 -0.3326 -0.5579 -0.1246
   6323SM  H16F 8161   4.705   3.535   5.154  0.9719  1.4106  1.0463
   6323SM  H16G 8162   4.757   3.670   5.045 -0.2829 -0.8634 -0.7913
   6323SM  C17F 8163   4.641   3.494   4.967  0.1738  0.1720  0.2382
   6323SM  H17F 8164   4.564   3.426   5.009 -0.3130  0.7864  0.3525
   6323SM  H17G 8165   4.732   3.431   4.956  0.6816  0.9258 -0.0014
   6323SM  C18F 8166   4.602   3.551   4.831 -0.1998 -0.2680  0.0969
   6323SM  H18F 8167   4.679   3.620   4.790 -1.8419  0.9037 -1.1553
   6323SM  H18G 8168   4.519   3.624   4.845  1.9383  2.9884 -2.5042
   6323SM  C19F 8169   4.570   3.445   4.732  0.0520  0.6709 -0.0105
   6323SM  H19F 8170   4.506   3.364   4.774  1.1977  0.4674  1.4279
   6323SM  H19G 8171   4.671   3.405   4.710  0.5050  2.3588 -1.1882
   6323SM  C20F 8172   4.509   3.492   4.608  0.2346 -0.4954 -0.2965
   6323SM  H20F 8173   4.577   3.548   4.541 -0.0510  0.3195  0.0704
   6323SM  H20G 8174   4.428   3.563   4.638  0.9879 -0.6380  2.3654
   6323SM  C21F 8175   4.448   3.377   4.527 -0.1019  1.0500  0.7376
   6323SM  H21F 8176   4.416   3.415   4.428  1.3361  0.0187 -0.1550
   6323SM  H21G 8177   4.364   3.353   4.596  0.0895  1.0925  0.9869
   6323SM  C22F 8178   4.547   3.263   4.495  0.1701  0.0242 -0.1137
   6323SM  H22F 8179   4.492   3.176   4.453  0.8077  0.0557 -1.0307
   6323SM  H22G 8180   4.586   3.218   4.589 -0.7247 -0.1038  0.2147
   6323SM  C23F 8181   4.669   3.294   4.408 -0.0427  0.1586  0.2552
   6323SM  H23F 8182   4.747   3.216   4.399  0.9530  1.3730 -3.2601
   6323SM  H23G 8183   4.715   3.387   4.447  1.0785 -1.0739  1.9643
   6323SM  H23H 8184   4.627   3.309   4.306  1.5820 -1.9145 -0.7929
   6423SM     N 8185   3.661   3.544   7.125  0.7330 -0.6123 -0.3229
   6423SM   C15 8186   3.630   3.656   7.220  0.1494  0.2908 -0.1102
   6423SM  H15A 8187   3.525   3.667   7.240 -0.0466 -1.7566  0.2221
   6423SM  H15B 8188   3.675   3.741   7.171  0.7033 -0.0622 -0.2138
   6423SM  H15C 8189   3.690   3.645   7.310 -1.8860  0.6100  1.3615
   6423SM   C14 8190   3.618   3.414   7.190  0.0338  1.1290  0.7419
   6423SM  H14A 8191   3.514   3.387   7.173  1.1553 -2.6424 -1.1222
   6423SM  H14B 8192   3.639   3.419   7.296  1.4990 -1.8712  0.6853
   6423SM  H14C 8193   3.667   3.329   7.145 -0.7595  1.1850 -0.2690
   6423SM   C13 8194   3.588   3.574   7.001 -0.0334  0.0012  0.1696
   6423SM  H13A 8195   3.634   3.652   6.943 -0.9809 -0.7686 -1.7351
   6423SM  H13B 8196   3.483   3.599   7.013  0.4568  1.9149  0.7977
   6423SM  H13C 8197   3.591   3.491   6.931  0.3510  0.9130 -0.9314
   6423SM   C12 8198   3.809   3.525   7.097 -0.3592 -0.3292 -0.1828
   6423SM  H12A 8199   3.858   3.513   7.192 -0.2090  1.7620  0.0497
   6423SM  H12B 8200   3.851   3.614   7.053 -4.1102  0.8138 -1.9203
   6423SM   C11 8201   3.843   3.404   7.004 -0.6367  0.3888 -0.0524
   6423SM  H11A 8202   3.811   3.415   6.898 -1.3702  1.0352  0.2268
   6423SM  H11B 8203   3.786   3.311   7.029  1.0241 -1.0397 -1.3009
   6423SM     P 8204   4.088   3.461   6.955  0.1578 -0.3922 -0.1176
   6423SM   O13 8205   4.114   3.575   7.046 -0.1399  0.0858  0.1262
   6423SM   O14 8206   4.202   3.378   6.919 -0.7752  0.0031  0.3982
   6423SM   O11 8207   4.012   3.504   6.819 -0.6333  0.0843  0.0986
   6423SM   O12 8208   3.980   3.371   7.018 -0.7772  0.1498  0.2655
   6423SM   C1S 8209   4.075   3.572   6.706  0.3905  0.0736 -0.4675
   6423SM   H1S 8210   4.185   3.556   6.717  0.7509  1.1012 -2.1957
   6423SM   H1T 8211   4.048   3.680   6.713  3.1600  0.8631 -0.4391
   6423SM    NF 8212   4.110   3.620   6.468 -0.1193  0.5470 -0.4131
   6423SM   HNF 8213   4.048   3.679   6.418 -0.1041  0.3055 -0.7164
   6423SM   C2S 8214   4.048   3.529   6.561  0.7647 -0.1654  0.0739
   6423SM   H2S 8215   4.100   3.431   6.547  2.0378  0.1699  1.9850
   6423SM   C3S 8216   3.892   3.518   6.543  0.6132  0.0890  0.4527
   6423SM   H3S 8217   3.851   3.621   6.546  2.9482  1.0582  0.7231
   6423SM    O3 8218   3.820   3.456   6.654 -0.2539 -0.0384  0.2869
   6423SM   HO3 8219   3.886   3.453   6.723 -0.8166 -0.8626  0.8121
   6423SM   C4S 8220   3.867   3.454   6.411  0.8593  0.0792  0.3313
   6423SM   H4S 8221   3.852   3.524   6.327  0.7174  0.0457  0.3284
   6423SM   C5S 8222   3.866   3.321   6.386 -0.3278  0.1962 -0.0453
   6423SM   H5S 8223   3.897   3.263   6.474  1.4037 -0.2187 -0.8901
   6423SM   C6S 8224   3.856   3.254   6.257  0.0718 -0.5206 -0.4594
   6423SM   H6S 8225   3.757   3.205   6.266 -0.6604  1.2790  2.7741
   6423SM   H6T 8226   3.936   3.179   6.246  2.1519  1.4066  0.7385
   6423SM   C7S 8227   3.852   3.341   6.129  0.2656  0.4253  0.3194
   6423SM   H7S 8228   3.776   3.420   6.150 -2.1800 -1.5997 -0.3400
   6423SM   H7T 8229   3.818   3.279   6.044 -0.4547  1.9596 -0.5609
   6423SM   C8S 8230   3.990   3.403   6.084 -1.1151 -0.8552 -0.1913
   6423SM   H8S 8231   4.066   3.322   6.078 -0.5483 -0.4741  1.3527
   6423SM   H8T 8232   4.030   3.467   6.165 -0.5521 -0.8408 -0.4750
   6423SM   C9S 8233   3.979   3.471   5.947 -0.5282 -0.1705 -0.6298
   6423SM   H9S 8234   3.884   3.528   5.959 -0.1823  0.0651  1.5596
   6423SM   H9T 8235   3.956   3.392   5.873 -4.1369 -0.9741  1.1125
   6423SM  C10S 8236   4.086   3.574   5.888  0.1153 -0.2047 -0.7222
   6423SM  H10S 8237   4.175   3.508   5.890 -1.0294 -1.8738  1.8544
   6423SM  H10T 8238   4.114   3.656   5.957  5.1144 -1.4772 -0.8805
   6423SM  C11S 8239   4.050   3.627   5.749 -0.4168 -0.4069  0.6104
   6423SM  H11S 8240   3.993   3.722   5.759 -0.3523 -0.0135 -2.0626
   6423SM  H11T 8241   3.988   3.555   5.692  0.2568  1.3171 -2.5129
   6423SM  C12S 8242   4.177   3.642   5.666  0.4987  0.1782 -0.7364
   6423SM  H12S 8243   4.212   3.538   5.650  1.5941  0.3342  0.4368
   6423SM  H12T 8244   4.248   3.695   5.733 -0.6870  0.3511  0.4376
   6423SM  C13S 8245   4.163   3.714   5.535  0.2645 -0.6957  0.1134
   6423SM  H13S 8246   4.264   3.747   5.502 -0.5556  4.4973  1.8012
   6423SM  H13T 8247   4.120   3.816   5.546  0.0379 -0.8891  1.1477
   6423SM  C14S 8248   4.086   3.645   5.420  0.4322 -0.3710  0.2151
   6423SM  H14S 8249   3.984   3.634   5.462  0.7613  2.8295  2.1186
   6423SM  H14T 8250   4.133   3.544   5.411 -0.0575 -0.7134  1.3566
   6423SM  C15S 8251   4.082   3.719   5.280 -0.0123  0.1313  0.3216
   6423SM  H15S 8252   4.187   3.744   5.252  1.0670 -2.1881  1.9092
   6423SM  H15T 8253   4.024   3.814   5.289  1.8879  1.2831  1.1793
   6423SM  C16S 8254   4.024   3.627   5.174  0.5374  0.5734  0.0508
   6423SM  H16S 8255   3.923   3.588   5.202  1.6013 -2.8522 -0.3905
   6423SM  H16T 8256   4.085   3.534   5.175  0.0956  0.2850  0.6610
   6423SM  C17S 8257   4.027   3.700   5.035  0.8722  0.2578  0.4086
   6423SM  H17S 8258   4.113   3.768   5.018  0.3050  0.8691 -0.0520
   6423SM  H17T 8259   3.941   3.770   5.033  1.2060  0.6476 -0.4226
   6423SM  C18S 8260   4.014   3.618   4.909  0.0400  0.0418  0.1215
   6423SM  H18S 8261   4.045   3.676   4.820  2.6379  1.6643  1.9293
   6423SM  H18T 8262   3.917   3.564   4.909 -0.5816  1.1099  1.4192
   6423SM  H18U 8263   4.085   3.532   4.906 -1.2894 -1.0716 -0.8073
   6423SM   C1F 8264   4.241   3.634   6.447  0.7294  0.5528 -0.1680
   6423SM    OF 8265   4.320   3.555   6.495  0.6617 -0.4977 -0.2581
   6423SM   C2F 8266   4.289   3.745   6.356  0.4740 -0.1070 -0.3300
   6423SM   H2F 8267   4.372   3.795   6.409  1.7083 -1.4724 -0.9151
   6423SM   H2G 8268   4.207   3.814   6.327  1.5387  2.7227  2.8120
   6423SM   C3F 8269   4.346   3.680   6.225 -0.5341 -0.0974  0.2211
   6423SM   H3F 8270   4.263   3.628   6.172 -0.1968 -1.8756  1.3640
   6423SM   H3G 8271   4.422   3.610   6.266  2.0741  1.4870 -1.6270
   6423SM   C4F 8272   4.420   3.777   6.142  0.0149 -0.2113  1.3688
   6423SM   H4F 8273   4.495   3.838   6.198  1.7556  0.3489 -1.3740
   6423SM   H4G 8274   4.346   3.841   6.089 -0.2988 -1.7513 -0.1325
   6423SM   C5F 8275   4.481   3.705   6.019  0.1703 -0.1464  0.0421
   6423SM   H5F 8276   4.408   3.623   6.001 -1.8507  1.8200 -1.3032
   6423SM   H5G 8277   4.580   3.658   6.037  0.7671  1.2104  0.3978
   6423SM   C6F 8278   4.488   3.794   5.900 -0.6768  0.2784 -0.0488
   6423SM   H6F 8279   4.510   3.900   5.923  0.7774  0.2086 -1.0126
   6423SM   H6G 8280   4.386   3.797   5.855 -0.9881 -2.0369  0.3467
   6423SM   C7F 8281   4.590   3.750   5.794 -0.5370  0.2424  0.1264
   6423SM   H7F 8282   4.654   3.667   5.832  1.1820  1.3971 -0.1378
   6423SM   H7G 8283   4.661   3.833   5.772  0.0957 -0.4519 -0.5205
   6423SM   C8F 8284   4.532   3.712   5.653  0.4442  0.0611 -0.2920
   6423SM   H8F 8285   4.484   3.797   5.601 -0.5443  0.1803  0.7715
   6423SM   H8G 8286   4.453   3.639   5.679  2.5124 -1.5177  2.1495
   6423SM   C9F 8287   4.643   3.635   5.578 -0.0195 -0.5000 -0.3427
   6423SM   H9F 8288   4.600   3.592   5.485  0.7159 -2.6022  0.2200
   6423SM   H9G 8289   4.685   3.552   5.639 -0.1448 -0.6366 -0.4402
   6423SM  C10F 8290   4.752   3.733   5.529  0.2857 -0.1178  0.2445
   6423SM  H10F 8291   4.783   3.799   5.613 -0.0476 -0.5501  0.7151
   6423SM  H10G 8292   4.694   3.799   5.461 -1.5686  0.5603  2.3630
   6423SM  C11F 8293   4.875   3.673   5.459  0.4057  0.3352 -1.2013
   6423SM  H11F 8294   4.847   3.576   5.414  0.4027  0.4597 -1.4710
   6423SM  H11G 8295   4.959   3.649   5.527 -0.7902  0.7534  0.5105
   6423SM  C12F 8296   4.921   3.761   5.344  0.0047 -0.9902  0.0594
   6423SM  H12F 8297   4.933   3.863   5.387 -2.4750 -1.1015  1.2244
   6423SM  H12G 8298   4.847   3.770   5.262  0.7940  1.0132 -0.4852
   6423SM  C13F 8299   5.046   3.709   5.270  0.0739  0.1899  0.0047
   6423SM  H13F 8300   5.036   3.602   5.243 -0.1254  0.5974 -1.6532
   6423SM  H13G 8301   5.124   3.720   5.348 -1.1754  4.0740  0.9314
   6423SM  C14F 8302   5.105   3.802   5.161 -0.1665 -0.0947 -0.9829
   6423SM  H14F 8303   5.213   3.779   5.173  0.2196  1.8193 -0.3114
   6423SM  H14G 8304   5.078   3.906   5.191  1.3938  0.0076  0.2229
   6423SM  C15F 8305   5.061   3.788   5.017 -0.3756  0.5651 -0.0629
   6423SM  H15F 8306   5.128   3.850   4.955  0.4659 -0.1967  0.0567
   6423SM  H15G 8307   4.953   3.812   5.008 -0.6285 -0.6932 -0.6177
   6423SM  C16F 8308   5.061   3.640   4.962 -0.3720 -0.2021  0.4791
   6423SM  H16F 8309   5.017   3.558   5.022 -0.5262  0.5010  1.3583
   6423SM  H16G 8310   5.167   3.606   4.956 -0.7440 -1.1558 -1.1219
   6423SM  C17F 8311   5.000   3.630   4.820  0.2234  0.2472  0.0598
   6423SM  H17F 8312   5.060   3.702   4.761  1.0049 -0.6603 -0.2904
   6423SM  H17G 8313   4.893   3.658   4.817 -0.0615 -0.7427  0.5807
   6423SM  C18F 8314   5.006   3.487   4.774  0.5448  0.2702  0.2050
   6423SM  H18F 8315   4.938   3.437   4.845  1.0469 -1.8570 -0.7350
   6423SM  H18G 8316   5.106   3.438   4.778 -0.0493 -1.0286 -0.3568
   6423SM  C19F 8317   4.958   3.475   4.626  0.2171 -0.1573  0.2357
   6423SM  H19F 8318   4.868   3.531   4.593 -0.2332 -1.4944 -0.8981
   6423SM  H19G 8319   4.943   3.365   4.617 -1.8245  0.2053 -1.7582
   6423SM  C20F 8320   5.066   3.508   4.529 -0.0542  0.4066  0.4692
   6423SM  H20F 8321   5.160   3.466   4.572  1.1226  3.4174  1.1001
   6423SM  H20G 8322   5.085   3.618   4.527  2.4650  0.0838 -3.0187
   6423SM  C21F 8323   5.033   3.466   4.386 -0.0299  0.0728  0.6670
   6423SM  H21F 8324   4.962   3.542   4.348  1.4059  0.7560 -0.7776
   6423SM  H21G 8325   4.967   3.378   4.376  0.3037 -0.0625 -0.3841
   6423SM  C22F 8326   5.163   3.458   4.303  0.1399 -0.4109 -0.7293
   6423SM  H22F 8327   5.223   3.370   4.336  0.6400  0.2012  0.0296
   6423SM  H22G 8328   5.226   3.549   4.316  0.3402 -0.4598 -1.3304
   6423SM  C23F 8329   5.143   3.454   4.153 -0.7801 -0.2835  0.0836
   6423SM  H23F 8330   5.246   3.467   4.113 -1.3158  0.4487 -1.0822
   6423SM  H23G 8331   5.080   3.538   4.118  0.4059  0.5738 -0.0594
   6423SM  H23H 8332   5.116   3.356   4.109  1.7183 -1.3214  0.6601
   6523SM     N 8333   5.458   4.045   6.932 -0.0619  0.0633 -0.0256
   6523SM   C15 8334   5.367   4.073   6.820  0.1205 -0.9998  0.3328
   6523SM  H15A 8335   5.338   3.981   6.770  1.4181 -0.8054 -0.8035
   6523SM  H15B 8336   5.412   4.142   6.751 -0.0333  1.7238  2.7797
   6523SM  H15C 8337   5.275   4.114   6.860  0.0840 -1.1369  0.3943
   6523SM   C14 8338   5.489   4.167   7.009 -0.3666 -0.1082  0.0911
   6523SM  H14A 8339   5.567   4.157   7.083  0.1982  0.3759 -0.4253
   6523SM  H14B 8340   5.399   4.185   7.067  0.4446 -0.6027  1.5401
   6523SM  H14C 8341   5.508   4.258   6.955  0.1411  0.2701  0.8933
   6523SM   C13 8342   5.385   3.959   7.024 -0.1573  0.2106  0.0853
   6523SM  H13A 8343   5.285   3.996   7.042 -0.2171  0.0490  0.0817
   6523SM  H13B 8344   5.442   3.950   7.115 -0.2224 -0.1069  0.0957
   6523SM  H13C 8345   5.373   3.861   6.981 -0.3119  0.0554  0.4782
   6523SM   C12 8346   5.594   3.988   6.886 -0.5364 -0.2130 -0.1553
   6523SM  H12A 8347   5.650   3.971   6.976 -0.7724  3.1404  0.7507
   6523SM  H12B 8348   5.659   4.058   6.835 -2.4334  1.5974 -0.1962
   6523SM   C11 8349   5.589   3.856   6.812  0.6265  0.2201  0.0763
   6523SM  H11A 8350   5.677   3.853   6.744 -0.2382 -0.2866 -1.0467
   6523SM  H11B 8351   5.498   3.858   6.748 -0.4991  1.2568  1.6461
   6523SM     P 8352   5.558   3.610   6.900  0.0604  0.0357  0.3542
   6523SM   O13 8353   5.691   3.547   6.907 -0.5475  0.0684 -0.4488
   6523SM   O14 8354   5.448   3.567   6.989 -0.0836  0.4116  0.1299
   6523SM   O11 8355   5.512   3.589   6.743  0.3818 -0.2321 -0.3101
   6523SM   O12 8356   5.579   3.757   6.916 -0.9489  0.4959  0.0898
   6523SM   C1S 8357   5.374   3.561   6.712 -0.2004  0.0320 -0.8012
   6523SM   H1S 8358   5.296   3.610   6.775  0.1847 -0.8529  0.4067
   6523SM   H1T 8359   5.359   3.453   6.730  0.4693  0.3257  2.1846
   6523SM    NF 8360   5.192   3.595   6.546 -0.4398 -0.0656  0.3963
   6523SM   HNF 8361   5.138   3.515   6.522  1.0285 -1.5658  1.8411
   6523SM   C2S 8362   5.339   3.594   6.563 -0.4769 -0.6732 -0.2606
   6523SM   H2S 8363   5.388   3.692   6.543  1.0237 -1.2532  0.4400
   6523SM   C3S 8364   5.420   3.482   6.484  0.2280  0.1286 -0.7320
   6523SM   H3S 8365   5.375   3.387   6.520  1.4929 -0.7079 -1.2851
   6523SM    O3 8366   5.554   3.451   6.529 -0.1498  0.9718 -0.3679
   6523SM   HO3 8367   5.555   3.483   6.619 -0.1124 -1.5870  0.6427
   6523SM   C4S 8368   5.405   3.503   6.340  0.3784  0.1471 -0.1179
   6523SM   H4S 8369   5.314   3.452   6.305  1.8692 -1.0277 -2.5439
   6523SM   C5S 8370   5.496   3.558   6.250 -0.4773 -0.2859  0.1625
   6523SM   H5S 8371   5.598   3.570   6.290  0.2219 -2.4444 -0.8136
   6523SM   C6S 8372   5.478   3.562   6.097 -0.4602  0.1679  0.1508
   6523SM   H6S 8373   5.408   3.645   6.074 -0.2160  0.6470  1.0830
   6523SM   H6T 8374   5.446   3.465   6.052 -1.6597  0.0884  1.1160
   6523SM   C7S 8375   5.612   3.602   6.035  0.0807  0.4079  0.2519
   6523SM   H7S 8376   5.683   3.516   6.030  0.5236  0.8307 -1.1021
   6523SM   H7T 8377   5.661   3.676   6.102  0.0677 -0.8703  1.7385
   6523SM   C8S 8378   5.608   3.669   5.894  0.4688 -0.2195  0.8819
   6523SM   H8S 8379   5.705   3.699   5.847 -0.7541  0.2526 -1.5087
   6523SM   H8T 8380   5.560   3.769   5.906 -1.4930 -1.2730  2.3487
   6523SM   C9S 8381   5.528   3.595   5.788  0.3079  0.3752 -0.6878
   6523SM   H9S 8382   5.538   3.484   5.796 -0.8557  0.3850  1.4107
   6523SM   H9T 8383   5.571   3.620   5.689 -1.7472 -1.5216 -2.1833
   6523SM  C10S 8384   5.382   3.632   5.765 -0.3959  0.2062 -0.5664
   6523SM  H10S 8385   5.381   3.737   5.729 -0.7236  0.2344 -0.4794
   6523SM  H10T 8386   5.323   3.614   5.858 -1.5322 -0.0724 -1.3174
   6523SM  C11S 8387   5.322   3.522   5.669  0.1206 -0.2617  0.1161
   6523SM  H11S 8388   5.214   3.545   5.666  0.3668  0.8206 -1.2404
   6523SM  H11T 8389   5.340   3.420   5.709  0.8328  0.3165  1.3478
   6523SM  C12S 8390   5.368   3.530   5.524  0.2351  0.8166  0.6273
   6523SM  H12S 8391   5.477   3.514   5.520 -0.2366 -3.8658  0.9775
   6523SM  H12T 8392   5.343   3.632   5.485 -1.3138  0.2338  0.0119
   6523SM  C13S 8393   5.301   3.425   5.426 -0.4406  0.2075 -0.2385
   6523SM  H13S 8394   5.191   3.426   5.433 -0.4531 -1.2754 -0.0326
   6523SM  H13T 8395   5.328   3.322   5.456  0.5911  0.3451 -0.6222
   6523SM  C14S 8396   5.345   3.445   5.281  0.6177 -0.5595  0.2172
   6523SM  H14S 8397   5.456   3.448   5.273  0.5406 -0.3322 -1.0037
   6523SM  H14T 8398   5.297   3.536   5.239 -0.3942 -0.8276  0.7519
   6523SM  C15S 8399   5.293   3.322   5.196  0.0911 -0.0131 -0.3818
   6523SM  H15S 8400   5.186   3.304   5.220  1.0157 -0.5000  4.4499
   6523SM  H15T 8401   5.346   3.227   5.222 -0.2159 -0.3674 -1.0116
   6523SM  C16S 8402   5.315   3.346   5.046  0.4973  0.2355  0.3571
   6523SM  H16S 8403   5.411   3.398   5.022  1.3009 -2.5181 -3.1985
   6523SM  H16T 8404   5.229   3.405   5.010  0.6960 -0.3827 -1.1984
   6523SM  C17S 8405   5.322   3.213   4.967 -0.2408 -0.4843  1.0099
   6523SM  H17S 8406   5.322   3.247   4.861 -0.8023  0.5332  1.3189
   6523SM  H17T 8407   5.238   3.141   4.977 -1.6275  0.8996 -0.0891
   6523SM  C18S 8408   5.456   3.141   4.976 -0.2477  0.1033 -0.4720
   6523SM  H18S 8409   5.537   3.206   4.936 -0.4115 -0.8231 -2.4363
   6523SM  H18T 8410   5.451   3.035   4.943  1.2585  0.0642 -0.6632
   6523SM  H18U 8411   5.486   3.120   5.081  1.0122  0.4348 -0.7381
   6523SM   C1F 8412   5.123   3.706   6.578 -0.1981  0.3372 -0.2422
   6523SM    OF 8413   5.179   3.814   6.597 -0.0323  0.4159  0.2851
   6523SM   C2F 8414   4.977   3.692   6.567  0.1124 -0.1042  0.0384
   6523SM   H2F 8415   4.926   3.695   6.665  1.2609 -1.0116  0.6953
   6523SM   H2G 8416   4.950   3.589   6.535 -0.2165  0.3089 -1.0693
   6523SM   C3F 8417   4.909   3.775   6.457  0.4064 -0.6543  0.9149
   6523SM   H3F 8418   4.949   3.878   6.461  0.9016 -0.7313 -1.1218
   6523SM   H3G 8419   4.798   3.773   6.466 -0.0120  1.4450 -2.3455
   6523SM   C4F 8420   4.935   3.723   6.310 -0.3170 -0.6615  0.5898
   6523SM   H4F 8421   4.849   3.766   6.255  1.3963  0.9773 -0.9397
   6523SM   H4G 8422   4.937   3.612   6.307 -0.9987 -0.6757  0.5750
   6523SM   C5F 8423   5.070   3.783   6.251  0.0221  0.0049 -0.1305
   6523SM   H5F 8424   5.156   3.712   6.254 -0.3274 -0.3970  0.7671
   6523SM   H5G 8425   5.114   3.864   6.314  1.9349  0.2924 -1.7398
   6523SM   C6F 8426   5.062   3.853   6.114  0.0105 -0.0810  0.1875
   6523SM   H6F 8427   5.016   3.953   6.128  1.5050  0.7545 -0.6357
   6523SM   H6G 8428   4.993   3.792   6.052  0.2649 -1.0794  0.8662
   6523SM   C7F 8429   5.190   3.879   6.043  0.8206 -0.0094  0.0871
   6523SM   H7F 8430   5.205   3.780   5.995  0.5818 -0.4473  0.8856
   6523SM   H7G 8431   5.278   3.897   6.109  2.3430 -1.2218 -1.5229
   6523SM   C8F 8432   5.186   3.996   5.941  0.2277 -0.1889  0.3590
   6523SM   H8F 8433   5.291   4.015   5.910 -0.3547 -1.6030 -2.8954
   6523SM   H8G 8434   5.139   4.084   5.990  0.3175  0.3476 -0.5014
   6523SM   C9F 8435   5.117   3.966   5.808  0.1192 -0.3031  0.1558
   6523SM   H9F 8436   5.011   3.939   5.825 -0.0674  0.4831  0.2540
   6523SM   H9G 8437   5.171   3.883   5.757 -0.3311  1.0144 -2.6690
   6523SM  C10F 8438   5.115   4.093   5.723  0.1976  0.0954 -0.5648
   6523SM  H10F 8439   5.212   4.148   5.725 -0.4747  1.3033 -0.0600
   6523SM  H10G 8440   5.039   4.163   5.763  2.2171  1.7868  0.5473
   6523SM  C11F 8441   5.087   4.075   5.579 -0.2811  0.5889  0.5047
   6523SM  H11F 8442   5.009   3.996   5.569  0.4799 -0.1341  0.1953
   6523SM  H11G 8443   5.177   4.039   5.524 -0.3654  0.5042  0.4218
   6523SM  C12F 8444   5.048   4.204   5.509 -0.0712 -0.7761 -0.1286
   6523SM  H12F 8445   5.140   4.266   5.501  0.1961 -1.3291 -1.6504
   6523SM  H12G 8446   4.967   4.261   5.559  0.2486 -0.9111  0.5614
   6523SM  C13F 8447   5.010   4.187   5.359 -0.2574  0.5128 -0.0328
   6523SM  H13F 8448   4.902   4.164   5.351 -0.5578  2.3600 -2.3407
   6523SM  H13G 8449   5.082   4.109   5.325  1.7463  1.3081  2.0819
   6523SM  C14F 8450   5.036   4.318   5.273 -0.0120 -0.2251 -0.2021
   6523SM  H14F 8451   5.146   4.322   5.264  0.0253 -2.3688 -1.2273
   6523SM  H14G 8452   4.989   4.401   5.332 -2.5500 -1.4162 -0.4005
   6523SM  C15F 8453   4.946   4.293   5.146  0.9208 -0.2072  0.1957
   6523SM  H15F 8454   4.943   4.184   5.126 -0.8008  0.0336 -1.1017
   6523SM  H15G 8455   4.991   4.351   5.063  0.8741 -0.9186 -0.3301
   6523SM  C16F 8456   4.797   4.325   5.161 -0.5251 -0.9039  0.8227
   6523SM  H16F 8457   4.778   4.399   5.242 -0.8335 -0.7443  0.6089
   6523SM  H16G 8458   4.736   4.236   5.186 -0.3794 -0.5186  2.7381
   6523SM  C17F 8459   4.738   4.382   5.033  0.1086 -0.4871  0.0732
   6523SM  H17F 8460   4.764   4.317   4.947 -0.4773  0.6254 -0.9789
   6523SM  H17G 8461   4.790   4.479   5.014 -1.9039  0.4963 -0.7478
   6523SM  C18F 8462   4.587   4.385   5.023  0.4383 -0.1215 -0.3761
   6523SM  H18F 8463   4.553   4.432   5.118  0.2964 -0.3896 -0.2923
   6523SM  H18G 8464   4.552   4.279   5.025 -0.5100  0.0896 -2.8678
   6523SM  C19F 8465   4.530   4.481   4.916 -0.3572  0.7438  0.4937
   6523SM  H19F 8466   4.558   4.441   4.816  1.7881  1.6108  0.6946
   6523SM  H19G 8467   4.576   4.582   4.923 -0.6472  0.9565 -0.5696
   6523SM  C20F 8468   4.376   4.482   4.932 -0.1666 -0.2210  0.2518
   6523SM  H20F 8469   4.361   4.520   5.036 -1.7948 -1.6596  0.5839
   6523SM  H20G 8470   4.341   4.377   4.936  0.3916 -0.3878  1.3611
   6523SM  C21F 8471   4.286   4.564   4.841  0.5403 -0.6045  0.0854
   6523SM  H21F 8472   4.284   4.522   4.738  2.1687 -1.6997  0.4651
   6523SM  H21G 8473   4.327   4.667   4.843  0.8207 -0.6577 -1.3990
   6523SM  C22F 8474   4.143   4.567   4.889  0.5937  0.5163 -0.0751
   6523SM  H22F 8475   4.086   4.649   4.841 -0.2974  0.5858  1.0620
   6523SM  H22G 8476   4.136   4.581   4.999  0.1142 -3.7216  0.6340
   6523SM  C23F 8477   4.063   4.434   4.865 -0.1893  0.4917  0.1255
   6523SM  H23F 8478   4.111   4.354   4.927 -1.6631  0.9088  1.9016
   6523SM  H23G 8479   4.060   4.407   4.758  2.0603 -0.2661  0.1762
   6523SM  H23H 8480   3.963   4.448   4.910 -0.3226  1.9713 -0.5796
   6623SM     N 8481   3.573   2.219   7.655  0.2075 -0.0404 -0.2516
   6623SM   C15 8482   3.669   2.245   7.760 -0.1721  0.5329  0.4371
   6623SM  H15A 8483   3.770   2.271   7.735  0.5267 -1.3957  1.1211
   6623SM  H15B 8484   3.679   2.164   7.830 -1.6459 -0.2718 -0.2414
   6623SM  H15C 8485   3.630   2.328   7.818 -2.8305 -0.0163 -0.3851
   6623SM   C14 8486   3.457   2.139   7.705  0.0412 -0.5363 -1.4567
   6623SM  H14A 8487   3.410   2.183   7.791 -1.8989 -0.8611 -2.2818
   6623SM  H14B 8488   3.483   2.041   7.742 -0.5833 -0.5607 -1.0654
   6623SM  H14C 8489   3.379   2.120   7.632 -0.7858 -1.8281 -0.2957
   6623SM   C13 8490   3.503   2.342   7.606  0.0958 -0.2260 -0.7026
   6623SM  H13A 8491   3.423   2.368   7.674 -0.0177  0.5036 -1.1024
   6623SM  H13B 8492   3.452   2.319   7.514 -1.1941  0.4110 -0.1778
   6623SM  H13C 8493   3.572   2.425   7.600 -0.0268 -0.2171 -2.3938
   6623SM   C12 8494   3.651   2.140   7.543  0.4039 -0.0105 -0.4865
   6623SM  H12A 8495   3.703   2.057   7.587  0.2077 -0.5703 -1.3011
   6623SM  H12B 8496   3.734   2.201   7.510  1.1913 -0.9873 -0.3316
   6623SM   C11 8497   3.574   2.090   7.412 -0.3311 -0.2317 -0.7895
   6623SM  H11A 8498   3.510   2.004   7.440  3.1236 -2.1074  2.1939
   6623SM  H11B 8499   3.647   2.045   7.342  0.5734  1.4162 -0.9699
   6623SM     P 8500   3.583   2.295   7.256 -0.3650  0.2655 -0.2254
   6623SM   O13 8501   3.530   2.432   7.272  0.1823 -0.4554 -0.5020
   6623SM   O14 8502   3.731   2.280   7.276  0.1049 -0.2125  0.5359
   6623SM   O11 8503   3.543   2.247   7.116  0.1167 -0.0499  0.5646
   6623SM   O12 8504   3.506   2.197   7.344 -0.2061  0.8241  0.1841
   6623SM   C1S 8505   3.426   2.170   7.091  0.7027 -0.2056 -0.2124
   6623SM   H1S 8506   3.341   2.235   7.123 -0.0108 -0.9454 -0.5774
   6623SM   H1T 8507   3.429   2.082   7.159 -0.9589  1.6916  2.5305
   6623SM    NF 8508   3.275   2.064   6.927  0.1286  0.5251 -0.0171
   6623SM   HNF 8509   3.255   1.968   6.915  0.2974  0.0785  2.7311
   6623SM   C2S 8510   3.408   2.114   6.944 -0.6185  0.3547 -0.1447
   6623SM   H2S 8511   3.423   2.201   6.877 -0.2130 -0.4127 -1.0663
   6623SM   C3S 8512   3.523   2.013   6.915 -0.0371  0.6076  0.1200
   6623SM   H3S 8513   3.517   1.921   6.978  0.2355  1.2916  1.1800
   6623SM    O3 8514   3.650   2.065   6.940  0.3397  0.5824  0.0148
   6623SM   HO3 8515   3.635   2.139   6.999 -0.2428  1.6493 -1.3910
   6623SM   C4S 8516   3.503   1.959   6.773  0.6344 -0.1108  0.5568
   6623SM   H4S 8517   3.420   1.887   6.763 -0.2105  0.6729  1.6322
   6623SM   C5S 8518   3.555   2.004   6.667 -0.4562 -0.0456  0.7772
   6623SM   H5S 8519   3.613   2.098   6.667  0.1227 -0.3178 -1.9996
   6623SM   C6S 8520   3.545   1.939   6.530  0.3644  0.4885  0.1847
   6623SM   H6S 8521   3.482   1.849   6.538  0.9420 -0.0529 -1.1404
   6623SM   H6T 8522   3.641   1.900   6.491 -1.4493 -2.6620 -1.4701
   6623SM   C7S 8523   3.492   2.041   6.433  0.0274  0.0964  0.2114
   6623SM   H7S 8524   3.566   2.124   6.438  1.3886 -1.1376  3.7611
   6623SM   H7T 8525   3.393   2.085   6.457  0.2931  1.4409 -1.0529
   6623SM   C8S 8526   3.489   1.997   6.288  0.1253  0.6826  0.2798
   6623SM   H8S 8527   3.413   1.917   6.280  0.9306 -0.4502  2.7289
   6623SM   H8T 8528   3.579   1.942   6.252 -0.3592  0.0288  0.0632
   6623SM   C9S 8529   3.472   2.108   6.192 -0.4503  0.4733  0.4462
   6623SM   H9S 8530   3.571   2.157   6.182  1.5133 -2.4951  3.3431
   6623SM   H9T 8531   3.398   2.183   6.227 -2.0097 -1.6127  1.9186
   6623SM  C10S 8532   3.430   2.050   6.054 -0.1605 -0.4459 -0.4887
   6623SM  H10S 8533   3.343   1.980   6.063 -0.6803 -0.0206 -1.9684
   6623SM  H10T 8534   3.514   1.983   6.029  2.4803  1.2382  2.9538
   6623SM  C11S 8535   3.409   2.148   5.945  0.3102 -0.4644 -0.1270
   6623SM  H11S 8536   3.507   2.191   5.917  0.3929  0.9250  2.0680
   6623SM  H11T 8537   3.346   2.234   5.977  0.7452 -0.6710  1.3524
   6623SM  C12S 8538   3.355   2.092   5.817  0.6427  0.4431  0.6336
   6623SM  H12S 8539   3.257   2.040   5.829  0.4840  1.0280  2.1445
   6623SM  H12T 8540   3.427   2.021   5.772 -0.4091  0.8480 -1.8332
   6623SM  C13S 8541   3.331   2.209   5.722  0.5645 -0.5983 -0.2725
   6623SM  H13S 8542   3.423   2.268   5.702  0.4574 -1.4092 -3.8037
   6623SM  H13T 8543   3.261   2.284   5.766  1.4422  1.7609 -2.5849
   6623SM  C14S 8544   3.290   2.163   5.579  0.8330 -0.4532  0.0666
   6623SM  H14S 8545   3.378   2.101   5.552  0.5584 -2.2003  2.7769
   6623SM  H14T 8546   3.275   2.251   5.513 -0.0878  0.1114  0.9980
   6623SM  C15S 8547   3.165   2.086   5.577  0.3897 -0.4076  0.3998
   6623SM  H15S 8548   3.077   2.147   5.605  0.2569 -0.9795  1.2811
   6623SM  H15T 8549   3.178   2.006   5.654 -1.9850 -0.7821  0.4858
   6623SM  C16S 8550   3.140   2.029   5.433 -0.5420 -0.1020  0.1772
   6623SM  H16S 8551   3.064   1.948   5.430 -1.2370  0.5700 -1.0696
   6623SM  H16T 8552   3.239   1.983   5.414 -0.1314  0.4177  1.0175
   6623SM  C17S 8553   3.106   2.137   5.328 -0.0134 -0.5500  0.6123
   6623SM  H17S 8554   3.190   2.210   5.330 -1.2633  0.9394  1.6281
   6623SM  H17T 8555   3.019   2.194   5.366 -0.4164 -0.1942 -0.7965
   6623SM  C18S 8556   3.090   2.084   5.189  0.1237 -0.1356 -0.4870
   6623SM  H18S 8557   3.181   2.026   5.164 -1.2414 -2.7065  0.2431
   6623SM  H18T 8558   3.090   2.166   5.114 -1.4356 -0.0789 -0.4427
   6623SM  H18U 8559   3.006   2.016   5.167 -1.3259  1.7144 -0.9667
   6623SM   C1F 8560   3.163   2.137   6.931 -0.1657  0.3603 -0.1623
   6623SM    OF 8561   3.159   2.263   6.944  0.5025  0.2710 -0.4441
   6623SM   C2F 8562   3.031   2.061   6.902 -0.0496  0.1804  0.1985
   6623SM   H2F 8563   2.973   2.050   6.996 -2.2276  4.1838 -0.4860
   6623SM   H2G 8564   3.049   1.958   6.865  1.2904  1.2393 -2.3189
   6623SM   C3F 8565   2.943   2.128   6.785 -0.4008  0.6856 -0.1267
   6623SM   H3F 8566   2.904   2.223   6.827 -2.6494 -0.4923  0.6599
   6623SM   H3G 8567   2.853   2.063   6.772  0.2292 -0.3154  0.3736
   6623SM   C4F 8568   3.017   2.150   6.650  0.3689 -0.2449 -0.9030
   6623SM   H4F 8569   3.108   2.214   6.658  1.8478 -2.0629 -2.2060
   6623SM   H4G 8570   2.950   2.205   6.580 -0.9199 -1.0703 -0.3632
   6623SM   C5F 8571   3.063   2.022   6.584  0.7694  0.3879  0.1406
   6623SM   H5F 8572   2.984   1.944   6.579  1.5247 -0.3133 -1.5534
   6623SM   H5G 8573   3.145   1.978   6.644  0.4081 -0.9686 -0.3127
   6623SM   C6F 8574   3.116   2.032   6.439  0.1661 -0.2979 -0.1888
   6623SM   H6F 8575   3.190   1.951   6.421  0.3260  0.0786 -1.2958
   6623SM   H6G 8576   3.166   2.131   6.430 -4.0985  1.9058 -2.2280
   6623SM   C7F 8577   3.016   2.025   6.321 -0.0062  0.0111  0.0174
   6623SM   H7F 8578   2.936   2.101   6.330 -2.6339 -2.4841 -0.7583
   6623SM   H7G 8579   2.952   1.934   6.322 -0.4029  0.2940  1.0313
   6623SM   C8F 8580   3.095   2.020   6.190 -0.6837 -0.0575  0.1389
   6623SM   H8F 8581   3.125   1.916   6.163 -0.3797  0.2638 -0.8214
   6623SM   H8G 8582   3.188   2.077   6.213 -1.1043  0.0022  1.7641
   6623SM   C9F 8583   3.036   2.098   6.074 -0.5886  0.2487 -0.7265
   6623SM   H9F 8584   3.114   2.098   5.995  0.8946 -1.2048  0.6620
   6623SM   H9G 8585   3.013   2.199   6.114  0.0366 -0.2917  1.0679
   6623SM  C10F 8586   2.903   2.042   6.019 -0.0821  0.5153 -0.9581
   6623SM  H10F 8587   2.821   2.050   6.094  1.9357  0.1531  1.4187
   6623SM  H10G 8588   2.930   1.934   6.011  1.3030  0.5851  1.7939
   6623SM  C11F 8589   2.861   2.118   5.893 -0.5941 -0.0813 -0.0553
   6623SM  H11F 8590   2.931   2.092   5.811  0.3393  1.6628  0.1317
   6623SM  H11G 8591   2.872   2.228   5.905  0.1405 -0.3975  3.1235
   6623SM  C12F 8592   2.716   2.084   5.845 -0.2505 -0.1313  0.5716
   6623SM  H12F 8593   2.648   2.090   5.932 -0.7472  0.1582  0.1642
   6623SM  H12G 8594   2.713   1.978   5.812  0.8308  0.0084 -0.0402
   6623SM  C13F 8595   2.669   2.158   5.713 -0.5080 -0.0707 -0.5656
   6623SM  H13F 8596   2.733   2.134   5.625  2.3419  1.8428  0.8324
   6623SM  H13G 8597   2.697   2.265   5.723 -0.0243 -0.2079 -0.4517
   6623SM  C14F 8598   2.514   2.131   5.688  0.5697 -0.0403 -0.5114
   6623SM  H14F 8599   2.459   2.152   5.782 -0.2627 -2.9927 -0.2438
   6623SM  H14G 8600   2.503   2.023   5.665  2.7566 -0.4901  0.3472
   6623SM  C15F 8601   2.458   2.206   5.564 -1.2532 -0.1089  0.3961
   6623SM  H15F 8602   2.530   2.191   5.481 -0.2564 -0.7626  1.3414
   6623SM  H15G 8603   2.448   2.314   5.588  1.7709 -0.1448  2.4640
   6623SM  C16F 8604   2.315   2.160   5.533  0.0605 -0.5813 -0.3251
   6623SM  H16F 8605   2.245   2.202   5.607 -2.4286 -0.1967 -2.7353
   6623SM  H16G 8606   2.307   2.049   5.533  0.9066 -0.7388  2.7268
   6623SM  C17F 8607   2.252   2.212   5.396 -0.6658  0.3249  0.0461
   6623SM  H17F 8608   2.319   2.206   5.308 -1.7309 -1.6208 -0.7002
   6623SM  H17G 8609   2.248   2.322   5.408  0.2658  0.4117 -0.3918
   6623SM  C18F 8610   2.115   2.146   5.383  0.8783 -0.2692  0.3749
   6623SM  H18F 8611   2.046   2.188   5.459  1.3461  0.7793  0.2438
   6623SM  H18G 8612   2.126   2.039   5.408 -1.5044 -0.4558  0.8487
   6623SM  C19F 8613   2.050   2.165   5.244  1.2036  0.0788 -0.1463
   6623SM  H19F 8614   1.966   2.093   5.236  0.6033  0.5560  1.4939
   6623SM  H19G 8615   2.134   2.147   5.175  1.2318  1.6490 -0.5688
   6623SM  C20F 8616   1.985   2.310   5.210  0.0975 -0.2225 -0.5890
   6623SM  H20F 8617   2.064   2.382   5.242  0.2024 -0.0701 -1.1816
   6623SM  H20G 8618   1.889   2.316   5.265  0.5190 -1.7435  0.3889
   6623SM  C21F 8619   1.966   2.321   5.061 -0.1368  0.1419 -0.0688
   6623SM  H21F 8620   1.871   2.278   5.023 -0.2794 -0.8688  1.3336
   6623SM  H21G 8621   2.046   2.260   5.015 -0.0218  1.7292 -2.1154
   6623SM  C22F 8622   1.977   2.463   5.000 -0.1998  0.5477  0.2134
   6623SM  H22F 8623   2.048   2.524   5.059  2.5696 -1.3289 -0.9780
   6623SM  H22G 8624   1.878   2.512   5.013  0.2037  1.8839 -1.3707
   6623SM  C23F 8625   2.020   2.472   4.854  0.1067  0.2040 -0.3132
   6623SM  H23F 8626   2.118   2.421   4.844  0.5035  0.4698  1.6636
   6623SM  H23G 8627   2.038   2.581   4.838 -2.2998  0.5171 -1.3430
   6623SM  H23H 8628   1.946   2.423   4.788  0.7405 -0.5153 -0.4969
   6723SM     N 8629   3.197   6.197   7.245 -0.4421  0.1691  0.3571
   6723SM   C15 8630   3.058   6.180   7.211  0.0267  0.1438 -0.4800
   6723SM  H15A 8631   3.006   6.122   7.286 -0.3744  1.7354  0.5252
   6723SM  H15B 8632   3.051   6.117   7.124 -1.0604  0.6926 -0.8113
   6723SM  H15C 8633   3.001   6.270   7.198 -1.2526 -0.3116  1.4614
   6723SM   C14 8634   3.221   6.287   7.369  0.6522  0.4038  0.1757
   6723SM  H14A 8635   3.327   6.286   7.391  0.2225 -1.1130  2.4604
   6723SM  H14B 8636   3.165   6.239   7.448 -1.7888  2.8793  0.0900
   6723SM  H14C 8637   3.192   6.390   7.358  0.2264  0.1103 -1.8980
   6723SM   C13 8638   3.256   6.063   7.273 -0.2672 -0.2627  0.2856
   6723SM  H13A 8639   3.206   6.007   7.350 -0.4478  1.5435  1.5371
   6723SM  H13B 8640   3.358   6.076   7.306 -1.2146  3.2010  2.4118
   6723SM  H13C 8641   3.259   6.010   7.179  1.1073  2.9998 -1.6663
   6723SM   C12 8642   3.272   6.257   7.127  0.5244  0.2997  0.0507
   6723SM  H12A 8643   3.370   6.289   7.159  0.6440  2.6485 -2.3903
   6723SM  H12B 8644   3.212   6.345   7.110 -0.8791 -0.8066 -1.0767
   6723SM   C11 8645   3.304   6.173   6.997 -0.2507 -0.7588  0.0517
   6723SM  H11A 8646   3.337   6.246   6.921 -0.6123  0.0794  0.6857
   6723SM  H11B 8647   3.209   6.132   6.957 -0.2074  1.0797 -2.0708
   6723SM     P 8648   3.549   6.096   7.024  0.2671 -0.0315  0.1842
   6723SM   O13 8649   3.563   6.235   7.070  0.3741 -0.4252  0.3400
   6723SM   O14 8650   3.615   5.994   7.107  0.3490  0.1232 -0.3009
   6723SM   O11 8651   3.586   6.079   6.874  0.6446 -0.0269  0.5642
   6723SM   O12 8652   3.393   6.064   7.021 -0.0396 -0.1798 -0.3202
   6723SM   C1S 8653   3.496   5.994   6.786  0.4199  0.5299  0.9283
   6723SM   H1S 8654   3.390   6.028   6.785 -1.2113 -3.8393  0.5470
   6723SM   H1T 8655   3.493   5.887   6.815 -1.2168 -0.1798 -1.5168
   6723SM    NF 8656   3.423   6.009   6.534  0.5134  0.0327 -1.0803
   6723SM   HNF 8657   3.375   5.932   6.492  0.4581 -1.0077  0.7697
   6723SM   C2S 8658   3.533   5.994   6.626  0.2088  0.2830 -0.3312
   6723SM   H2S 8659   3.583   6.093   6.627 -0.7845  0.8010  0.0683
   6723SM   C3S 8660   3.642   5.884   6.605  0.1161  0.4878  0.2134
   6723SM   H3S 8661   3.605   5.780   6.595 -0.5563  0.6282  1.0718
   6723SM    O3 8662   3.738   5.867   6.706 -0.1245 -0.0304 -0.3518
   6723SM   HO3 8663   3.730   5.938   6.770 -0.8761 -0.7595  0.3893
   6723SM   C4S 8664   3.714   5.909   6.481  0.5426 -0.0269  1.1282
   6723SM   H4S 8665   3.683   5.845   6.398 -2.1562  1.6003  0.7891
   6723SM   C5S 8666   3.802   6.006   6.456 -0.4117 -0.1855  0.3971
   6723SM   H5S 8667   3.818   6.071   6.543 -0.9006 -1.9817  1.8861
   6723SM   C6S 8668   3.880   6.037   6.330  0.1579 -0.2579  0.1388
   6723SM   H6S 8669   3.991   6.042   6.338  0.1148 -0.3388  0.7758
   6723SM   H6T 8670   3.855   6.141   6.301  2.1954  0.1524 -0.3152
   6723SM   C7S 8671   3.856   5.957   6.198 -0.0371  0.4696  0.1757
   6723SM   H7S 8672   3.901   6.008   6.111  1.7296  2.2766  2.0449
   6723SM   H7T 8673   3.747   5.932   6.193  0.2276 -0.6482 -0.3073
   6723SM   C8S 8674   3.931   5.816   6.208  0.5178 -0.1675 -0.0866
   6723SM   H8S 8675   3.914   5.776   6.310 -2.2728 -0.4721 -0.5776
   6723SM   H8T 8676   4.039   5.827   6.186  0.6427 -1.4243 -0.1694
   6723SM   C9S 8677   3.876   5.719   6.099  0.0210 -0.0739 -0.1311
   6723SM   H9S 8678   3.769   5.697   6.118  0.4304 -0.6984  1.6760
   6723SM   H9T 8679   3.925   5.619   6.111 -0.9987 -0.5740 -0.0519
   6723SM  C10S 8680   3.898   5.771   5.955  0.3381 -0.2099  0.2011
   6723SM  H10S 8681   4.006   5.788   5.940 -0.2370  2.1004 -1.8785
   6723SM  H10T 8682   3.845   5.866   5.934 -0.3013 -0.4667  0.6065
   6723SM  C11S 8683   3.841   5.667   5.853  0.1825  0.3180 -0.4786
   6723SM  H11S 8684   3.731   5.664   5.861 -0.1205  0.3678 -3.5775
   6723SM  H11T 8685   3.901   5.577   5.881  1.2101  1.4015  0.9293
   6723SM  C12S 8686   3.876   5.690   5.706 -0.0395 -0.8886 -0.0874
   6723SM  H12S 8687   3.983   5.720   5.695 -0.3804 -0.1999 -1.9139
   6723SM  H12T 8688   3.820   5.782   5.679 -0.3380 -1.4374 -1.4155
   6723SM  C13S 8689   3.838   5.573   5.617  0.4688 -0.2941  0.1517
   6723SM  H13S 8690   3.730   5.549   5.629 -0.0855  1.5988 -0.6911
   6723SM  H13T 8691   3.897   5.484   5.648  0.4573 -0.4297 -0.2089
   6723SM  C14S 8692   3.861   5.609   5.470 -0.0412 -0.2963  0.1206
   6723SM  H14S 8693   3.958   5.662   5.461 -0.2766 -0.0286 -0.9235
   6723SM  H14T 8694   3.788   5.688   5.444 -0.1020 -0.0842  0.8949
   6723SM  C15S 8695   3.839   5.485   5.382 -0.4493 -0.2993  0.3783
   6723SM  H15S 8696   3.737   5.448   5.407 -0.2440 -1.4286 -0.3746
   6723SM  H15T 8697   3.923   5.414   5.395 -1.5905 -1.7491  0.0676
   6723SM  C16S 8698   3.832   5.523   5.232 -0.4276 -0.2492 -0.1074
   6723SM  H16S 8699   3.923   5.570   5.190 -0.6743 -0.0948 -0.4752
   6723SM  H16T 8700   3.758   5.604   5.217 -1.5212 -1.1332  0.4176
   6723SM  C17S 8701   3.798   5.399   5.137  0.0983 -0.0343  0.0037
   6723SM  H17S 8702   3.753   5.428   5.040  0.8593 -0.6368 -0.5401
   6723SM  H17T 8703   3.720   5.350   5.199  1.4230  1.1739  2.8015
   6723SM  C18S 8704   3.911   5.294   5.117 -0.2816 -0.2051  0.0148
   6723SM  H18S 8705   3.859   5.211   5.066  1.3967 -2.3952  1.6775
   6723SM  H18T 8706   3.951   5.253   5.212  2.2585 -0.1642 -0.9707
   6723SM  H18U 8707   3.994   5.327   5.051  0.5921 -1.4840  0.4427
   6723SM   C1F 8708   3.355   6.124   6.518 -0.2747 -0.1754  0.9274
   6723SM    OF 8709   3.395   6.229   6.561  0.4419 -0.1412  0.3414
   6723SM   C2F 8710   3.225   6.112   6.434  0.2869  0.2574 -0.2710
   6723SM   H2F 8711   3.161   6.190   6.481 -0.3068 -0.5516  0.2807
   6723SM   H2G 8712   3.183   6.011   6.449 -0.1526  0.3713 -0.7179
   6723SM   C3F 8713   3.238   6.143   6.283 -0.0611 -0.4771 -0.6438
   6723SM   H3F 8714   3.263   6.251   6.272  0.5230 -0.4226  0.9664
   6723SM   H3G 8715   3.142   6.120   6.232  0.2937 -1.3678 -0.9224
   6723SM   C4F 8716   3.343   6.060   6.215 -0.1561 -0.2539  0.4442
   6723SM   H4F 8717   3.331   5.950   6.226 -0.4301 -0.3429 -0.6286
   6723SM   H4G 8718   3.442   6.087   6.258  0.2503  2.3452 -1.8418
   6723SM   C5F 8719   3.352   6.099   6.064  0.1405 -0.3702 -0.0872
   6723SM   H5F 8720   3.357   6.210   6.054  1.9871 -0.5444 -1.6317
   6723SM   H5G 8721   3.264   6.049   6.017  0.1767 -3.5993  2.8793
   6723SM   C6F 8722   3.474   6.041   6.000  0.2672 -0.3217 -0.2784
   6723SM   H6F 8723   3.483   5.930   6.009 -3.2791 -0.7032 -0.3601
   6723SM   H6G 8724   3.562   6.086   6.051 -1.4800  2.4498  0.4802
   6723SM   C7F 8725   3.474   6.066   5.847 -0.2310 -1.2313 -0.0508
   6723SM   H7F 8726   3.458   6.175   5.833  0.1641 -1.3655 -1.7177
   6723SM   H7G 8727   3.386   6.016   5.803 -1.8234 -0.0462  1.6363
   6723SM   C8F 8728   3.605   6.023   5.777 -0.7482 -0.0810  0.7937
   6723SM   H8F 8729   3.591   6.031   5.667 -0.3348 -0.6924  0.6912
   6723SM   H8G 8730   3.627   5.917   5.800 -0.6833 -0.3744 -0.5601
   6723SM   C9F 8731   3.725   6.101   5.827 -0.2324 -0.2419 -0.3902
   6723SM   H9F 8732   3.755   6.061   5.927  0.1605  0.5542 -0.1766
   6723SM   H9G 8733   3.716   6.211   5.843  0.4289 -0.3942  1.3319
   6723SM  C10F 8734   3.847   6.083   5.737 -0.8077 -0.1605  0.0610
   6723SM  H10F 8735   3.867   5.975   5.722 -1.8978 -0.0968 -2.4609
   6723SM  H10G 8736   3.938   6.135   5.774  0.0594 -0.4767 -1.5432
   6723SM  C11F 8737   3.837   6.140   5.592  0.2540 -0.2820 -0.1696
   6723SM  H11F 8738   3.837   6.250   5.605 -1.6753  0.1059 -2.6441
   6723SM  H11G 8739   3.742   6.099   5.550 -0.5257 -1.3957  2.4392
   6723SM  C12F 8740   3.948   6.099   5.494 -0.0482  1.0615 -0.1173
   6723SM  H12F 8741   4.046   6.112   5.543  0.3877  0.7458 -0.8932
   6723SM  H12G 8742   3.940   6.157   5.399 -0.2670  1.0052 -0.1334
   6723SM  C13F 8743   3.954   5.943   5.460 -0.3999  0.2889 -0.5152
   6723SM  H13F 8744   3.858   5.905   5.501  0.9301 -1.4659  1.1759
   6723SM  H13G 8745   4.038   5.890   5.509 -0.4064 -0.0793 -0.8986
   6723SM  C14F 8746   3.969   5.915   5.305 -0.0688 -0.0798 -0.1423
   6723SM  H14F 8747   3.977   5.805   5.290 -0.1128  0.0545 -1.2619
   6723SM  H14G 8748   4.068   5.946   5.267  0.8669 -1.2134  1.2814
   6723SM  C15F 8749   3.866   5.985   5.216  0.3449 -0.1803  0.2368
   6723SM  H15F 8750   3.805   6.061   5.269  0.9738  0.7110 -0.2744
   6723SM  H15G 8751   3.785   5.923   5.172 -0.0730  1.3204 -1.2364
   6723SM  C16F 8752   3.938   6.065   5.092  0.9445  0.8596 -0.2802
   6723SM  H16F 8753   3.963   5.991   5.013 -2.0703 -0.6782  0.0529
   6723SM  H16G 8754   4.024   6.120   5.134 -0.8475  1.9270  2.1996
   6723SM  C17F 8755   3.844   6.169   5.039  0.1165  0.0805  0.3896
   6723SM  H17F 8756   3.805   6.224   5.127  2.7233  1.1871  0.9386
   6723SM  H17G 8757   3.758   6.117   4.992 -1.1718  1.5715  0.9831
   6723SM  C18F 8758   3.906   6.262   4.935  0.1496  0.1986  0.0406
   6723SM  H18F 8759   3.989   6.323   4.978 -0.2008  1.9209 -1.5869
   6723SM  H18G 8760   3.837   6.345   4.908 -2.4063 -1.1096  2.1306
   6723SM  C19F 8761   3.948   6.186   4.811  0.0414 -0.5087  0.4249
   6723SM  H19F 8762   3.861   6.121   4.785 -0.8774  1.0326 -0.4807
   6723SM  H19G 8763   4.026   6.109   4.832 -0.5474 -2.0764 -2.4696
   6723SM  C20F 8764   3.983   6.278   4.693  0.3105  0.4388 -0.0509
   6723SM  H20F 8765   4.093   6.296   4.693  0.2552  0.9826 -1.9554
   6723SM  H20G 8766   3.926   6.372   4.706 -0.8995 -0.1522 -0.9068
   6723SM  C21F 8767   3.947   6.221   4.549  0.3144  0.2455  0.3411
   6723SM  H21F 8768   3.841   6.189   4.561 -0.1282  1.4752 -0.1407
   6723SM  H21G 8769   4.009   6.131   4.528  0.1471 -0.3814  2.3097
   6723SM  C22F 8770   3.965   6.317   4.433 -0.1143 -0.0820 -0.6064
   6723SM  H22F 8771   3.931   6.420   4.459 -0.2144 -0.1528 -0.4499
   6723SM  H22G 8772   3.891   6.279   4.361 -2.1710  0.6706  0.9913
   6723SM  C23F 8773   4.103   6.322   4.372  0.7605  0.0388 -0.0488
   6723SM  H23F 8774   4.120   6.248   4.290 -3.0683  1.8153 -2.7510
   6723SM  H23G 8775   4.179   6.316   4.453 -0.8889  0.1111  1.5829
   6723SM  H23H 8776   4.113   6.415   4.312 -3.7875 -0.6983 -2.3791
   6823SM     N 8777   2.671   1.359   7.828  0.3790 -0.1258 -0.5440
   6823SM   C15 8778   2.618   1.239   7.900 -0.3648 -0.2141 -0.2996
   6823SM  H15A 8779   2.632   1.249   8.007  2.1154 -0.0814 -0.5796
   6823SM  H15B 8780   2.686   1.158   7.876  0.9475  1.0138 -0.9047
   6823SM  H15C 8781   2.519   1.206   7.874 -0.2576 -0.7407 -0.0485
   6823SM   C14 8782   2.645   1.478   7.910 -0.3527 -0.5135 -0.2953
   6823SM  H14A 8783   2.694   1.567   7.874 -2.3736  0.8572  0.1728
   6823SM  H14B 8784   2.663   1.454   8.014 -0.7702 -0.8217 -0.2928
   6823SM  H14C 8785   2.538   1.496   7.907 -0.4392 -1.1532 -1.4413
   6823SM   C13 8786   2.816   1.340   7.829 -1.2132  0.3437  0.3510
   6823SM  H13A 8787   2.861   1.300   7.919 -0.4091  1.2782  0.3877
   6823SM  H13B 8788   2.870   1.429   7.801 -1.1743  0.2518  0.1289
   6823SM  H13C 8789   2.831   1.267   7.751 -0.8696  0.3037  0.4543
   6823SM   C12 8790   2.616   1.375   7.691 -0.2997  0.2238  0.5775
   6823SM  H12A 8791   2.645   1.467   7.642 -0.0762  0.3219  0.8867
   6823SM  H12B 8792   2.508   1.377   7.690 -0.3176  0.3970 -1.6698
   6823SM   C11 8793   2.647   1.265   7.582  0.3175  0.4990  0.3807
   6823SM  H11A 8794   2.584   1.273   7.491  0.0767  1.2086  0.5998
   6823SM  H11B 8795   2.616   1.167   7.625 -2.1362  0.7640 -0.6477
   6823SM     P 8796   2.850   1.363   7.449  0.4459  0.0432  0.7267
   6823SM   O13 8797   2.830   1.507   7.490 -0.1054 -0.2369 -0.6626
   6823SM   O14 8798   2.987   1.325   7.423  0.4001  0.0140 -0.2146
   6823SM   O11 8799   2.770   1.339   7.310  0.8572  0.1257 -0.3932
   6823SM   O12 8800   2.789   1.257   7.550  0.1688  0.4258 -0.3371
   6823SM   C1S 8801   2.705   1.433   7.226 -0.1798  0.2426 -0.8177
   6823SM   H1S 8802   2.754   1.531   7.243 -0.8874  0.4300  0.2492
   6823SM   H1T 8803   2.602   1.452   7.265  0.3228  1.4258 -0.0050
   6823SM    NF 8804   2.632   1.489   7.010  0.0558 -0.1800  0.2055
   6823SM   HNF 8805   2.553   1.443   6.968  2.3329 -2.1845 -2.2127
   6823SM   C2S 8806   2.710   1.388   7.086 -0.1969  0.5762  0.1844
   6823SM   H2S 8807   2.815   1.389   7.051 -0.3648  0.6912 -0.3225
   6823SM   C3S 8808   2.648   1.243   7.075 -0.6734 -0.3332  0.0700
   6823SM   H3S 8809   2.538   1.248   7.090 -0.6682 -1.9792  0.8886
   6823SM    O3 8810   2.695   1.140   7.166 -0.3176  0.2573  0.0744
   6823SM   HO3 8811   2.741   1.199   7.227 -0.3228 -0.1270  0.4519
   6823SM   C4S 8812   2.670   1.190   6.933 -0.0296  0.1208 -0.0525
   6823SM   H4S 8813   2.775   1.176   6.905  0.5057  0.7728  1.5012
   6823SM   C5S 8814   2.578   1.142   6.846 -0.2485 -0.1434  0.0321
   6823SM   H5S 8815   2.476   1.136   6.887 -0.1565  2.2324  0.7426
   6823SM   C6S 8816   2.597   1.100   6.694 -0.1169 -0.0829 -0.6174
   6823SM   H6S 8817   2.516   1.144   6.632  0.3186 -0.7700 -1.7186
   6823SM   H6T 8818   2.594   0.990   6.684 -1.0598 -0.5100  3.0685
   6823SM   C7S 8819   2.728   1.151   6.630 -0.1367 -0.4177 -0.7011
   6823SM   H7S 8820   2.811   1.099   6.681  0.0610 -0.2417 -0.8416
   6823SM   H7T 8821   2.731   1.260   6.652  1.3246 -0.0608 -2.4239
   6823SM   C8S 8822   2.723   1.137   6.475 -0.0647  0.1386  0.2082
   6823SM   H8S 8823   2.622   1.113   6.434  0.9434 -2.5444 -0.9418
   6823SM   H8T 8824   2.774   1.046   6.435 -1.2774 -0.1375 -0.7884
   6823SM   C9S 8825   2.781   1.259   6.406  0.0695 -0.0306  0.9553
   6823SM   H9S 8826   2.881   1.293   6.439  0.4279 -0.8124  0.7090
   6823SM   H9T 8827   2.724   1.349   6.440 -1.6662 -1.1414  1.1299
   6823SM  C10S 8828   2.792   1.255   6.253  0.2514  0.1331 -0.5741
   6823SM  H10S 8829   2.880   1.195   6.219 -0.3669 -0.6345 -0.8474
   6823SM  H10T 8830   2.819   1.356   6.215 -1.1738  0.2465 -1.3503
   6823SM  C11S 8831   2.661   1.216   6.192 -0.7125 -0.0002  0.9557
   6823SM  H11S 8832   2.588   1.297   6.216  0.4252  2.1949 -2.2775
   6823SM  H11T 8833   2.623   1.113   6.210  0.4061 -1.1676 -2.5784
   6823SM  C12S 8834   2.673   1.235   6.038  0.1050 -0.1040  0.4419
   6823SM  H12S 8835   2.739   1.154   5.998 -0.6989  1.1333 -4.0346
   6823SM  H12T 8836   2.710   1.336   6.010 -0.9362 -0.2701 -1.7521
   6823SM  C13S 8837   2.544   1.202   5.957 -0.2944  0.1183  0.7034
   6823SM  H13S 8838   2.459   1.258   6.001 -1.9217 -0.7401 -1.1994
   6823SM  H13T 8839   2.512   1.096   5.947 -0.5562  0.3995 -3.5335
   6823SM  C14S 8840   2.566   1.256   5.813  0.4800  0.4473  0.4277
   6823SM  H14S 8841   2.651   1.198   5.770  1.2350  0.3202  2.0247
   6823SM  H14T 8842   2.602   1.361   5.810  3.6471 -0.4964  1.2562
   6823SM  C15S 8843   2.443   1.240   5.730 -0.2422  0.2957  0.2547
   6823SM  H15S 8844   2.374   1.302   5.790 -0.7099  1.4305 -1.3751
   6823SM  H15T 8845   2.426   1.131   5.730  1.2526  0.0381 -0.1153
   6823SM  C16S 8846   2.456   1.294   5.587 -0.2422 -0.8262 -0.0740
   6823SM  H16S 8847   2.541   1.241   5.538  0.4314 -0.5198  0.7359
   6823SM  H16T 8848   2.474   1.403   5.582 -0.3888 -0.8479 -1.7580
   6823SM  C17S 8849   2.334   1.267   5.497  0.6065  0.4633  0.0734
   6823SM  H17S 8850   2.249   1.309   5.557  2.2308  0.7010  2.3384
   6823SM  H17T 8851   2.327   1.157   5.483 -3.0198  0.3852  1.4086
   6823SM  C18S 8852   2.343   1.328   5.361  0.4005 -0.2140  0.2546
   6823SM  H18S 8853   2.269   1.288   5.289 -0.4919  1.5703  0.1275
   6823SM  H18T 8854   2.446   1.311   5.323  1.0954  2.0809  0.9067
   6823SM  H18U 8855   2.335   1.439   5.358  0.2267 -0.2586 -1.6959
   6823SM   C1F 8856   2.680   1.605   6.973 -0.5933 -0.0194 -0.3644
   6823SM    OF 8857   2.788   1.652   7.007  0.3149  0.5889  0.2234
   6823SM   C2F 8858   2.592   1.680   6.877 -0.3006 -0.0721  0.5983
   6823SM   H2F 8859   2.516   1.738   6.933 -0.4931 -0.1285  0.3950
   6823SM   H2G 8860   2.542   1.604   6.814  0.0846 -0.2875  0.5465
   6823SM   C3F 8861   2.668   1.779   6.790 -0.0046 -0.2814 -0.0684
   6823SM   H3F 8862   2.703   1.872   6.840 -0.5001  0.1846 -0.5741
   6823SM   H3G 8863   2.590   1.816   6.720 -0.2453  0.8449  0.7562
   6823SM   C4F 8864   2.784   1.715   6.704  0.1991 -0.4981 -0.0572
   6823SM   H4F 8865   2.830   1.626   6.752  1.9616  0.5215  0.2106
   6823SM   H4G 8866   2.874   1.780   6.697  0.2619 -0.6119 -0.3101
   6823SM   C5F 8867   2.736   1.682   6.560 -0.5315  0.2908  0.1261
   6823SM   H5F 8868   2.685   1.773   6.523  1.1785  0.7245 -1.2912
   6823SM   H5G 8869   2.663   1.599   6.568 -0.2039 -0.0401 -0.2414
   6823SM   C6F 8870   2.860   1.653   6.475 -0.4186  0.2322 -0.4936
   6823SM   H6F 8871   2.906   1.555   6.500 -3.4710 -1.1531  0.1682
   6823SM   H6G 8872   2.937   1.731   6.483 -0.7949  0.4949  0.6975
   6823SM   C7F 8873   2.823   1.636   6.329  0.2863  0.1051 -0.1119
   6823SM   H7F 8874   2.766   1.721   6.286  1.3287 -0.2641 -2.3355
   6823SM   H7G 8875   2.767   1.540   6.323  3.0746 -1.6793  0.3587
   6823SM   C8F 8876   2.945   1.623   6.245 -0.2040  0.2346  0.2730
   6823SM   H8F 8877   2.996   1.530   6.277  0.9657  0.3541 -1.1339
   6823SM   H8G 8878   3.017   1.705   6.268  0.4216 -0.2916  0.1970
   6823SM   C9F 8879   2.905   1.614   6.104  0.8983  0.6856  0.5135
   6823SM   H9F 8880   2.875   1.718   6.078 -1.0012  0.1097  0.2895
   6823SM   H9G 8881   2.811   1.555   6.098  0.0239  2.0009  0.7334
   6823SM  C10F 8882   3.017   1.557   6.014  0.3866  0.2305 -0.2764
   6823SM  H10F 8883   3.049   1.462   6.063  1.0910  1.4798  1.8251
   6823SM  H10G 8884   3.109   1.618   6.027  1.3116 -1.5961  2.9110
   6823SM  C11F 8885   2.980   1.548   5.865 -0.6133 -0.1862  0.6724
   6823SM  H11F 8886   2.913   1.462   5.845  0.7732 -0.7659 -2.0392
   6823SM  H11G 8887   3.070   1.528   5.802 -1.3242 -0.3674 -0.3117
   6823SM  C12F 8888   2.921   1.672   5.794  0.1533  0.2484  0.3194
   6823SM  H12F 8889   2.990   1.756   5.815 -0.5379  0.3627  2.4001
   6823SM  H12G 8890   2.828   1.695   5.850 -0.7288  0.7951 -1.3103
   6823SM  C13F 8891   2.879   1.650   5.653 -0.0057 -0.1256  0.1262
   6823SM  H13F 8892   2.793   1.580   5.651  0.9769 -1.3464 -0.2952
   6823SM  H13G 8893   2.952   1.597   5.589 -2.5842 -3.1040 -0.6041
   6823SM  C14F 8894   2.838   1.780   5.580  0.8017 -0.0887 -0.4296
   6823SM  H14F 8895   2.923   1.851   5.581  0.9941 -0.2737  2.0021
   6823SM  H14G 8896   2.757   1.836   5.631  1.9790  1.7078 -0.4486
   6823SM  C15F 8897   2.792   1.753   5.435 -0.5354 -0.4308 -0.6398
   6823SM  H15F 8898   2.706   1.686   5.418 -1.3223 -0.0353  1.4135
   6823SM  H15G 8899   2.873   1.698   5.382 -1.7810 -3.9380  0.8475
   6823SM  C16F 8900   2.761   1.875   5.357  0.4468 -0.5576  0.4202
   6823SM  H16F 8901   2.851   1.929   5.321 -0.0353 -0.3546 -0.5168
   6823SM  H16G 8902   2.695   1.942   5.416  0.4734  1.5353 -1.7612
   6823SM  C17F 8903   2.680   1.844   5.226  0.3562  0.0401  0.0663
   6823SM  H17F 8904   2.581   1.797   5.247 -0.8907  2.2195 -0.6164
   6823SM  H17G 8905   2.745   1.781   5.162  1.0828 -0.4029  1.2053
   6823SM  C18F 8906   2.672   1.974   5.143  0.3800 -0.6812  0.6401
   6823SM  H18F 8907   2.761   2.041   5.143 -0.0894 -0.0500  1.1844
   6823SM  H18G 8908   2.593   2.044   5.177 -1.1291 -0.7361 -2.4194
   6823SM  C19F 8909   2.623   1.949   4.994 -0.4004 -0.8393  0.0802
   6823SM  H19F 8910   2.561   1.857   5.000 -2.7324  0.6866  0.8324
   6823SM  H19G 8911   2.708   1.930   4.925 -1.0453  4.0031 -2.4596
   6823SM  C20F 8912   2.549   2.072   4.927 -0.2413  0.0010  0.3882
   6823SM  H20F 8913   2.557   2.053   4.818  0.6966 -2.2286  0.7837
   6823SM  H20G 8914   2.615   2.160   4.943  0.0899 -0.0344 -0.7000
   6823SM  C21F 8915   2.411   2.100   4.984 -0.3053 -0.0129  0.4408
   6823SM  H21F 8916   2.415   2.087   5.094 -0.5277  0.1438  0.4682
   6823SM  H21G 8917   2.343   2.025   4.938 -0.1807  0.0570  0.1402
   6823SM  C22F 8918   2.361   2.240   4.937 -0.0153  0.6401  0.1064
   6823SM  H22F 8919   2.252   2.244   4.958 -0.2249  1.4373 -1.0366
   6823SM  H22G 8920   2.365   2.238   4.826 -0.5269 -1.6769  0.0695
   6823SM  C23F 8921   2.433   2.358   5.000  0.5203 -0.0827  0.9335
   6823SM  H23F 8922   2.387   2.453   4.966  0.0282 -0.7207 -0.2587
   6823SM  H23G 8923   2.542   2.369   4.980  0.5937 -1.4776  0.3963
   6823SM  H23H 8924   2.425   2.359   5.110  0.1808  0.2701  0.9042
   6923SM     N 8925   4.163   1.580   7.229  0.3071 -0.0409  0.1005
   6923SM   C15 8926   4.057   1.548   7.337 -0.3125 -0.0075 -0.0815
   6923SM  H15A 8927   4.085   1.601   7.427  0.7256  0.1359 -0.4849
   6923SM  H15B 8928   4.067   1.443   7.363  0.4694 -0.2579 -1.3416
   6923SM  H15C 8929   3.953   1.568   7.313 -0.0007  0.9597 -0.6826
   6923SM   C14 8930   4.180   1.724   7.219 -0.4489  0.6838  0.2864
   6923SM  H14A 8931   4.085   1.773   7.207  0.0294  1.8806  1.1214
   6923SM  H14B 8932   4.248   1.754   7.141  0.8443 -1.7409  0.3765
   6923SM  H14C 8933   4.221   1.778   7.304 -1.6679  1.0995  0.6318
   6923SM   C13 8934   4.288   1.519   7.282 -0.5597 -0.0982 -0.3559
   6923SM  H13A 8935   4.295   1.415   7.255 -0.7821 -0.0741 -0.5047
   6923SM  H13B 8936   4.312   1.531   7.387  2.0490 -1.7220 -0.6677
   6923SM  H13C 8937   4.372   1.560   7.228 -1.1378 -0.4263 -1.5133
   6923SM   C12 8938   4.118   1.517   7.097 -0.3018  0.5109  0.0208
   6923SM  H12A 8939   4.013   1.541   7.090  0.1246  2.4269 -0.2089
   6923SM  H12B 8940   4.115   1.410   7.111 -0.0413  0.4828 -0.1221
   6923SM   C11 8941   4.210   1.541   6.971  0.5058  0.2542 -0.7860
   6923SM  H11A 8942   4.195   1.647   6.943  0.3139  0.6827  0.8336
   6923SM  H11B 8943   4.160   1.489   6.887 -1.0204  2.8281 -1.5719
   6923SM     P 8944   4.452   1.621   6.929 -0.2285 -0.0359 -0.1912
   6923SM   O13 8945   4.456   1.741   7.023  0.5376  0.1380 -0.2652
   6923SM   O14 8946   4.580   1.554   6.910  0.0633 -0.5314 -0.0132
   6923SM   O11 8947   4.394   1.655   6.781  0.1000  0.1901 -0.1601
   6923SM   O12 8948   4.351   1.511   6.976  0.2605 -0.7037  0.6298
   6923SM   C1S 8949   4.413   1.571   6.670 -0.5910  0.5390 -0.2134
   6923SM   H1S 8950   4.374   1.467   6.675 -0.2095  0.4324  0.6610
   6923SM   H1T 8951   4.521   1.564   6.645 -0.6393 -1.8838 -0.0066
   6923SM    NF 8952   4.410   1.555   6.420  0.6947 -0.0015 -0.5141
   6923SM   HNF 8953   4.461   1.605   6.351  0.2865 -2.0058 -2.3828
   6923SM   C2S 8954   4.366   1.640   6.536  0.5339  0.0689 -0.1215
   6923SM   H2S 8955   4.255   1.645   6.530  0.3374 -1.6305  1.3499
   6923SM   C3S 8956   4.416   1.791   6.517  0.1010 -0.1891 -0.5521
   6923SM   H3S 8957   4.526   1.793   6.533 -0.0710 -0.0081  0.7996
   6923SM    O3 8958   4.370   1.878   6.622  0.0705  0.0340  0.3824
   6923SM   HO3 8959   4.328   1.816   6.682 -1.1172  1.4922  1.1290
   6923SM   C4S 8960   4.367   1.854   6.389 -0.6875  0.0409 -0.5247
   6923SM   H4S 8961   4.275   1.914   6.399 -1.2583 -0.7263 -1.0113
   6923SM   C5S 8962   4.438   1.858   6.271  0.2559  0.2579  0.0582
   6923SM   H5S 8963   4.531   1.803   6.251  1.8303  3.0000 -0.5961
   6923SM   C6S 8964   4.393   1.926   6.145  0.8715 -0.6451 -0.1365
   6923SM   H6S 8965   4.481   1.981   6.105 -0.5899  0.8671 -1.4078
   6923SM   H6T 8966   4.313   1.996   6.176  2.6374  1.5755 -0.3001
   6923SM   C7S 8967   4.347   1.825   6.042  0.3801  0.7762  0.6246
   6923SM   H7S 8968   4.268   1.761   6.086  0.6959  1.1206  1.7134
   6923SM   H7T 8969   4.434   1.764   6.010 -0.6947  0.0295 -0.9916
   6923SM   C8S 8970   4.299   1.891   5.909 -0.6523  0.2176 -0.7822
   6923SM   H8S 8971   4.388   1.938   5.864  1.2153 -2.0030  0.3391
   6923SM   H8T 8972   4.231   1.977   5.926 -0.3416 -0.1465  3.3355
   6923SM   C9S 8973   4.237   1.799   5.812  0.3456 -0.1319  0.0820
   6923SM   H9S 8974   4.145   1.743   5.840 -0.4377  0.2970 -1.5323
   6923SM   H9T 8975   4.313   1.736   5.761 -0.5389  0.0944 -1.5611
   6923SM  C10S 8976   4.185   1.885   5.693  0.1408 -0.1326  0.2674
   6923SM  H10S 8977   4.128   1.975   5.722 -2.2362 -0.2023 -3.5235
   6923SM  H10T 8978   4.127   1.816   5.629  3.1730 -1.1600 -1.5814
   6923SM  C11S 8979   4.306   1.921   5.593  0.0739  0.2390  0.2173
   6923SM  H11S 8980   4.363   1.834   5.556  0.1530  1.2801 -2.2540
   6923SM  H11T 8981   4.356   1.986   5.668 -0.9855  0.8520  0.4209
   6923SM  C12S 8982   4.270   2.013   5.483 -0.4013 -0.3226  0.1489
   6923SM  H12S 8983   4.365   2.052   5.441 -0.7539  1.4861  0.9470
   6923SM  H12T 8984   4.215   2.101   5.522 -2.4865 -0.0438 -3.0182
   6923SM  C13S 8985   4.197   1.940   5.374  0.6910 -0.0856 -0.5607
   6923SM  H13S 8986   4.098   1.900   5.406  0.1283  1.7923  0.1476
   6923SM  H13T 8987   4.262   1.853   5.347  0.6981 -0.0028 -0.8090
   6923SM  C14S 8988   4.171   2.024   5.249  0.3418 -0.5758 -0.1197
   6923SM  H14S 8989   4.268   2.075   5.232  0.2032  0.3054  1.5075
   6923SM  H14T 8990   4.083   2.089   5.268  1.5181  1.1565 -0.2815
   6923SM  C15S 8991   4.135   1.950   5.122 -0.3078  0.1184  0.3522
   6923SM  H15S 8992   4.198   1.861   5.102 -1.1758 -0.6378  0.9220
   6923SM  H15T 8993   4.157   2.017   5.036 -0.4492 -0.8014 -0.4188
   6923SM  C16S 8994   3.988   1.905   5.120  0.2045 -0.2316  0.2791
   6923SM  H16S 8995   3.921   1.976   5.172  0.1127  0.6288 -0.9849
   6923SM  H16T 8996   3.998   1.808   5.173  2.7589  1.0808  2.5073
   6923SM  C17S 8997   3.925   1.879   4.978 -0.5478 -0.4867  0.1105
   6923SM  H17S 8998   3.830   1.821   4.981 -1.0345  0.2802 -0.2663
   6923SM  H17T 8999   4.003   1.815   4.933  0.6331 -1.2635  3.0237
   6923SM  C18S 9000   3.913   1.998   4.881 -0.0087  0.4565 -0.0795
   6923SM  H18S 9001   3.906   2.092   4.940 -0.3358 -0.7208  1.8511
   6923SM  H18T 9002   3.822   2.000   4.818  1.3103 -1.4687 -2.1897
   6923SM  H18U 9003   4.002   1.993   4.815  0.3977 -1.6432  0.5440
   6923SM   C1F 9004   4.364   1.436   6.388 -0.2475  0.4565 -0.6718
   6923SM    OF 9005   4.306   1.361   6.469 -0.3391  0.7959  0.3153
   6923SM   C2F 9006   4.387   1.397   6.248  0.7951 -0.3974 -0.6990
   6923SM   H2F 9007   4.496   1.388   6.228  1.0421  0.2549  0.2766
   6923SM   H2G 9008   4.350   1.486   6.193 -0.5945 -1.5359 -1.6783
   6923SM   C3F 9009   4.309   1.265   6.220  0.4381  0.0771  0.2943
   6923SM   H3F 9010   4.202   1.277   6.247 -0.0637  1.0963 -1.9415
   6923SM   H3G 9011   4.338   1.184   6.290  1.6005  0.5593  0.3867
   6923SM   C4F 9012   4.321   1.207   6.073  0.4968 -0.7552 -0.1685
   6923SM   H4F 9013   4.423   1.166   6.051 -0.4829 -2.4753 -1.8440
   6923SM   H4G 9014   4.315   1.297   6.009  2.0746  0.6830  1.5983
   6923SM   C5F 9015   4.206   1.108   6.040 -0.0217  0.3839  0.3455
   6923SM   H5F 9016   4.108   1.159   6.057 -1.3927 -1.3052 -1.8639
   6923SM   H5G 9017   4.206   1.024   6.114 -0.8352 -1.3740 -1.5353
   6923SM   C6F 9018   4.204   1.055   5.894  0.3184 -0.2172 -0.2522
   6923SM   H6F 9019   4.116   0.987   5.902  0.6033 -0.4380  1.3749
   6923SM   H6G 9020   4.291   0.990   5.870 -0.0111 -0.3295 -1.1856
   6923SM   C7F 9021   4.195   1.157   5.785  0.2440 -0.5560  0.5453
   6923SM   H7F 9022   4.288   1.217   5.779  0.0820 -0.4326 -1.3056
   6923SM   H7G 9023   4.113   1.226   5.815  1.8032  1.9961 -0.6730
   6923SM   C8F 9024   4.154   1.096   5.651  0.4514  0.8141  0.1932
   6923SM   H8F 9025   4.053   1.051   5.652 -0.4693  2.4812 -3.1032
   6923SM   H8G 9026   4.231   1.018   5.631  1.7210  1.3962  2.5336
   6923SM   C9F 9027   4.154   1.201   5.533  0.2166  0.0043 -0.3107
   6923SM   H9F 9028   4.262   1.224   5.532  0.4652 -0.5455  2.6774
   6923SM   H9G 9029   4.100   1.294   5.561  0.9488  0.4396 -0.3142
   6923SM  C10F 9030   4.088   1.153   5.400  0.5000  0.5138 -0.4074
   6923SM  H10F 9031   4.138   1.055   5.382  0.1303 -0.1094  1.6561
   6923SM  H10G 9032   4.091   1.230   5.320  0.1861  1.3523  0.3665
   6923SM  C11F 9033   3.937   1.122   5.414 -0.1108 -0.6407 -0.7175
   6923SM  H11F 9034   3.889   1.208   5.464  1.9995 -0.8086  1.8473
   6923SM  H11G 9035   3.925   1.030   5.475 -1.1032  0.4217  0.7525
   6923SM  C12F 9036   3.878   1.095   5.278 -0.3285 -0.5882 -0.0760
   6923SM  H12F 9037   3.892   1.188   5.220 -1.2901  0.5040  1.3577
   6923SM  H12G 9038   3.768   1.083   5.291 -0.6355  1.7382 -0.1408
   6923SM  C13F 9039   3.926   0.964   5.214 -0.3097 -0.0934 -0.2509
   6923SM  H13F 9040   3.925   0.888   5.295  0.5132 -0.0348 -0.1782
   6923SM  H13G 9041   4.036   0.977   5.205 -0.3396  0.7132  0.4539
   6923SM  C14F 9042   3.850   0.934   5.088  0.4278 -0.4648  1.0993
   6923SM  H14F 9043   3.746   0.974   5.093 -0.4725 -2.3060 -0.7943
   6923SM  H14G 9044   3.838   0.825   5.069 -1.3019 -0.1725  0.2289
   6923SM  C15F 9045   3.913   1.010   4.965 -0.4354  0.0260  0.2170
   6923SM  H15F 9046   4.017   0.975   4.951 -0.8809 -1.0272 -0.6030
   6923SM  H15G 9047   3.917   1.118   4.992  0.5110 -0.2990  1.4645
   6923SM  C16F 9048   3.832   0.983   4.839  0.5580  0.4568  0.9495
   6923SM  H16F 9049   3.869   1.035   4.748  0.0013  0.9938  1.0278
   6923SM  H16G 9050   3.729   1.025   4.837  1.1534  1.9740  0.9059
   6923SM  C17F 9051   3.812   0.839   4.801  0.7002  0.0407  0.2446
   6923SM  H17F 9052   3.768   0.778   4.882  2.7169 -0.5880  0.9299
   6923SM  H17G 9053   3.916   0.802   4.784  0.8743  0.0293  1.2722
   6923SM  C18F 9054   3.725   0.833   4.669  0.0477  0.3433 -0.4565
   6923SM  H18F 9055   3.649   0.914   4.666  1.5606  2.3484  4.4402
   6923SM  H18G 9056   3.666   0.739   4.665 -0.4249  0.6925 -2.1110
   6923SM  C19F 9057   3.822   0.835   4.546  0.4988 -0.3606  0.8760
   6923SM  H19F 9058   3.872   0.736   4.548 -1.3968 -1.3666  1.0399
   6923SM  H19G 9059   3.894   0.919   4.555  0.4080  0.0280 -1.5826
   6923SM  C20F 9060   3.741   0.871   4.423 -0.0061  0.0591 -0.3369
   6923SM  H20F 9061   3.731   0.981   4.421 -3.5499 -0.1464 -0.8666
   6923SM  H20G 9062   3.640   0.824   4.426  1.0678 -2.3743 -0.0981
   6923SM  C21F 9063   3.819   0.825   4.302 -0.0026  0.2556 -0.0307
   6923SM  H21F 9064   3.863   0.723   4.306 -1.8347 -0.5928  3.8873
   6923SM  H21G 9065   3.902   0.898   4.311 -1.6908  2.1344  1.3913
   6923SM  C22F 9066   3.743   0.832   4.165  0.3708 -0.6712 -0.2051
   6923SM  H22F 9067   3.680   0.921   4.152 -1.3882 -1.9251 -0.6132
   6923SM  H22G 9068   3.658   0.760   4.165 -1.8025  1.7749  0.4691
   6923SM  C23F 9069   3.829   0.813   4.037 -0.7260  0.1374  0.8849
   6923SM  H23F 9070   3.811   0.710   4.000 -0.7542 -0.6079  2.8455
   6923SM  H23G 9071   3.934   0.837   4.065 -0.6694  0.6538  0.2321
   6923SM  H23H 9072   3.796   0.889   3.964  2.6705  0.1473 -0.8439
   7023SM     N 9073   3.201   1.593   7.309  0.0477 -0.0022  0.4142
   7023SM   C15 9074   3.075   1.577   7.224 -0.1345  0.1765  0.3703
   7023SM  H15A 9075   3.004   1.517   7.278 -0.3013  2.1882  2.5428
   7023SM  H15B 9076   3.102   1.534   7.129 -2.6656  0.2280 -0.4383
   7023SM  H15C 9077   3.030   1.673   7.209 -0.8999 -0.1104  0.7640
   7023SM   C14 9078   3.158   1.639   7.444 -0.6400 -0.0466 -0.1226
   7023SM  H14A 9079   3.086   1.571   7.487 -1.2191  0.2331 -0.6328
   7023SM  H14B 9080   3.120   1.740   7.441 -0.3111  0.2394  2.7358
   7023SM  H14C 9081   3.245   1.646   7.508 -0.9261 -0.5930  0.3321
   7023SM   C13 9082   3.266   1.456   7.335  0.1521 -0.5892 -0.0365
   7023SM  H13A 9083   3.223   1.404   7.419  0.8631  1.3867  1.6344
   7023SM  H13B 9084   3.368   1.487   7.356  0.2174 -0.5691 -0.3808
   7023SM  H13C 9085   3.276   1.387   7.253  0.1792 -1.1250  0.4093
   7023SM   C12 9086   3.301   1.683   7.242  0.1619 -0.5492 -0.2217
   7023SM  H12A 9087   3.240   1.771   7.233  0.4031 -0.2122  1.2175
   7023SM  H12B 9088   3.331   1.640   7.148  1.2531  2.4460 -1.3501
   7023SM   C11 9089   3.434   1.714   7.313  0.6137 -0.5868  0.5297
   7023SM  H11A 9090   3.421   1.755   7.415 -0.3468  0.7259 -0.0928
   7023SM  H11B 9091   3.473   1.796   7.249 -0.9286 -1.8796 -2.2699
   7023SM     P 9092   3.684   1.634   7.309 -0.3910 -0.2248 -0.2712
   7023SM   O13 9093   3.726   1.734   7.414  0.1796  0.6214  0.1009
   7023SM   O14 9094   3.754   1.504   7.307  0.0874  0.6345  0.0750
   7023SM   O11 9095   3.688   1.705   7.169 -0.5080  0.1764 -0.3709
   7023SM   O12 9096   3.525   1.608   7.326  0.2976  0.3394  0.6363
   7023SM   C1S 9097   3.669   1.618   7.059  0.1893  0.1321 -0.1701
   7023SM   H1S 9098   3.559   1.600   7.058  0.2848 -0.4658 -0.0915
   7023SM   H1T 9099   3.734   1.529   7.069 -0.5424 -0.2261  1.7930
   7023SM    NF 9100   3.687   1.593   6.811  0.3153 -0.9597  0.2567
   7023SM   HNF 9101   3.769   1.561   6.764  0.5561 -0.4094  0.2956
   7023SM   C2S 9102   3.708   1.685   6.915 -0.4549  0.2449 -0.9975
   7023SM   H2S 9103   3.647   1.776   6.897 -0.0379  0.9297  0.7971
   7023SM   C3S 9104   3.855   1.735   6.918  0.0788  0.8181 -0.7584
   7023SM   H3S 9105   3.928   1.652   6.922  1.0012  1.6170 -0.5343
   7023SM    O3 9106   3.889   1.801   7.036 -0.0339 -0.2034 -0.8158
   7023SM   HO3 9107   3.825   1.771   7.101  2.1368  0.8242  2.0402
   7023SM   C4S 9108   3.880   1.820   6.797 -0.3526 -0.7470 -0.4528
   7023SM   H4S 9109   3.806   1.901   6.788  1.7384  1.5789  1.4662
   7023SM   C5S 9110   3.967   1.805   6.698  0.3442  0.0308 -0.3097
   7023SM   H5S 9111   4.034   1.718   6.694 -0.2121 -0.3777 -1.1304
   7023SM   C6S 9112   3.969   1.894   6.580  0.3439  0.0866 -1.0550
   7023SM   H6S 9113   4.053   1.967   6.579  1.4917 -1.1547  0.2624
   7023SM   H6T 9114   3.871   1.947   6.576  0.0553 -0.2274  0.9066
   7023SM   C7S 9115   3.980   1.802   6.452  0.3248 -0.5749  0.5726
   7023SM   H7S 9116   3.891   1.736   6.452  0.1528 -0.3894 -1.1342
   7023SM   H7T 9117   4.068   1.735   6.457  0.2265 -0.8839 -1.1560
   7023SM   C8S 9118   3.992   1.886   6.323 -0.0541  0.0008 -0.1671
   7023SM   H8S 9119   4.021   1.830   6.232 -0.1276  1.4064 -1.0805
   7023SM   H8T 9120   4.074   1.961   6.328 -0.5305  0.5386 -0.3127
   7023SM   C9S 9121   3.861   1.952   6.297  0.2404 -0.1962  0.6031
   7023SM   H9S 9122   3.866   2.049   6.353  0.6095  0.0872  0.0933
   7023SM   H9T 9123   3.769   1.895   6.319  0.1765  0.7322  3.2035
   7023SM  C10S 9124   3.868   2.014   6.151  0.8055  0.3807 -0.4884
   7023SM  H10S 9125   3.966   2.061   6.132  1.3747 -0.2904  0.6908
   7023SM  H10T 9126   3.799   2.101   6.150 -0.2446 -0.3541  1.3823
   7023SM  C11S 9127   3.832   1.912   6.039 -0.2410 -0.0522  0.0179
   7023SM  H11S 9128   3.721   1.902   6.036 -0.3631  1.3463 -2.3223
   7023SM  H11T 9129   3.897   1.823   6.055 -1.7032 -0.7487  2.5523
   7023SM  C12S 9130   3.871   1.968   5.901  0.1777 -0.3644  0.5539
   7023SM  H12S 9131   3.944   1.898   5.853  0.1299 -0.1707  0.1978
   7023SM  H12T 9132   3.918   2.068   5.904 -0.1001 -0.2220  0.1888
   7023SM  C13S 9133   3.749   1.968   5.805  0.0057  0.3983  0.0951
   7023SM  H13S 9134   3.682   2.052   5.835 -1.2058 -1.5924  3.5559
   7023SM  H13T 9135   3.693   1.872   5.817 -1.8167  0.9495 -2.7646
   7023SM  C14S 9136   3.780   1.978   5.658 -0.2081 -0.5424 -0.7455
   7023SM  H14S 9137   3.864   1.911   5.627  1.1907  2.1881 -3.3332
   7023SM  H14T 9138   3.839   2.071   5.646 -0.7743 -0.1264 -0.2984
   7023SM  C15S 9139   3.656   1.963   5.574  0.7015  0.5104  0.2451
   7023SM  H15S 9140   3.587   2.043   5.611  0.5681  2.2531 -3.2828
   7023SM  H15T 9141   3.617   1.865   5.607  2.1500  0.0997  0.8189
   7023SM  C16S 9142   3.679   1.962   5.420 -0.0765  0.7048 -0.3196
   7023SM  H16S 9143   3.713   1.858   5.404 -3.0467 -0.5043  0.3984
   7023SM  H16T 9144   3.755   2.040   5.399 -1.1800  1.9155  0.0026
   7023SM  C17S 9145   3.553   1.989   5.333 -0.2332  0.1987  0.1584
   7023SM  H17S 9146   3.496   2.074   5.376 -1.7679 -0.1261 -1.1396
   7023SM  H17T 9147   3.484   1.902   5.340 -1.2012  0.8437 -1.0103
   7023SM  C18S 9148   3.582   2.033   5.199  0.4264 -0.4762  0.0982
   7023SM  H18S 9149   3.645   1.959   5.144 -0.0058 -1.3653  0.7630
   7023SM  H18T 9150   3.632   2.132   5.205 -0.7458  0.0228  2.2371
   7023SM  H18U 9151   3.485   2.038   5.147 -0.9923  1.1742  2.7102
   7023SM   C1F 9152   3.566   1.550   6.777  0.5247  0.1338 -0.0526
   7023SM    OF 9153   3.463   1.590   6.828 -0.1565  0.3788  0.1738
   7023SM   C2F 9154   3.569   1.442   6.672  0.6450 -0.3881  0.4839
   7023SM   H2F 9155   3.592   1.345   6.721  0.1639 -1.5286 -1.4712
   7023SM   H2G 9156   3.649   1.465   6.598 -1.0203  1.8564 -0.7553
   7023SM   C3F 9157   3.434   1.448   6.599  0.3209  0.2684  0.3023
   7023SM   H3F 9158   3.397   1.553   6.598  0.3498  0.2920  1.0628
   7023SM   H3G 9159   3.362   1.391   6.661 -0.8217 -0.7107 -1.7916
   7023SM   C4F 9160   3.444   1.406   6.443 -0.0966 -0.8555 -0.2094
   7023SM   H4F 9161   3.473   1.299   6.436 -0.4865 -0.9210 -0.9397
   7023SM   H4G 9162   3.526   1.463   6.394 -0.3213 -1.4997 -1.3837
   7023SM   C5F 9163   3.298   1.419   6.370 -0.2847 -0.0196 -0.2516
   7023SM   H5F 9164   3.262   1.522   6.390  1.1308  0.6095 -0.8173
   7023SM   H5G 9165   3.228   1.348   6.420  0.7801  0.1143  1.4780
   7023SM   C6F 9166   3.308   1.405   6.216 -0.3221  0.8474 -0.5715
   7023SM   H6F 9167   3.204   1.404   6.176 -1.1338  1.0641  1.4313
   7023SM   H6G 9168   3.353   1.312   6.176 -2.4874  0.4582 -2.3401
   7023SM   C7F 9169   3.385   1.525   6.155  0.2753 -0.5780  0.7851
   7023SM   H7F 9170   3.490   1.513   6.189 -0.0454 -1.5202  1.4928
   7023SM   H7G 9171   3.347   1.614   6.210 -1.5274 -1.1356  0.5101
   7023SM   C8F 9172   3.370   1.540   6.003  0.3689 -0.1401  0.0726
   7023SM   H8F 9173   3.264   1.525   5.976  0.9120 -2.4827 -1.0425
   7023SM   H8G 9174   3.437   1.469   5.950 -0.8252 -1.4967  0.3194
   7023SM   C9F 9175   3.415   1.691   5.961 -0.5173 -0.0743 -0.4380
   7023SM   H9F 9176   3.501   1.699   6.031 -1.2265 -1.3768  0.6453
   7023SM   H9G 9177   3.340   1.767   5.993 -1.4697 -1.5841  1.0853
   7023SM  C10F 9178   3.456   1.708   5.816  0.3469  0.3532 -0.1668
   7023SM  H10F 9179   3.534   1.631   5.797  0.0296 -0.4291  1.5043
   7023SM  H10G 9180   3.497   1.810   5.800 -1.0678  1.1095  0.8231
   7023SM  C11F 9181   3.322   1.704   5.736 -0.5984 -0.2925  0.5012
   7023SM  H11F 9182   3.266   1.798   5.756  0.4870  0.4016  0.3594
   7023SM  H11G 9183   3.258   1.619   5.768 -0.3591  0.0041  1.8473
   7023SM  C12F 9184   3.356   1.686   5.581  1.0088 -0.2189  0.0879
   7023SM  H12F 9185   3.428   1.601   5.576  0.9905 -0.1816 -1.0380
   7023SM  H12G 9186   3.409   1.773   5.538  1.8366  0.1024  1.6812
   7023SM  C13F 9187   3.234   1.671   5.486 -0.5013  0.5258  0.2212
   7023SM  H13F 9188   3.170   1.762   5.498 -0.9118  0.0851  1.4612
   7023SM  H13G 9189   3.185   1.579   5.523  1.5156 -0.7159 -0.0884
   7023SM  C14F 9190   3.266   1.662   5.331 -0.5208 -0.1010 -0.0728
   7023SM  H14F 9191   3.300   1.557   5.319 -0.4648  0.1020 -2.0101
   7023SM  H14G 9192   3.346   1.729   5.291 -1.5553  1.6891  0.7306
   7023SM  C15F 9193   3.138   1.676   5.248  0.3649  0.4746  0.2993
   7023SM  H15F 9194   3.091   1.773   5.274  2.0854  1.2069  0.7756
   7023SM  H15G 9195   3.079   1.589   5.286  1.0597 -0.1516 -0.0429
   7023SM  C16F 9196   3.170   1.662   5.098 -0.2977  0.2925  0.4422
   7023SM  H16F 9197   3.206   1.559   5.077  1.9703  0.7520  1.7657
   7023SM  H16G 9198   3.257   1.727   5.077 -0.3374  0.2686  0.1974
   7023SM  C17F 9199   3.058   1.719   5.012 -0.5196 -0.5258  0.0708
   7023SM  H17F 9200   3.053   1.829   5.024 -1.9124 -0.5370 -0.2560
   7023SM  H17G 9201   2.960   1.681   5.046 -0.4132 -0.2215  0.7236
   7023SM  C18F 9202   3.087   1.708   4.867  0.0642 -0.2383  0.8773
   7023SM  H18F 9203   3.197   1.725   4.861  0.6943 -3.1001  2.2653
   7023SM  H18G 9204   3.045   1.792   4.809  0.0940 -1.9200 -1.7370
   7023SM  C19F 9205   3.040   1.585   4.800  0.7549  0.9190 -0.0286
   7023SM  H19F 9206   2.943   1.593   4.747  0.7744 -0.0988 -0.2410
   7023SM  H19G 9207   3.038   1.504   4.876 -3.4977  2.0721  1.3322
   7023SM  C20F 9208   3.127   1.553   4.679 -0.0279 -0.4339  0.2839
   7023SM  H20F 9209   3.109   1.454   4.633  1.4857  0.4355 -2.3919
   7023SM  H20G 9210   3.234   1.559   4.711 -0.0796 -0.8985  0.5533
   7023SM  C21F 9211   3.103   1.660   4.567  0.1751  0.3451  0.0415
   7023SM  H21F 9212   3.151   1.748   4.614  0.4072  0.3688 -0.2308
   7023SM  H21G 9213   2.996   1.689   4.560  0.4121  1.2775  0.1520
   7023SM  C22F 9214   3.152   1.613   4.429 -0.4711  0.3741  0.6648
   7023SM  H22F 9215   3.239   1.544   4.433 -0.8904 -0.3136 -1.1374
   7023SM  H22G 9216   3.191   1.695   4.365 -0.5126 -0.9070 -1.0728
   7023SM  C23F 9217   3.043   1.538   4.347 -0.4909  0.3286 -0.5686
   7023SM  H23F 9218   2.978   1.608   4.291 -1.3208  0.4695  0.5280
   7023SM  H23G 9219   2.989   1.476   4.423 -1.6440  0.3458 -1.3563
   7023SM  H23H 9220   3.099   1.469   4.280 -0.6300 -3.8723  3.1376
   7123SM     N 9221   4.225   0.177   6.957 -0.0096  0.2246 -0.3870
   7123SM   C15 9222   4.141   0.101   6.862 -0.1720 -0.0957  0.4403
   7123SM  H15A 9223   4.201   0.052   6.786 -1.6735 -0.5148 -0.5174
   7123SM  H15B 9224   4.078   0.162   6.799  0.2343 -0.8507 -0.7307
   7123SM  H15C 9225   4.086   0.020   6.905 -1.2254  0.5877  0.4100
   7123SM   C14 9226   4.280   0.296   6.883 -0.4280 -0.1216  0.5243
   7123SM  H14A 9227   4.202   0.369   6.873 -1.0562 -0.4137  2.8118
   7123SM  H14B 9228   4.322   0.266   6.788 -0.0782  2.8949 -0.3765
   7123SM  H14C 9229   4.358   0.350   6.934 -0.6607  0.1746  0.5660
   7123SM   C13 9230   4.127   0.231   7.062 -0.3641  0.6251 -0.0900
   7123SM  H13A 9231   4.076   0.157   7.122  2.3934  0.4662  2.2699
   7123SM  H13B 9232   4.049   0.294   7.022 -0.8802  1.4445  2.0615
   7123SM  H13C 9233   4.187   0.288   7.131  1.2407  0.5099 -1.3400
   7123SM   C12 9234   4.336   0.095   7.017  0.4487 -0.4782 -0.6367
   7123SM  H12A 9235   4.390   0.155   7.088 -1.0654  0.0673  0.0955
   7123SM  H12B 9236   4.412   0.075   6.943  1.3508 -1.8939  0.6124
   7123SM   C11 9237   4.293  -0.042   7.085  0.1778 -0.1415  0.0425
   7123SM  H11A 9238   4.208  -0.023   7.154  0.9546  1.0236  0.7252
   7123SM  H11B 9239   4.382  -0.067   7.147  1.0097  0.2072 -0.9732
   7123SM     P 9240   4.186  -0.270   7.040 -0.4191  0.5154  0.1795
   7123SM   O13 9241   4.274  -0.349   7.125  0.9444  0.4607  0.1026
   7123SM   O14 9242   4.046  -0.233   7.083 -0.0622 -0.2394  0.8045
   7123SM   O11 9243   4.175  -0.357   6.911  0.5397  0.0577  0.5070
   7123SM   O12 9244   4.261  -0.143   6.990  0.1628 -0.4820 -0.4675
   7123SM   C1S 9245   4.094  -0.301   6.800 -0.3479  0.2397 -0.5052
   7123SM   H1S 9246   4.084  -0.191   6.814  1.2288  0.2380  0.9789
   7123SM   H1T 9247   3.999  -0.359   6.797  0.6916 -1.4989 -0.6414
   7123SM    NF 9248   4.072  -0.263   6.564 -0.2500 -0.1626 -0.3600
   7123SM   HNF 9249   3.997  -0.318   6.530 -0.9203 -0.0709  0.9244
   7123SM   C2S 9250   4.163  -0.316   6.657  0.4163  0.8147 -0.7931
   7123SM   H2S 9251   4.256  -0.255   6.653  1.2955 -0.5569 -2.0748
   7123SM   C3S 9252   4.216  -0.459   6.643 -0.1283 -0.2602  0.5875
   7123SM   H3S 9253   4.132  -0.531   6.657  0.9140 -2.0456 -1.7245
   7123SM    O3 9254   4.312  -0.494   6.738 -0.6657  0.6667  0.3483
   7123SM   HO3 9255   4.300  -0.418   6.796 -1.9342  1.2630 -0.6429
   7123SM   C4S 9256   4.258  -0.488   6.498  1.1094  0.5228  0.1467
   7123SM   H4S 9257   4.173  -0.546   6.459  1.1246 -0.3649  1.3705
   7123SM   C5S 9258   4.363  -0.458   6.418 -1.0081  0.4398  0.6800
   7123SM   H5S 9259   4.442  -0.389   6.452  1.2152 -1.3177 -0.6485
   7123SM   C6S 9260   4.387  -0.498   6.271  0.2034 -0.3114 -0.0436
   7123SM   H6S 9261   4.393  -0.609   6.268 -2.0350 -0.4573 -1.7164
   7123SM   H6T 9262   4.486  -0.464   6.234 -0.6620  1.7139 -0.6561
   7123SM   C7S 9263   4.287  -0.461   6.160 -0.3517  0.3182  0.2746
   7123SM   H7S 9264   4.278  -0.350   6.157  0.4227  0.3744 -2.2864
   7123SM   H7T 9265   4.186  -0.501   6.184 -1.5539  2.5071 -0.8298
   7123SM   C8S 9266   4.325  -0.516   6.024 -0.7810  0.0097  0.3675
   7123SM   H8S 9267   4.366  -0.619   6.026 -1.3515 -0.2822 -1.5649
   7123SM   H8T 9268   4.416  -0.462   5.990  0.5582 -1.2906  1.7296
   7123SM   C9S 9269   4.221  -0.492   5.923  0.2442  0.1729  0.5480
   7123SM   H9S 9270   4.184  -0.387   5.921 -2.4602 -0.7276 -0.5198
   7123SM   H9T 9271   4.131  -0.555   5.941  2.0379 -2.5271  0.6441
   7123SM  C10S 9272   4.259  -0.516   5.778 -0.9128  0.6924  1.0708
   7123SM  H10S 9273   4.303  -0.615   5.753 -1.0140  1.2366 -1.5843
   7123SM  H10T 9274   4.342  -0.447   5.754 -1.5161  0.7548 -1.0309
   7123SM  C11S 9275   4.147  -0.483   5.679 -0.2051  0.1447 -0.1913
   7123SM  H11S 9276   4.116  -0.378   5.695 -0.5636  0.2599 -1.5810
   7123SM  H11T 9277   4.065  -0.553   5.704  0.5942 -1.4438 -1.7944
   7123SM  C12S 9278   4.191  -0.503   5.536  0.1612  0.1097 -0.1031
   7123SM  H12S 9279   4.245  -0.593   5.500  0.8173  0.3671  0.2275
   7123SM  H12T 9280   4.263  -0.421   5.515 -0.0129  0.5419  0.9700
   7123SM  C13S 9281   4.061  -0.486   5.444 -0.6458  0.0939 -0.4690
   7123SM  H13S 9282   4.021  -0.386   5.473 -0.3926 -0.1578  0.7748
   7123SM  H13T 9283   3.975  -0.554   5.462 -0.8953 -0.3365 -2.9184
   7123SM  C14S 9284   4.096  -0.484   5.296  0.5926  0.6812  0.2563
   7123SM  H14S 9285   4.005  -0.510   5.237  0.7941 -0.1187  0.2994
   7123SM  H14T 9286   4.174  -0.560   5.280  0.2156  0.6283 -1.4522
   7123SM  C15S 9287   4.148  -0.350   5.241 -0.1817  0.0406 -0.0276
   7123SM  H15S 9288   4.225  -0.319   5.314 -1.2614 -1.5497  1.8766
   7123SM  H15T 9289   4.066  -0.275   5.242  0.7604  1.2315 -2.8425
   7123SM  C16S 9290   4.193  -0.362   5.099  0.4706  0.6882 -0.4873
   7123SM  H16S 9291   4.273  -0.439   5.085  1.2013  1.3869 -0.2610
   7123SM  H16T 9292   4.236  -0.265   5.067  1.9470 -0.1706 -1.2373
   7123SM  C17S 9293   4.084  -0.413   5.009  1.0840 -0.0178  0.0652
   7123SM  H17S 9294   4.012  -0.328   5.015  0.8527 -0.2882  1.5014
   7123SM  H17T 9295   4.033  -0.505   5.046 -0.2283  0.2537 -1.0061
   7123SM  C18S 9296   4.127  -0.426   4.868  0.0298  0.8346  0.0508
   7123SM  H18S 9297   4.042  -0.476   4.817 -1.0341  1.9051  0.7146
   7123SM  H18T 9298   4.216  -0.488   4.848 -1.8588 -1.7140 -1.0819
   7123SM  H18U 9299   4.148  -0.328   4.820 -1.6663  1.3700  0.3136
   7123SM   C1F 9300   4.061  -0.129   6.542  0.0366  0.2108 -0.2566
   7123SM    OF 9301   4.123  -0.056   6.613  0.0429 -0.1935  0.3040
   7123SM   C2F 9302   3.967  -0.089   6.434  0.4848  0.0413  0.2102
   7123SM   H2F 9303   3.963   0.021   6.419  0.1823 -0.0995 -0.8205
   7123SM   H2G 9304   3.868  -0.111   6.480  0.7593 -0.7779  0.4238
   7123SM   C3F 9305   3.995  -0.163   6.304 -0.4014 -0.1819 -0.1432
   7123SM   H3F 9306   3.939  -0.259   6.311  0.4454 -0.6214  0.8246
   7123SM   H3G 9307   4.104  -0.180   6.292 -0.3665  0.8172 -1.5625
   7123SM   C4F 9308   3.942  -0.092   6.183 -0.6641 -0.4702 -0.1023
   7123SM   H4F 9309   3.969   0.016   6.178 -0.7291 -0.4714 -0.5409
   7123SM   H4G 9310   3.831  -0.088   6.184 -0.6523  0.2839 -0.3947
   7123SM   C5F 9311   3.989  -0.137   6.038  0.2566 -0.3393 -0.7573
   7123SM   H5F 9312   3.942  -0.236   6.021  0.2865 -0.1831 -1.8069
   7123SM   H5G 9313   4.099  -0.149   6.029  0.2521  0.4685 -2.0688
   7123SM   C6F 9314   3.949  -0.045   5.920 -0.7517 -0.3806  0.5448
   7123SM   H6F 9315   4.010   0.048   5.924 -0.6012 -0.4702  0.3442
   7123SM   H6G 9316   3.842  -0.018   5.922 -0.8197 -0.3976 -1.4085
   7123SM   C7F 9317   3.984  -0.116   5.784  0.2546 -0.2071 -0.1069
   7123SM   H7F 9318   3.909  -0.194   5.763 -1.8301  1.3903  1.0609
   7123SM   H7G 9319   4.087  -0.157   5.787  1.5800  2.8586  0.6461
   7123SM   C8F 9320   3.971  -0.005   5.680  0.2219  0.4855  0.0086
   7123SM   H8F 9321   4.045   0.073   5.709  1.2953 -0.1724 -0.8734
   7123SM   H8G 9322   3.870   0.040   5.693  0.0340 -0.2053  1.1312
   7123SM   C9F 9323   3.995  -0.066   5.541  0.5410  0.1615 -0.2955
   7123SM   H9F 9324   3.918  -0.138   5.505  0.7822 -0.3437  0.1765
   7123SM   H9G 9325   4.092  -0.116   5.559  1.3671  1.7568 -0.1454
   7123SM  C10F 9326   4.017   0.033   5.427 -0.5904 -0.0630 -0.0650
   7123SM  H10F 9327   4.056  -0.023   5.340 -0.3984  0.9449 -0.6410
   7123SM  H10G 9328   4.092   0.112   5.450  0.2384 -1.1713  1.2143
   7123SM  C11F 9329   3.881   0.106   5.393  0.2671 -0.1187 -0.0327
   7123SM  H11F 9330   3.885   0.161   5.297 -4.6135  0.5402 -0.1237
   7123SM  H11G 9331   3.859   0.175   5.477 -0.6800  0.4132 -0.7112
   7123SM  C12F 9332   3.750   0.025   5.379 -0.4280  0.5372  0.2445
   7123SM  H12F 9333   3.658   0.086   5.368 -1.7012 -1.2508  0.4251
   7123SM  H12G 9334   3.728  -0.048   5.460  1.8046 -0.0102  0.4282
   7123SM  C13F 9335   3.755  -0.056   5.244 -0.6408 -0.5498  0.3082
   7123SM  H13F 9336   3.849  -0.115   5.248 -0.5894 -0.5441 -0.5151
   7123SM  H13G 9337   3.773   0.013   5.159 -2.5278 -1.7325 -1.1325
   7123SM  C14F 9338   3.631  -0.149   5.230  0.0382  0.2946 -0.0432
   7123SM  H14F 9339   3.533  -0.105   5.257 -1.1791 -1.7779 -0.8275
   7123SM  H14G 9340   3.644  -0.235   5.299 -0.0098 -0.0732 -0.4912
   7123SM  C15F 9341   3.625  -0.211   5.084 -0.2025  0.3346  0.2782
   7123SM  H15F 9342   3.681  -0.135   5.026 -0.1276  0.6539  0.7618
   7123SM  H15G 9343   3.527  -0.227   5.035  0.0555 -0.3203 -0.0384
   7123SM  C16F 9344   3.713  -0.336   5.065 -0.4111  0.0763 -0.2443
   7123SM  H16F 9345   3.662  -0.422   5.114  0.4185 -0.1835  0.1981
   7123SM  H16G 9346   3.816  -0.328   5.107  0.1271  1.1233 -1.6521
   7123SM  C17F 9347   3.729  -0.374   4.918  0.0585 -0.1363  0.4257
   7123SM  H17F 9348   3.820  -0.435   4.902 -1.0782 -2.1691  1.2672
   7123SM  H17G 9349   3.743  -0.287   4.852  1.3633  0.3430  1.3004
   7123SM  C18F 9350   3.607  -0.450   4.856  0.1534  0.0301 -0.3685
   7123SM  H18F 9351   3.524  -0.377   4.864  1.4244  1.4775  0.2096
   7123SM  H18G 9352   3.585  -0.530   4.931 -1.1354  0.4115 -0.3202
   7123SM  C19F 9353   3.626  -0.496   4.708 -0.1154  0.1930  0.4653
   7123SM  H19F 9354   3.667  -0.414   4.646  0.4720  1.6504  2.6649
   7123SM  H19G 9355   3.531  -0.527   4.661  0.2487  0.6595 -0.6105
   7123SM  C20F 9356   3.729  -0.616   4.696  0.3681 -0.0779  0.2535
   7123SM  H20F 9357   3.834  -0.592   4.722  0.0629 -0.7836  2.3990
   7123SM  H20G 9358   3.721  -0.655   4.593  2.3994  1.3708 -0.5045
   7123SM  C21F 9359   3.704  -0.736   4.787  0.7961  0.2428 -0.5624
   7123SM  H21F 9360   3.697  -0.707   4.894  0.3071 -0.9536 -0.2544
   7123SM  H21G 9361   3.786  -0.808   4.767  0.1821 -0.7602  0.3986
   7123SM  C22F 9362   3.573  -0.806   4.769  0.2305 -0.1311 -0.3914
   7123SM  H22F 9363   3.559  -0.838   4.664 -0.7506 -1.1483  0.0227
   7123SM  H22G 9364   3.487  -0.737   4.778 -1.3252 -1.2909 -4.2364
   7123SM  C23F 9365   3.567  -0.925   4.860 -0.2397 -0.0564  0.5865
   7123SM  H23F 9366   3.461  -0.957   4.859 -0.5041  0.7704  1.2053
   7123SM  H23G 9367   3.595  -0.899   4.965 -0.0657 -1.1962  0.8291
   7123SM  H23H 9368   3.630  -1.009   4.823 -1.4369 -0.7631  0.1187
   7223SM     N 9369   5.514   1.674   6.784  0.1341 -0.2352  0.1190
   7223SM   C15 9370   5.654   1.658   6.830 -0.2075 -0.1402 -0.4723
   7223SM  H15A 9371   5.663   1.599   6.920 -1.2522  1.0593  0.4529
   7223SM  H15B 9372   5.711   1.750   6.838  1.3792 -1.1809  0.9294
   7223SM  H15C 9373   5.715   1.606   6.757  3.7794  2.8657  0.3527
   7223SM   C14 9374   5.496   1.755   6.662 -0.0164  0.2240  0.0799
   7223SM  H14A 9375   5.550   1.713   6.578 -1.3597 -0.6804 -0.3639
   7223SM  H14B 9376   5.529   1.857   6.672  0.6710 -0.1252  1.7862
   7223SM  H14C 9377   5.394   1.763   6.629  0.5754  1.6429 -1.6049
   7223SM   C13 9378   5.455   1.542   6.756  0.8231 -0.6545  0.0860
   7223SM  H13A 9379   5.357   1.566   6.716  0.6616  0.4949  1.0934
   7223SM  H13B 9380   5.456   1.490   6.851  0.6957  0.1354  0.5357
   7223SM  H13C 9381   5.502   1.494   6.672 -0.4404 -1.2358 -0.3138
   7223SM   C12 9382   5.435   1.747   6.883  1.6403 -0.3365 -0.1033
   7223SM  H12A 9383   5.421   1.685   6.971 -1.7764 -1.1478 -1.0566
   7223SM  H12B 9384   5.336   1.750   6.840  1.5791 -0.4001  0.0307
   7223SM   C11 9385   5.463   1.895   6.920 -0.5193 -0.4148  0.1305
   7223SM  H11A 9386   5.397   1.929   7.004 -0.7459 -0.6645  0.0546
   7223SM  H11B 9387   5.440   1.955   6.830 -1.7659 -2.0844 -0.7078
   7223SM     P 9388   5.702   2.006   6.903  0.0196  0.1949 -0.0723
   7223SM   O13 9389   5.694   2.120   6.998  0.2797 -0.2310 -0.0532
   7223SM   O14 9390   5.833   1.950   6.886 -0.2322 -0.0423  0.1283
   7223SM   O11 9391   5.640   2.052   6.765  0.7125  0.1807 -0.3301
   7223SM   O12 9392   5.603   1.903   6.962 -0.4053 -0.3370  0.4371
   7223SM   C1S 9393   5.724   2.035   6.652  0.1969  0.3160 -0.1129
   7223SM   H1S 9394   5.781   1.940   6.660  0.8459  0.6322 -0.7985
   7223SM   H1T 9395   5.799   2.116   6.637  0.5619 -0.1283 -0.7413
   7223SM    NF 9396   5.726   2.007   6.410 -0.0055  0.3488  0.5633
   7223SM   HNF 9397   5.742   2.075   6.339  0.6457 -0.4474 -0.0715
   7223SM   C2S 9398   5.641   2.053   6.523  0.6190  0.3998 -0.2412
   7223SM   H2S 9399   5.551   1.989   6.527  0.4721  0.4809 -1.7034
   7223SM   C3S 9400   5.582   2.200   6.510 -0.0990  0.4525  0.0120
   7223SM   H3S 9401   5.671   2.267   6.504 -0.3339  0.8874  1.1427
   7223SM    O3 9402   5.500   2.225   6.628 -0.0549 -0.2797  0.2513
   7223SM   HO3 9403   5.545   2.177   6.698 -0.2131  0.1410  0.6404
   7223SM   C4S 9404   5.500   2.206   6.382 -0.3047  0.6665 -0.8254
   7223SM   H4S 9405   5.564   2.205   6.292  0.8423  0.7582 -0.0378
   7223SM   C5S 9406   5.363   2.220   6.372 -0.4411 -0.2640  0.1766
   7223SM   H5S 9407   5.312   2.224   6.469  1.9685 -0.9871  1.5752
   7223SM   C6S 9408   5.296   2.236   6.238  0.9544 -0.4111 -0.1127
   7223SM   H6S 9409   5.216   2.312   6.246  1.4826  0.0559  0.8630
   7223SM   H6T 9410   5.240   2.143   6.212 -1.1820  1.1299 -1.3733
   7223SM   C7S 9411   5.389   2.281   6.126  0.7616 -0.5018  0.4053
   7223SM   H7S 9412   5.483   2.223   6.112  0.6242 -0.1590 -2.6228
   7223SM   H7T 9413   5.418   2.385   6.155 -1.5500 -0.2427  2.1085
   7223SM   C8S 9414   5.329   2.276   5.985  0.3039 -0.0940  0.2425
   7223SM   H8S 9415   5.229   2.326   5.986  1.0176  1.3756  1.1588
   7223SM   H8T 9416   5.315   2.168   5.965 -0.9574 -0.6273  3.3903
   7223SM   C9S 9417   5.416   2.337   5.878 -0.3644  0.0249 -0.0124
   7223SM   H9S 9418   5.521   2.308   5.901  0.0763  0.7544 -1.0427
   7223SM   H9T 9419   5.412   2.448   5.869  3.6775  0.2446 -1.0888
   7223SM  C10S 9420   5.377   2.288   5.740 -0.1291 -0.1261 -0.5988
   7223SM  H10S 9421   5.280   2.333   5.711  0.4677  1.0534 -0.8509
   7223SM  H10T 9422   5.357   2.179   5.740 -2.6651  0.2830  0.0979
   7223SM  C11S 9423   5.496   2.325   5.642 -0.1839  0.2859  0.4076
   7223SM  H11S 9424   5.576   2.248   5.649 -1.1043 -0.6286  1.3433
   7223SM  H11T 9425   5.534   2.428   5.662 -0.8034  0.5630  0.1883
   7223SM  C12S 9426   5.448   2.321   5.498  0.5110  0.0529 -0.0835
   7223SM  H12S 9427   5.379   2.401   5.464 -0.1687 -1.2177 -1.7762
   7223SM  H12T 9428   5.385   2.231   5.487 -0.8238  1.2485 -3.1203
   7223SM  C13S 9429   5.562   2.313   5.390  0.5409  0.0284 -0.3077
   7223SM  H13S 9430   5.620   2.222   5.412  2.8218  1.5237  0.1868
   7223SM  H13T 9431   5.632   2.397   5.410  0.4669  0.4302 -1.5986
   7223SM  C14S 9432   5.526   2.316   5.238  0.0351 -0.1639  0.2920
   7223SM  H14S 9433   5.611   2.333   5.168 -0.9643 -0.9392 -1.1454
   7223SM  H14T 9434   5.470   2.412   5.230  2.5656  1.4878  0.9954
   7223SM  C15S 9435   5.429   2.212   5.176 -0.8606 -0.0912 -0.4730
   7223SM  H15S 9436   5.347   2.188   5.247  1.2720  0.2786  2.2515
   7223SM  H15T 9437   5.487   2.119   5.161  1.1356  1.4070 -2.7238
   7223SM  C16S 9438   5.367   2.264   5.048  0.5737 -0.3126  0.6919
   7223SM  H16S 9439   5.296   2.342   5.083  0.9372  0.0022  0.7383
   7223SM  H16T 9440   5.314   2.177   5.004  1.6389 -0.9905  0.7078
   7223SM  C17S 9441   5.459   2.314   4.940  0.0987 -0.5226  0.8305
   7223SM  H17S 9442   5.493   2.417   4.959 -1.4515  0.1996 -0.1207
   7223SM  H17T 9443   5.397   2.326   4.849 -1.4521 -1.6513  1.6871
   7223SM  C18S 9444   5.572   2.212   4.911 -0.0731 -0.3259 -0.4816
   7223SM  H18S 9445   5.527   2.112   4.897  0.4168 -0.6622  0.3356
   7223SM  H18T 9446   5.637   2.219   5.000 -1.4848  1.2316  0.4899
   7223SM  H18U 9447   5.626   2.250   4.821 -0.2215  3.6210  0.8832
   7223SM   C1F 9448   5.766   1.879   6.387  0.4551  0.0427 -0.6223
   7223SM    OF 9449   5.732   1.798   6.473 -0.3870 -0.1788 -0.4111
   7223SM   C2F 9450   5.860   1.855   6.276 -0.1036  0.1543  0.5066
   7223SM   H2F 9451   5.963   1.851   6.316 -0.6891  0.0042  2.0852
   7223SM   H2G 9452   5.857   1.932   6.196  3.0405 -1.9101 -1.7842
   7223SM   C3F 9453   5.815   1.715   6.214 -0.5475  0.0029  0.1870
   7223SM   H3F 9454   5.715   1.728   6.167 -0.0827 -0.3364 -0.9238
   7223SM   H3G 9455   5.788   1.645   6.296 -0.1223  1.4724  1.6268
   7223SM   C4F 9456   5.928   1.662   6.124  0.0091  0.4775  0.7335
   7223SM   H4F 9457   5.893   1.568   6.075  0.7517  1.0953 -1.0680
   7223SM   H4G 9458   6.018   1.635   6.182  1.1760 -0.3488 -1.3396
   7223SM   C5F 9459   5.963   1.759   6.002 -1.2163 -0.0985 -0.5035
   7223SM   H5F 9460   6.006   1.853   6.042 -2.4777  0.2655  0.0524
   7223SM   H5G 9461   5.865   1.772   5.952 -0.7668 -0.9217 -1.6408
   7223SM   C6F 9462   6.061   1.680   5.913  0.1314 -0.5510 -0.8135
   7223SM   H6F 9463   6.014   1.591   5.866 -1.4271  0.9295 -2.2197
   7223SM   H6G 9464   6.148   1.653   5.976 -0.8594 -1.3516  0.2532
   7223SM   C7F 9465   6.093   1.757   5.786  0.6594  0.7559  0.0580
   7223SM   H7F 9466   6.187   1.810   5.808  1.0872 -0.9026  2.8103
   7223SM   H7G 9467   6.011   1.828   5.764  1.9412  2.1942 -0.1751
   7223SM   C8F 9468   6.107   1.656   5.668 -0.3963  0.4708 -0.0637
   7223SM   H8F 9469   6.009   1.612   5.639  0.3388  0.4476 -2.8266
   7223SM   H8G 9470   6.171   1.568   5.689 -0.5043  0.4342  0.1185
   7223SM   C9F 9471   6.159   1.721   5.536 -0.1830  0.0354  0.1138
   7223SM   H9F 9472   6.261   1.759   5.561 -0.5306 -0.5132  2.6233
   7223SM   H9G 9473   6.088   1.804   5.516 -0.7383 -0.0772  1.5104
   7223SM  C10F 9474   6.154   1.635   5.411  0.2105  0.1956  0.0989
   7223SM  H10F 9475   6.051   1.593   5.408 -0.8814  2.5643  1.3904
   7223SM  H10G 9476   6.234   1.558   5.413  0.6491  0.6021 -1.0946
   7223SM  C11F 9477   6.180   1.716   5.283  0.2530  0.0578 -0.2646
   7223SM  H11F 9478   6.266   1.786   5.287 -1.2741  2.3380 -3.1580
   7223SM  H11G 9479   6.099   1.791   5.272  0.3261  0.2752  0.6525
   7223SM  C12F 9480   6.195   1.640   5.145 -0.2789  0.1539 -0.3445
   7223SM  H12F 9481   6.096   1.612   5.104 -0.3811  0.0866 -0.0576
   7223SM  H12G 9482   6.248   1.546   5.173 -0.8740 -0.7369 -2.1095
   7223SM  C13F 9483   6.273   1.729   5.043  0.5035 -0.4351 -0.0607
   7223SM  H13F 9484   6.288   1.655   4.961  0.5953 -0.8760  0.3486
   7223SM  H13G 9485   6.371   1.765   5.079 -0.5898  0.1023  2.5501
   7223SM  C14F 9486   6.191   1.852   4.995 -0.3074 -0.1446  0.1723
   7223SM  H14F 9487   6.180   1.923   5.080 -1.7514 -2.7229  2.2712
   7223SM  H14G 9488   6.088   1.834   4.958 -0.8689  0.3808  1.4119
   7223SM  C15F 9489   6.274   1.925   4.881 -0.6055  1.0099  0.1891
   7223SM  H15F 9490   6.284   1.850   4.800  0.0277  2.8152 -1.4701
   7223SM  H15G 9491   6.375   1.941   4.923 -0.4118  0.2520  0.0219
   7223SM  C16F 9492   6.201   2.050   4.830  0.0125 -0.6952 -0.0507
   7223SM  H16F 9493   6.193   2.127   4.910 -0.4847 -1.5646  0.7488
   7223SM  H16G 9494   6.097   2.018   4.806  0.6190 -1.9415 -1.1526
   7223SM  C17F 9495   6.267   2.125   4.718 -0.4311  0.5974 -0.3232
   7223SM  H17F 9496   6.362   2.174   4.748  0.8068 -0.5322 -2.1927
   7223SM  H17G 9497   6.203   2.214   4.701 -0.5067  0.6032 -0.0238
   7223SM  C18F 9498   6.266   2.054   4.588 -0.0150  0.2372  0.0740
   7223SM  H18F 9499   6.161   2.034   4.556  0.0669  0.6750 -0.4866
   7223SM  H18G 9500   6.318   1.956   4.582 -2.6112 -1.1880 -0.7118
   7223SM  C19F 9501   6.314   2.158   4.478 -0.2892 -0.7340  0.0072
   7223SM  H19F 9502   6.275   2.261   4.497 -0.3443 -0.4896 -1.3236
   7223SM  H19G 9503   6.278   2.131   4.377 -0.8258  1.8784 -0.5969
   7223SM  C20F 9504   6.471   2.159   4.454  0.6917  0.7709 -0.2001
   7223SM  H20F 9505   6.493   2.210   4.358 -1.5819  2.4761  0.0941
   7223SM  H20G 9506   6.504   2.054   4.445 -0.1861  0.4981 -0.3513
   7223SM  C21F 9507   6.552   2.230   4.565 -0.8408  0.0784  0.0096
   7223SM  H21F 9508   6.661   2.230   4.545 -1.0817 -1.2197 -1.4021
   7223SM  H21G 9509   6.552   2.177   4.663  2.8218 -0.0238  0.1109
   7223SM  C22F 9510   6.496   2.378   4.574  0.0714  0.4013 -0.3363
   7223SM  H22F 9511   6.396   2.371   4.623  0.3786 -0.1979  0.2250
   7223SM  H22G 9512   6.480   2.411   4.469 -1.0178  0.3624 -0.2028
   7223SM  C23F 9513   6.577   2.483   4.641 -0.0192 -0.8099  0.1290
   7223SM  H23F 9514   6.536   2.585   4.630 -1.1077 -1.3783 -1.3758
   7223SM  H23G 9515   6.678   2.499   4.597  0.8783 -0.3010  2.2356
   7223SM  H23H 9516   6.600   2.462   4.748  1.1514  1.4465  0.3799
   7323SM     N 9517   3.862   0.883   7.262  0.2670  0.0052 -0.0059
   7323SM   C15 9518   3.785   1.005   7.297  0.3622  0.4017 -0.3155
   7323SM  H15A 9519   3.682   0.996   7.265  1.4815 -3.0125 -3.7897
   7323SM  H15B 9520   3.833   1.094   7.261  1.3290  0.5271  1.1848
   7323SM  H15C 9521   3.783   1.016   7.405  1.1409  1.1946 -0.3761
   7323SM   C14 9522   4.014   0.911   7.278  0.0228  0.9727 -0.0892
   7323SM  H14A 9523   4.035   0.954   7.375  1.7214  1.9258 -0.8332
   7323SM  H14B 9524   4.062   0.978   7.207  0.2664 -0.3073 -1.1714
   7323SM  H14C 9525   4.066   0.816   7.279 -0.7939  0.5025 -1.0650
   7323SM   C13 9526   3.815   0.772   7.349  0.1751  0.3199 -0.4817
   7323SM  H13A 9527   3.861   0.678   7.321  0.3968 -0.3126  1.7657
   7323SM  H13B 9528   3.708   0.763   7.340  0.1010 -1.0361  1.2072
   7323SM  H13C 9529   3.858   0.796   7.445  0.5499 -4.5896  0.8709
   7323SM   C12 9530   3.839   0.835   7.118  0.2306  0.3558 -0.1119
   7323SM  H12A 9531   3.778   0.746   7.106  1.2336 -0.3205 -0.2947
   7323SM  H12B 9532   3.937   0.803   7.087  1.1810  1.3135  1.7678
   7323SM   C11 9533   3.795   0.951   7.026 -0.4133 -0.1208 -0.7081
   7323SM  H11A 9534   3.706   1.003   7.068  0.3808  1.7028 -1.2027
   7323SM  H11B 9535   3.760   0.895   6.937  3.0112 -2.6277 -0.6576
   7323SM     P 9536   3.888   1.184   7.005 -0.3218  0.1018  0.0126
   7323SM   O13 9537   3.756   1.227   7.047  0.0845  0.2879 -1.0425
   7323SM   O14 9538   3.996   1.232   7.091  0.4382  0.4336 -0.1281
   7323SM   O11 9539   3.917   1.243   6.853 -0.4875 -0.1640  0.3589
   7323SM   O12 9540   3.903   1.036   6.993 -0.1770  0.1812 -0.1926
   7323SM   C1S 9541   4.027   1.184   6.774  0.2319 -0.3931 -0.3542
   7323SM   H1S 9542   4.012   1.075   6.788 -1.7394 -0.3691 -1.9201
   7323SM   H1T 9543   4.125   1.222   6.809  1.4797 -1.9655 -1.9844
   7323SM    NF 9544   4.124   1.158   6.568  0.5740  0.3757 -0.4502
   7323SM   HNF 9545   4.194   1.217   6.531 -0.9338  0.6682 -3.0995
   7323SM   C2S 9546   4.012   1.223   6.630 -0.5530 -0.6135  0.4618
   7323SM   H2S 9547   3.917   1.180   6.592 -1.0030 -0.0202  0.8766
   7323SM   C3S 9548   4.003   1.376   6.604 -0.6252 -0.1963  0.2010
   7323SM   H3S 9549   4.098   1.429   6.625  0.9720 -1.7019 -2.5899
   7323SM    O3 9550   3.910   1.447   6.678  0.4253  0.1387  0.1929
   7323SM   HO3 9551   3.880   1.389   6.749  0.2713  0.1673  0.1505
   7323SM   C4S 9552   4.000   1.400   6.458 -0.4206  0.4421 -0.4244
   7323SM   H4S 9553   4.094   1.361   6.417 -0.3307  2.6117 -2.4784
   7323SM   C5S 9554   3.897   1.422   6.378 -0.1978 -0.0754 -0.1290
   7323SM   H5S 9555   3.793   1.429   6.413  0.1210  2.6269  0.5328
   7323SM   C6S 9556   3.903   1.415   6.233 -0.3291  0.1809 -0.1169
   7323SM   H6S 9557   3.857   1.321   6.197  0.1544  0.3074 -1.0984
   7323SM   H6T 9558   4.004   1.408   6.187  0.1222  2.8898  0.2856
   7323SM   C7S 9559   3.841   1.539   6.160 -0.1790  0.0626 -0.3563
   7323SM   H7S 9560   3.921   1.616   6.167  0.1082 -0.1915 -0.8672
   7323SM   H7T 9561   3.749   1.588   6.199  0.8129  1.9598 -0.2673
   7323SM   C8S 9562   3.798   1.508   6.010  0.3024 -0.5004  0.2915
   7323SM   H8S 9563   3.793   1.605   5.955 -1.1740  0.6312  2.3005
   7323SM   H8T 9564   3.697   1.462   6.005 -0.4984  1.2344 -0.1084
   7323SM   C9S 9565   3.903   1.425   5.931  0.6155 -0.6020 -0.3741
   7323SM   H9S 9566   3.899   1.318   5.962  2.1870 -1.3077 -2.3374
   7323SM   H9T 9567   4.004   1.469   5.944  1.5443 -2.6711 -0.1050
   7323SM  C10S 9568   3.880   1.423   5.781  0.6984  0.5802  0.0890
   7323SM  H10S 9569   3.776   1.389   5.762  0.3736  0.0641  2.5130
   7323SM  H10T 9570   3.941   1.346   5.728 -0.4793 -0.4754  0.2186
   7323SM  C11S 9571   3.892   1.563   5.719 -0.3522  0.3954 -0.7428
   7323SM  H11S 9572   3.991   1.605   5.749 -0.0932 -0.3545 -0.5187
   7323SM  H11T 9573   3.813   1.634   5.749 -0.4139 -0.8062  2.3014
   7323SM  C12S 9574   3.881   1.554   5.567  0.1173 -0.1268  0.0586
   7323SM  H12S 9575   3.963   1.499   5.517  0.7999  1.1206 -0.2278
   7323SM  H12T 9576   3.892   1.653   5.518  2.1962 -0.6596 -0.6510
   7323SM  C13S 9577   3.754   1.485   5.500 -0.2564 -0.0794  0.1294
   7323SM  H13S 9578   3.674   1.468   5.575 -0.2892 -1.5597 -0.2202
   7323SM  H13T 9579   3.788   1.389   5.455  1.0503  0.7872 -0.8024
   7323SM  C14S 9580   3.699   1.571   5.392  0.4558 -0.9675  0.5900
   7323SM  H14S 9581   3.658   1.664   5.437 -1.5310 -0.1244 -2.6563
   7323SM  H14T 9582   3.622   1.508   5.343 -0.7434  1.2666 -0.5820
   7323SM  C15S 9583   3.796   1.608   5.282  0.2740  0.5607  0.4904
   7323SM  H15S 9584   3.891   1.651   5.320  1.2789  1.1000 -2.4281
   7323SM  H15T 9585   3.759   1.685   5.211 -3.7268 -0.2160  1.4810
   7323SM  C16S 9586   3.831   1.488   5.194  0.7993  0.4101  0.1033
   7323SM  H16S 9587   3.747   1.461   5.126  0.7432  0.2835  0.2215
   7323SM  H16T 9588   3.857   1.406   5.264 -1.2676  1.8671  2.7535
   7323SM  C17S 9589   3.951   1.510   5.100 -0.1508  0.6588  0.5693
   7323SM  H17S 9590   4.041   1.544   5.156  0.5960  0.2795 -0.3793
   7323SM  H17T 9591   3.923   1.600   5.040  0.2715  0.6388  0.3388
   7323SM  C18S 9592   3.976   1.391   5.013  0.5168 -0.4162  0.1662
   7323SM  H18S 9593   3.883   1.335   4.990  0.3159 -0.2276  0.5046
   7323SM  H18T 9594   4.041   1.316   5.063  0.1340 -0.4389  0.6481
   7323SM  H18U 9595   4.018   1.424   4.916 -1.0373 -0.6711 -0.6293
   7323SM   C1F 9596   4.126   1.020   6.556  0.4960 -0.1625  0.2670
   7323SM    OF 9597   4.018   0.953   6.575  0.4935  0.9292 -0.1210
   7323SM   C2F 9598   4.263   0.962   6.515  0.1207  0.0306 -0.2290
   7323SM   H2F 9599   4.310   0.901   6.595 -0.2171 -0.6960 -0.5764
   7323SM   H2G 9600   4.339   1.037   6.483  1.4437 -1.7630 -1.5316
   7323SM   C3F 9601   4.243   0.861   6.392  0.2108 -0.2162 -0.4350
   7323SM   H3F 9602   4.186   0.901   6.306  0.7165  1.0193 -0.2192
   7323SM   H3G 9603   4.180   0.777   6.428  0.1344  0.5699  1.4198
   7323SM   C4F 9604   4.372   0.793   6.332 -0.4759 -0.3435 -0.1582
   7323SM   H4F 9605   4.348   0.716   6.256  2.4267 -0.7830 -0.7654
   7323SM   H4G 9606   4.418   0.731   6.412 -2.0536 -1.7429 -0.2936
   7323SM   C5F 9607   4.465   0.899   6.280 -0.1498 -0.6707  0.2513
   7323SM   H5F 9608   4.511   0.964   6.357  0.5875  0.7440 -1.3187
   7323SM   H5G 9609   4.411   0.968   6.212  2.5542 -0.3052 -1.6814
   7323SM   C6F 9610   4.579   0.842   6.191 -0.0811  0.3839  0.3390
   7323SM   H6F 9611   4.628   0.760   6.248 -2.3586 -0.1013  1.6970
   7323SM   H6G 9612   4.650   0.928   6.182 -0.7670  1.2291  2.3870
   7323SM   C7F 9613   4.518   0.790   6.056  0.1593  0.7218  0.2593
   7323SM   H7F 9614   4.493   0.882   5.999  1.7602  0.5254 -0.8117
   7323SM   H7G 9615   4.429   0.724   6.067  2.7906 -2.8312  2.3777
   7323SM   C8F 9616   4.617   0.708   5.973 -1.0044  0.4037 -0.1048
   7323SM   H8F 9617   4.555   0.693   5.882 -0.3414  0.5827 -0.5901
   7323SM   H8G 9618   4.642   0.614   6.027  0.7640  1.6114  1.3028
   7323SM   C9F 9619   4.750   0.776   5.922  0.3708 -0.9420 -0.0481
   7323SM   H9F 9620   4.803   0.717   5.844 -0.3852  1.5035 -2.5941
   7323SM   H9G 9621   4.825   0.799   6.000 -0.5386 -1.2613  0.9559
   7323SM  C10F 9622   4.720   0.909   5.839  0.4260 -0.0829  0.4644
   7323SM  H10F 9623   4.813   0.957   5.803 -0.0992  1.6545  1.2701
   7323SM  H10G 9624   4.664   0.988   5.894 -0.1504  0.4327 -0.8319
   7323SM  C11F 9625   4.623   0.889   5.721 -0.4139 -0.6353  0.0074
   7323SM  H11F 9626   4.520   0.898   5.762 -0.8578  0.3719 -1.2518
   7323SM  H11G 9627   4.638   0.788   5.677  1.7119  0.3826 -1.8305
   7323SM  C12F 9628   4.657   0.977   5.597 -0.0712  0.5960  0.4117
   7323SM  H12F 9629   4.756   0.949   5.556 -0.6424 -1.9634  0.6339
   7323SM  H12G 9630   4.662   1.085   5.623 -2.4360  1.8302 -3.4337
   7323SM  C13F 9631   4.544   0.967   5.487  0.0950  0.6825 -0.8968
   7323SM  H13F 9632   4.451   0.998   5.539  1.4389 -1.7574  3.4808
   7323SM  H13G 9633   4.542   0.858   5.466 -1.0516  0.4904  0.1174
   7323SM  C14F 9634   4.565   1.049   5.359 -0.6262  0.0374 -0.0718
   7323SM  H14F 9635   4.649   1.010   5.297 -0.6243 -0.7279  0.3960
   7323SM  H14G 9636   4.579   1.156   5.387 -3.3991  0.1792  1.0703
   7323SM  C15F 9637   4.433   1.051   5.279 -0.4826  0.2677 -0.0144
   7323SM  H15F 9638   4.362   1.113   5.338 -0.8042 -0.7378  0.7002
   7323SM  H15G 9639   4.387   0.949   5.286 -0.2121  0.2154  1.2904
   7323SM  C16F 9640   4.449   1.092   5.139  0.0569  0.3158  0.8428
   7323SM  H16F 9641   4.521   1.026   5.086 -0.7645  1.5012 -1.9105
   7323SM  H16G 9642   4.488   1.196   5.141  1.8496 -0.3294  0.7653
   7323SM  C17F 9643   4.323   1.083   5.050  0.1615  0.3954 -0.2446
   7323SM  H17F 9644   4.243   1.156   5.074  0.4045  0.2626  1.0045
   7323SM  H17G 9645   4.278   0.982   5.061  0.4180  0.2937 -0.1446
   7323SM  C18F 9646   4.357   1.105   4.904  0.4837  0.0496 -0.0925
   7323SM  H18F 9647   4.420   1.025   4.861  0.3269  0.6584 -1.5314
   7323SM  H18G 9648   4.403   1.206   4.893  0.9859 -0.2951 -1.3111
   7323SM  C19F 9649   4.231   1.102   4.825  0.8153 -1.1013 -0.4349
   7323SM  H19F 9650   4.153   1.173   4.859  1.7749  0.0296 -0.5495
   7323SM  H19G 9651   4.191   0.999   4.818 -1.9137 -0.1642  0.2205
   7323SM  C20F 9652   4.268   1.141   4.680  0.2230 -0.5536  0.9494
   7323SM  H20F 9653   4.362   1.089   4.652 -0.3078 -1.6212  1.0647
   7323SM  H20G 9654   4.283   1.250   4.689 -1.6803 -0.2947  1.5244
   7323SM  C21F 9655   4.159   1.108   4.576 -0.2865 -0.0102  0.1588
   7323SM  H21F 9656   4.065   1.153   4.615  0.1714  0.8742  0.2894
   7323SM  H21G 9657   4.160   0.997   4.575 -0.7799 -0.1319  2.9250
   7323SM  C22F 9658   4.188   1.155   4.431  0.4890  0.0238  0.8044
   7323SM  H22F 9659   4.117   1.106   4.361 -0.3294  2.3410 -0.1041
   7323SM  H22G 9660   4.295   1.126   4.422  0.3737 -0.6080  1.4062
   7323SM  C23F 9661   4.165   1.304   4.405 -0.0924 -0.4302  0.4527
   7323SM  H23F 9662   4.195   1.327   4.301  0.3954  0.5867  0.8112
   7323SM  H23G 9663   4.229   1.354   4.480  0.6559  1.3038 -1.2524
   7323SM  H23H 9664   4.058   1.327   4.425 -0.2530 -0.4855 -0.3010
   7423SM     N 9665   0.348   5.286   6.838  0.6478 -0.4310 -0.3266
   7423SM   C15 9666   0.236   5.263   6.742  0.4096 -0.9526  0.6766
   7423SM  H15A 9667   0.238   5.319   6.650 -0.0373 -2.2364 -0.1510
   7423SM  H15B 9668   0.143   5.293   6.787  0.7371  0.4367  0.4641
   7423SM  H15C 9669   0.227   5.158   6.718 -1.8538 -0.7297  0.3891
   7423SM   C14 9670   0.346   5.430   6.881 -0.6023  0.2802 -0.3068
   7423SM  H14A 9671   0.328   5.506   6.807 -2.1031  0.1884 -0.0696
   7423SM  H14B 9672   0.433   5.462   6.938 -0.7117  0.6146 -0.3276
   7423SM  H14C 9673   0.268   5.433   6.956  0.5887  1.6598  0.9625
   7423SM   C13 9674   0.329   5.197   6.960 -0.4878  0.5739 -0.4810
   7423SM  H13A 9675   0.406   5.220   7.032 -0.0754  2.3625 -1.4240
   7423SM  H13B 9676   0.329   5.093   6.930  1.5043 -0.8048  3.5197
   7423SM  H13C 9677   0.235   5.222   7.006 -0.9129 -1.6707 -0.0389
   7423SM   C12 9678   0.480   5.239   6.775 -0.3616  0.0448 -0.5646
   7423SM  H12A 9679   0.478   5.134   6.750 -1.6687 -0.1987  0.4677
   7423SM  H12B 9680   0.560   5.261   6.844  0.9580 -0.5441 -1.8397
   7423SM   C11 9681   0.518   5.315   6.645  0.2187  0.5804  0.1894
   7423SM  H11A 9682   0.623   5.288   6.620  0.0331 -1.9748  1.7277
   7423SM  H11B 9683   0.516   5.423   6.669 -2.3229  0.7504 -0.4414
   7423SM     P 9684   0.433   5.136   6.467 -0.3093  0.3690 -0.1017
   7423SM   O13 9685   0.364   5.030   6.546  0.6023 -0.4578  0.2193
   7423SM   O14 9686   0.384   5.159   6.328  0.3118  0.5682 -0.0899
   7423SM   O11 9687   0.587   5.097   6.462 -0.5764 -0.1044  0.5637
   7423SM   O12 9688   0.433   5.275   6.542  0.0626 -0.0286 -0.3134
   7423SM   C1S 9689   0.644   5.007   6.365 -0.4779  0.0536  0.2490
   7423SM   H1S 9690   0.556   4.966   6.310 -1.1687 -0.5595  1.7366
   7423SM   H1T 9691   0.697   4.919   6.409 -0.1103 -0.9072 -1.9851
   7423SM    NF 9692   0.763   4.991   6.153  0.1512  0.0295  0.4019
   7423SM   HNF 9693   0.844   4.934   6.156  0.3986  0.3359 -0.2956
   7423SM   C2S 9694   0.744   5.072   6.270 -0.8407  0.8651  0.0859
   7423SM   H2S 9695   0.694   5.169   6.246 -2.0286  0.7149  1.7566
   7423SM   C3S 9696   0.874   5.113   6.339  0.2964  0.2682  0.0661
   7423SM   H3S 9697   0.919   5.021   6.382  0.3154 -1.1717 -2.7415
   7423SM    O3 9698   0.859   5.188   6.459  0.0941  0.5042 -0.5091
   7423SM   HO3 9699   0.764   5.199   6.469  0.2148  1.2147 -0.0859
   7423SM   C4S 9700   0.967   5.179   6.241  0.7347 -0.5932  0.8707
   7423SM   H4S 9701   1.036   5.119   6.180 -1.5914 -0.6767 -1.8831
   7423SM   C5S 9702   0.956   5.311   6.206 -0.5413  0.2975  0.0350
   7423SM   H5S 9703   0.884   5.381   6.252  1.6837  1.7868  1.4047
   7423SM   C6S 9704   1.044   5.369   6.094 -0.7206  0.7966  0.3308
   7423SM   H6S 9705   1.142   5.318   6.084 -0.8092  0.6325  0.3023
   7423SM   H6T 9706   1.064   5.478   6.111 -0.1938  1.1409 -2.1850
   7423SM   C7S 9707   0.966   5.351   5.965 -0.3285 -0.1562  0.4656
   7423SM   H7S 9708   0.861   5.381   5.985 -0.1062  0.9182  0.0799
   7423SM   H7T 9709   0.955   5.251   5.920 -2.6261  1.3873 -2.7943
   7423SM   C8S 9710   1.001   5.437   5.847  0.2346 -0.6546  0.2583
   7423SM   H8S 9711   1.110   5.415   5.835  0.2597 -0.7825  0.7044
   7423SM   H8T 9712   0.988   5.544   5.876 -1.3258 -1.4151  2.6269
   7423SM   C9S 9713   0.913   5.400   5.722 -0.5092  0.9559  0.1220
   7423SM   H9S 9714   0.920   5.478   5.643 -1.5374  0.3310 -0.6073
   7423SM   H9T 9715   0.807   5.401   5.757 -0.7972 -1.8558 -0.4187
   7423SM  C10S 9716   0.942   5.261   5.660  0.4863 -0.1829 -0.4180
   7423SM  H10S 9717   0.947   5.190   5.746 -0.6962 -0.2855 -0.4124
   7423SM  H10T 9718   1.035   5.251   5.601 -0.8197  0.3563 -2.7002
   7423SM  C11S 9719   0.827   5.211   5.573 -0.2349  0.1725 -0.2066
   7423SM  H11S 9720   0.736   5.205   5.637  0.9970 -0.8890  1.5317
   7423SM  H11T 9721   0.851   5.104   5.556  0.8895  0.5964 -1.4011
   7423SM  C12S 9722   0.790   5.280   5.443 -1.1417 -0.0149  0.5751
   7423SM  H12S 9723   0.784   5.390   5.461 -0.0325  0.1698 -0.1174
   7423SM  H12T 9724   0.694   5.246   5.397 -1.7753  0.9799  1.1141
   7423SM  C13S 9725   0.890   5.257   5.324 -0.6598  0.1944  0.3200
   7423SM  H13S 9726   0.884   5.148   5.302 -1.2283 -0.3235  2.7432
   7423SM  H13T 9727   0.990   5.275   5.370 -0.1674 -2.1323  0.3184
   7423SM  C14S 9728   0.878   5.349   5.199  0.3683 -0.2203  0.1150
   7423SM  H14S 9729   0.934   5.303   5.115 -1.2295 -3.0813  0.4993
   7423SM  H14T 9730   0.909   5.452   5.226  1.7775  0.1811 -2.6918
   7423SM  C15S 9731   0.731   5.348   5.148 -0.0796 -0.3598 -0.5710
   7423SM  H15S 9732   0.665   5.424   5.195  3.0389  1.6195  0.9125
   7423SM  H15T 9733   0.682   5.251   5.168 -1.1683  0.6452  2.1349
   7423SM  C16S 9734   0.722   5.366   4.990 -0.1732 -0.1240  0.4037
   7423SM  H16S 9735   0.752   5.265   4.954 -0.8366 -0.4074  0.6400
   7423SM  H16T 9736   0.792   5.448   4.963 -1.9655  0.9531 -1.1776
   7423SM  C17S 9737   0.578   5.398   4.929 -0.3986  0.5800 -0.3904
   7423SM  H17S 9738   0.548   5.501   4.959 -1.2501  0.2505 -0.1167
   7423SM  H17T 9739   0.510   5.319   4.967  1.1549 -1.0495 -0.8281
   7423SM  C18S 9740   0.590   5.395   4.777 -0.6124  0.5077 -0.4703
   7423SM  H18S 9741   0.622   5.492   4.733  0.4585  0.8754  1.0286
   7423SM  H18T 9742   0.489   5.383   4.732  0.1898 -1.3484 -1.8776
   7423SM  H18U 9743   0.653   5.310   4.745 -1.7860 -0.2170 -0.9193
   7423SM   C1F 9744   0.680   4.971   6.044  0.2999 -0.0343  0.4472
   7423SM    OF 9745   0.562   5.017   6.037  0.2196 -0.1308 -0.0066
   7423SM   C2F 9746   0.732   4.899   5.929 -0.1539  0.2884 -0.0524
   7423SM   H2F 9747   0.748   4.791   5.950 -1.6415  0.0931  0.1685
   7423SM   H2G 9748   0.832   4.939   5.902 -0.1683 -1.0338 -2.3159
   7423SM   C3F 9749   0.653   4.923   5.797 -0.4041  0.3285  0.1322
   7423SM   H3F 9750   0.672   5.025   5.758 -0.1409  0.5409  0.7981
   7423SM   H3G 9751   0.545   4.909   5.816 -0.0490 -0.7988  1.4740
   7423SM   C4F 9752   0.692   4.823   5.690 -0.0094  0.2032  0.6807
   7423SM   H4F 9753   0.664   4.719   5.719  3.2788 -0.5889  1.3283
   7423SM   H4G 9754   0.802   4.823   5.683  0.2499 -3.3026  2.4521
   7423SM   C5F 9755   0.627   4.875   5.558 -0.6573  0.6619 -0.0032
   7423SM   H5F 9756   0.681   4.968   5.533  0.5962  0.5039  1.9016
   7423SM   H5G 9757   0.517   4.886   5.573 -0.8792 -1.6726  0.5122
   7423SM   C6F 9758   0.648   4.775   5.441 -0.6157 -0.6973 -0.3170
   7423SM   H6F 9759   0.583   4.688   5.461 -1.7884  0.6820  2.3326
   7423SM   H6G 9760   0.752   4.742   5.423 -0.4247  0.6519 -2.0022
   7423SM   C7F 9761   0.607   4.846   5.313  0.2830 -0.1980  0.6288
   7423SM   H7F 9762   0.666   4.940   5.313  0.7765 -0.5030  0.1706
   7423SM   H7G 9763   0.500   4.876   5.308  0.1746 -0.6111  0.4239
   7423SM   C8F 9764   0.643   4.769   5.190  0.1508  0.8675 -0.3662
   7423SM   H8F 9765   0.572   4.684   5.178  0.8026  0.4099 -1.1156
   7423SM   H8G 9766   0.735   4.707   5.197 -0.5815 -0.3460 -0.9358
   7423SM   C9F 9767   0.634   4.856   5.065  0.0339  0.4238 -0.1174
   7423SM   H9F 9768   0.712   4.934   5.077 -1.9271  2.1762  2.0030
   7423SM   H9G 9769   0.533   4.903   5.058 -0.6955 -1.2030 -1.2917
   7423SM  C10F 9770   0.679   4.772   4.944 -0.7956 -0.8119 -0.4316
   7423SM  H10F 9771   0.785   4.742   4.958 -0.3375 -1.0938 -3.6062
   7423SM  H10G 9772   0.683   4.846   4.861  2.5287 -0.2212  0.1256
   7423SM  C11F 9773   0.597   4.647   4.896 -0.0466 -0.2140  0.1544
   7423SM  H11F 9774   0.491   4.679   4.898  0.0769  0.2415 -0.3641
   7423SM  H11G 9775   0.608   4.573   4.978  0.3453  1.2079  1.4352
   7423SM  C12F 9776   0.646   4.601   4.752 -0.3778 -0.3556 -0.6098
   7423SM  H12F 9777   0.631   4.687   4.684 -0.4771  0.5856  0.5729
   7423SM  H12G 9778   0.584   4.521   4.707 -0.2970 -1.1655  0.6462
   7423SM  C13F 9779   0.798   4.558   4.765 -0.8455  0.5842  0.4116
   7423SM  H13F 9780   0.809   4.484   4.846  0.9976 -0.8962 -1.0922
   7423SM  H13G 9781   0.868   4.643   4.781  1.3083 -0.6298 -1.8455
   7423SM  C14F 9782   0.839   4.485   4.637 -0.4327 -0.2824 -0.1064
   7423SM  H14F 9783   0.758   4.413   4.615 -0.8686 -0.4645  1.8950
   7423SM  H14G 9784   0.937   4.433   4.640  0.4932  1.0526 -3.2814
   7423SM  C15F 9785   0.843   4.584   4.515 -0.1346  0.1919 -0.0098
   7423SM  H15F 9786   0.892   4.681   4.537  0.4687  0.0231 -0.5840
   7423SM  H15G 9787   0.735   4.602   4.497 -0.7024 -1.1952  1.7165
   7423SM  C16F 9788   0.900   4.522   4.387  0.0265 -0.0967  1.2835
   7423SM  H16F 9789   0.866   4.418   4.369  1.8880 -0.4050 -0.9073
   7423SM  H16G 9790   1.009   4.524   4.406  0.4759  1.7580 -1.0494
   7423SM  C17F 9791   0.874   4.610   4.261 -0.5398  1.0156  0.0558
   7423SM  H17F 9792   0.924   4.706   4.287  1.5228 -0.1338  0.5298
   7423SM  H17G 9793   0.763   4.615   4.255 -0.4798  0.8499 -1.3748
   7423SM  C18F 9794   0.939   4.554   4.125  1.0393  0.2558 -0.6510
   7423SM  H18F 9795   0.917   4.445   4.124 -0.3497  0.4928  0.3494
   7423SM  H18G 9796   1.049   4.567   4.126  0.9505  1.5303 -2.5273
   7423SM  C19F 9797   0.889   4.633   4.007 -0.3457  0.1430  0.5248
   7423SM  H19F 9798   0.904   4.742   4.019  0.7265 -0.0654  1.1772
   7423SM  H19G 9799   0.781   4.605   4.006 -0.1800 -0.7740 -2.2877
   7423SM  C20F 9800   0.944   4.578   3.869 -0.0774  0.1822 -0.5638
   7423SM  H20F 9801   0.943   4.467   3.871  0.2836  0.1694 -0.8475
   7423SM  H20G 9802   1.051   4.603   3.851 -0.2871 -0.1953 -2.5951
   7423SM  C21F 9803   0.869   4.629   3.750 -0.0384 -0.1685  0.2256
   7423SM  H21F 9804   0.926   4.624   3.655 -1.0626 -1.4884 -0.3434
   7423SM  H21G 9805   0.843   4.736   3.766 -0.7118 -0.1935 -0.6094
   7423SM  C22F 9806   0.752   4.535   3.717 -0.1070 -0.2523  0.9750
   7423SM  H22F 9807   0.677   4.552   3.797 -1.2432  0.3297 -0.1676
   7423SM  H22G 9808   0.777   4.427   3.716 -0.4884 -0.3472 -0.7925
   7423SM  C23F 9809   0.691   4.571   3.582  0.0631  0.5353 -0.7437
   7423SM  H23F 9810   0.758   4.555   3.495  0.3431  0.1987 -0.4733
   7423SM  H23G 9811   0.645   4.671   3.569  0.9118  0.7243 -2.5986
   7423SM  H23H 9812   0.600   4.509   3.573  0.8222 -1.1317  1.8480
   7523SM     N 9813   7.186   4.246   6.839 -0.6287  0.4063 -0.0093
   7523SM   C15 9814   7.194   4.131   6.934 -0.1785  0.0722 -0.6070
   7523SM  H15A 9815   7.124   4.143   7.016  2.3264  2.8736  1.3330
   7523SM  H15B 9816   7.292   4.131   6.980  0.0952 -1.3359 -1.1321
   7523SM  H15C 9817   7.191   4.035   6.884  2.1781 -0.9225  0.9695
   7523SM   C14 9818   7.191   4.374   6.917  0.0122 -0.1901 -0.3117
   7523SM  H14A 9819   7.219   4.463   6.861 -0.0433 -0.2378 -0.4139
   7523SM  H14B 9820   7.255   4.371   7.004 -1.1375  0.7944  0.6035
   7523SM  H14C 9821   7.095   4.392   6.964  1.2367  0.2028  2.2314
   7523SM   C13 9822   7.303   4.221   6.756  0.1784 -0.0237 -1.0399
   7523SM  H13A 9823   7.396   4.223   6.810  0.8360 -0.8238 -2.0857
   7523SM  H13B 9824   7.308   4.290   6.674 -0.3314  0.2776 -0.8210
   7523SM  H13C 9825   7.291   4.127   6.703  0.9694 -1.3738  1.0696
   7523SM   C12 9826   7.068   4.240   6.756 -0.3310 -0.0824  0.0246
   7523SM  H12A 9827   7.058   4.150   6.698 -1.7943  0.5822 -0.8161
   7523SM  H12B 9828   7.074   4.315   6.678 -2.0203 -2.7814 -2.9576
   7523SM   C11 9829   6.925   4.250   6.807  0.4928  0.8908  0.1729
   7523SM  H11A 9830   6.897   4.159   6.865 -0.4613 -0.8686 -2.8435
   7523SM  H11B 9831   6.863   4.245   6.715  0.5668  0.0445  0.1635
   7523SM     P 9832   6.799   4.478   6.866 -0.2073  0.0402  0.1459
   7523SM   O13 9833   6.675   4.445   6.935  0.8821 -0.3411 -0.2079
   7523SM   O14 9834   6.853   4.608   6.906  0.4015 -0.6236  0.5753
   7523SM   O11 9835   6.779   4.480   6.707 -0.5169  0.2057  0.0418
   7523SM   O12 9836   6.903   4.363   6.890  0.1870 -0.4231 -0.5812
   7523SM   C1S 9837   6.880   4.549   6.634  0.0187 -0.0560 -0.8248
   7523SM   H1S 9838   6.983   4.514   6.660 -0.4560 -1.3587 -0.6405
   7523SM   H1T 9839   6.875   4.660   6.637  1.1695  0.0548 -2.0441
   7523SM    NF 9840   6.976   4.546   6.407 -0.2988  0.5916 -0.1404
   7523SM   HNF 9841   6.968   4.630   6.354 -0.1532 -0.8726 -2.6611
   7523SM   C2S 9842   6.858   4.518   6.480  0.4004 -0.6903 -1.1676
   7523SM   H2S 9843   6.845   4.408   6.467 -2.3085 -0.8088  1.4812
   7523SM   C3S 9844   6.730   4.585   6.428  0.3306  0.2869 -0.1557
   7523SM   H3S 9845   6.752   4.693   6.424  0.4612  0.3064  0.7707
   7523SM    O3 9846   6.618   4.583   6.515 -0.7908 -0.3868  0.4744
   7523SM   HO3 9847   6.660   4.552   6.595  2.1374  0.9747 -0.3867
   7523SM   C4S 9848   6.695   4.553   6.288 -0.0564 -0.0872  0.1063
   7523SM   H4S 9849   6.747   4.613   6.212  0.0049  0.1210  0.3129
   7523SM   C5S 9850   6.607   4.466   6.229  0.7475 -0.1887 -0.3347
   7523SM   H5S 9851   6.546   4.400   6.292 -1.0809  3.1349  1.7079
   7523SM   C6S 9852   6.586   4.456   6.076 -0.7115 -0.3735 -0.0812
   7523SM   H6S 9853   6.634   4.369   6.029 -0.6316  0.1930 -1.0718
   7523SM   H6T 9854   6.628   4.546   6.027 -0.7211 -0.2931  0.0577
   7523SM   C7S 9855   6.441   4.443   6.036  0.0415  0.0279  0.4020
   7523SM   H7S 9856   6.389   4.535   6.069  1.4158 -0.0423  2.9689
   7523SM   H7T 9857   6.402   4.358   6.096 -1.5324  0.0561 -0.5132
   7523SM   C8S 9858   6.421   4.418   5.884 -0.3833 -0.5076  0.4195
   7523SM   H8S 9859   6.324   4.375   5.850 -0.7831  0.0420  0.8442
   7523SM   H8T 9860   6.489   4.333   5.863 -2.6696 -2.3046 -0.1167
   7523SM   C9S 9861   6.477   4.523   5.793 -0.5014  0.1885  0.5228
   7523SM   H9S 9862   6.470   4.491   5.687 -2.1944 -0.5750  0.8283
   7523SM   H9T 9863   6.583   4.539   5.820  0.2643 -0.1960 -2.0066
   7523SM  C10S 9864   6.409   4.647   5.809  0.0183 -0.8938 -0.3555
   7523SM  H10S 9865   6.412   4.688   5.912 -0.2095  2.6701 -1.5994
   7523SM  H10T 9866   6.301   4.636   5.786 -0.8411  2.6071  1.3894
   7523SM  C11S 9867   6.459   4.753   5.709  0.7269  0.4438 -0.0418
   7523SM  H11S 9868   6.435   4.711   5.609 -1.7432 -2.0741  1.4529
   7523SM  H11T 9869   6.568   4.775   5.709  0.8298 -0.0282 -0.4484
   7523SM  C12S 9870   6.386   4.890   5.711 -0.7534 -0.4336  0.2291
   7523SM  H12S 9871   6.426   4.957   5.632 -0.4215  2.1419  2.4576
   7523SM  H12T 9872   6.389   4.937   5.811 -1.1824 -0.4912  0.2702
   7523SM  C13S 9873   6.234   4.872   5.682  0.1942  0.3364  0.3162
   7523SM  H13S 9874   6.187   4.810   5.761 -0.8068  0.2497 -0.3356
   7523SM  H13T 9875   6.220   4.816   5.587 -0.5491  2.2264 -0.7442
   7523SM  C14S 9876   6.161   5.006   5.672  0.4167 -0.1112  0.3959
   7523SM  H14S 9877   6.107   5.021   5.576  0.4718  1.0260  0.5326
   7523SM  H14T 9878   6.222   5.098   5.685 -0.6863  1.0129 -1.8883
   7523SM  C15S 9879   6.048   5.015   5.779  0.3455  0.9065  0.7428
   7523SM  H15S 9880   6.005   4.913   5.785 -0.6518  1.2447 -0.3877
   7523SM  H15T 9881   5.970   5.088   5.748  1.1916  0.9929 -1.3564
   7523SM  C16S 9882   6.099   5.049   5.921 -0.6817  0.3441 -0.1344
   7523SM  H16S 9883   6.097   5.159   5.937 -2.5396  0.1819  1.0413
   7523SM  H16T 9884   6.203   5.017   5.944  0.2102  3.5402  0.6525
   7523SM  C17S 9885   6.013   4.982   6.033  0.2286 -0.1481 -0.0679
   7523SM  H17S 9886   6.033   5.039   6.127 -1.1491  0.4073 -0.0887
   7523SM  H17T 9887   6.031   4.873   6.042 -0.3936 -0.1951  0.6497
   7523SM  C18S 9888   5.869   5.026   6.012 -0.2512  0.7976  0.2886
   7523SM  H18S 9889   5.812   4.975   6.093  0.9969 -1.1156  0.0243
   7523SM  H18T 9890   5.829   4.982   5.918  0.1687  0.8876  0.0684
   7523SM  H18U 9891   5.862   5.137   6.010 -1.3039  0.7355 -0.7374
   7523SM   C1F 9892   7.090   4.480   6.422 -0.7883 -0.0990  0.4061
   7523SM    OF 9893   7.101   4.390   6.507  0.6077  0.1090  1.1310
   7523SM   C2F 9894   7.206   4.530   6.343  0.0338  0.4882  0.2897
   7523SM   H2F 9895   7.189   4.639   6.330 -1.1798  0.1917 -0.9034
   7523SM   H2G 9896   7.203   4.477   6.245 -0.2124  4.9801 -2.4129
   7523SM   C3F 9897   7.339   4.498   6.413 -0.2785  0.7324 -0.0298
   7523SM   H3F 9898   7.347   4.387   6.416  1.9492  0.8548 -0.2149
   7523SM   H3G 9899   7.344   4.544   6.514 -0.9283  0.4037  0.1589
   7523SM   C4F 9900   7.459   4.551   6.325  1.0294 -0.1758 -0.2655
   7523SM   H4F 9901   7.549   4.524   6.385  1.9234 -2.2286 -2.3483
   7523SM   H4G 9902   7.437   4.658   6.312 -0.5179 -0.6510 -1.8370
   7523SM   C5F 9903   7.477   4.491   6.186  0.2457 -0.0726 -0.4560
   7523SM   H5F 9904   7.560   4.545   6.136  1.4836  0.1938  1.7524
   7523SM   H5G 9905   7.385   4.510   6.127  0.4219  1.9208 -0.1559
   7523SM   C6F 9906   7.519   4.343   6.180 -0.0480 -0.1489  0.0701
   7523SM   H6F 9907   7.442   4.291   6.242 -0.2003  1.2533  1.1161
   7523SM   H6G 9908   7.622   4.328   6.220 -0.2185  1.6899  1.3564
   7523SM   C7F 9909   7.516   4.295   6.030  0.5472 -0.1436 -0.9058
   7523SM   H7F 9910   7.554   4.191   6.032  2.3416  0.4788 -0.2728
   7523SM   H7G 9911   7.590   4.354   5.971 -0.6859  2.9823  0.4455
   7523SM   C8F 9912   7.376   4.297   5.971  0.0764  0.0890 -0.1343
   7523SM   H8F 9913   7.336   4.400   5.969  2.0827  0.9100 -0.6660
   7523SM   H8G 9914   7.300   4.247   6.035  0.5877 -0.2214  0.2373
   7523SM   C9F 9915   7.367   4.263   5.821  0.9409  0.1228 -0.6595
   7523SM   H9F 9916   7.261   4.243   5.796  1.1538  0.6230 -2.0435
   7523SM   H9G 9917   7.439   4.179   5.809  3.8433  2.5497 -1.5478
   7523SM  C10F 9918   7.421   4.373   5.728  0.3753  0.7940 -0.3629
   7523SM  H10F 9919   7.528   4.398   5.743  1.0647 -2.3386  0.9245
   7523SM  H10G 9920   7.363   4.464   5.754  1.7936  1.3888  0.8849
   7523SM  C11F 9921   7.384   4.345   5.587 -0.6624  0.0626 -0.1149
   7523SM  H11F 9922   7.429   4.249   5.554 -1.4616  0.2062 -1.7154
   7523SM  H11G 9923   7.432   4.426   5.529 -0.2786  1.6022  2.2100
   7523SM  C12F 9924   7.230   4.342   5.560 -0.6150 -0.3562 -0.2064
   7523SM  H12F 9925   7.197   4.414   5.638  1.5640 -1.2247  1.6303
   7523SM  H12G 9926   7.201   4.237   5.584  0.0238 -1.4924 -3.7869
   7523SM  C13F 9927   7.169   4.371   5.423  0.1776 -1.2685  0.1366
   7523SM  H13F 9928   7.059   4.351   5.417 -0.0140 -0.0090 -1.2062
   7523SM  H13G 9929   7.225   4.299   5.361 -1.7191 -1.2903 -1.6590
   7523SM  C14F 9930   7.183   4.525   5.396 -1.2897 -0.0942 -0.4857
   7523SM  H14F 9931   7.291   4.552   5.400 -1.8555  2.2729  0.0246
   7523SM  H14G 9932   7.128   4.581   5.475  0.9554  1.5788 -0.0110
   7523SM  C15F 9933   7.132   4.560   5.249  0.0176 -0.1641 -0.6625
   7523SM  H15F 9934   7.025   4.529   5.247  0.3176 -1.5051  1.4952
   7523SM  H15G 9935   7.191   4.499   5.177  0.2932 -2.3061  1.2820
   7523SM  C16F 9936   7.127   4.708   5.217  0.2627 -0.2876 -0.4608
   7523SM  H16F 9937   7.235   4.735   5.217  0.5551 -1.4120 -0.1906
   7523SM  H16G 9938   7.087   4.760   5.307  2.1192  0.8564 -0.2384
   7523SM  C17F 9939   7.048   4.745   5.093 -0.6476 -0.3307 -0.0473
   7523SM  H17F 9940   6.945   4.703   5.094 -0.7884 -0.0140  1.7870
   7523SM  H17G 9941   7.100   4.705   5.003 -1.2001 -0.1842 -0.4410
   7523SM  C18F 9942   7.044   4.900   5.075  1.1631 -0.8148  0.5785
   7523SM  H18F 9943   7.150   4.931   5.065  0.8531  0.0540 -0.1409
   7523SM  H18G 9944   7.011   4.943   5.172  1.6745 -0.7141  0.7107
   7523SM  C19F 9945   6.961   4.947   4.954 -0.1252 -0.2302  0.8843
   7523SM  H19F 9946   7.005   4.904   4.862  2.8210  2.1921  1.0274
   7523SM  H19G 9947   6.964   5.057   4.941 -1.8109 -0.0095  1.9553
   7523SM  C20F 9948   6.811   4.898   4.951  0.0104 -1.0244  0.9322
   7523SM  H20F 9949   6.764   4.942   5.042  1.6364 -1.0346  1.8272
   7523SM  H20G 9950   6.809   4.788   4.965 -0.2184 -1.1430  0.0393
   7523SM  C21F 9951   6.736   4.937   4.823 -0.5852  0.0659  0.7724
   7523SM  H21F 9952   6.656   4.861   4.808 -0.2119  0.0139 -1.1760
   7523SM  H21G 9953   6.793   4.919   4.730 -0.9165  0.2936  0.5215
   7523SM  C22F 9954   6.681   5.079   4.822  0.4835 -0.2564 -0.2278
   7523SM  H22F 9955   6.756   5.158   4.803  2.1669 -2.1899 -2.0082
   7523SM  H22G 9956   6.632   5.099   4.920 -1.1072 -1.5427 -0.7142
   7523SM  C23F 9957   6.574   5.096   4.716  0.2907 -0.2303 -0.5953
   7523SM  H23F 9958   6.628   5.089   4.619  0.7266 -0.1438 -0.3596
   7523SM  H23G 9959   6.534   5.199   4.708  1.2709  0.4320  1.9670
   7523SM  H23H 9960   6.494   5.020   4.729 -0.7221  0.5819 -1.8339
   7623SM     N 9961   6.969   5.078   6.721 -0.0129  0.6656  0.2303
   7623SM   C15 9962   7.035   5.167   6.613 -0.6344  0.5041 -0.0453
   7623SM  H15A 9963   7.139   5.137   6.603 -0.7379  0.6731 -1.9365
   7623SM  H15B 9964   7.032   5.270   6.645 -0.4618  0.4424  0.1769
   7623SM  H15C 9965   6.981   5.151   6.521 -0.8594  1.1395 -0.0260
   7623SM   C14 9966   7.035   5.101   6.856 -0.6492 -0.1717  0.2687
   7623SM  H14A 9967   7.136   5.067   6.872 -0.2364  1.8331  2.4199
   7623SM  H14B 9968   6.979   5.044   6.930 -2.2365  0.4606 -0.4182
   7623SM  H14C 9969   7.033   5.206   6.880  2.4084  0.0376 -0.0001
   7623SM   C13 9970   6.830   5.121   6.752  0.0002  0.2163  0.0888
   7623SM  H13A 9971   6.774   5.103   6.661  1.2675  0.1968 -0.7036
   7623SM  H13B 9972   6.818   5.226   6.776 -0.4035 -0.2023  1.8276
   7623SM  H13C 9973   6.787   5.047   6.818  0.2301 -1.0462 -1.1215
   7623SM   C12 9974   6.969   4.929   6.680  0.2362  0.1420 -0.6725
   7623SM  H12A 9975   6.899   4.913   6.600 -0.7959 -2.9064  0.6787
   7623SM  H12B 9976   6.935   4.874   6.767 -0.1582  0.5611 -0.5600
   7623SM   C11 9977   7.093   4.858   6.624 -0.6459  0.4829 -0.1303
   7623SM  H11A 9978   7.132   4.919   6.539 -0.3172  2.1105  1.1515
   7623SM  H11B 9979   7.064   4.756   6.592 -0.9854 -0.2480  2.3299
   7623SM     P 9980   7.333   4.917   6.723  0.1177 -0.1890 -0.1838
   7623SM   O13 9981   7.332   4.997   6.851  0.6230  0.6962  0.1511
   7623SM   O14 9982   7.442   4.825   6.700 -0.5404  0.2111 -0.3059
   7623SM   O11 9983   7.328   5.007   6.594 -0.3986 -0.5830 -0.3397
   7623SM   O12 9984   7.194   4.836   6.728 -0.2483 -0.0254 -0.2238
   7623SM   C1S 9985   7.395   4.977   6.475 -0.1590 -0.2025 -0.5378
   7623SM   H1S 9986   7.358   4.879   6.438 -0.4939 -0.4734  0.4681
   7623SM   H1T 9987   7.503   4.969   6.498 -0.3268  1.1287  0.8979
   7623SM    NF 9988   7.406   5.034   6.237  0.2795  0.4399  0.1552
   7623SM   HNF 9989   7.488   5.078   6.201  0.9558  0.3379  1.5052
   7623SM   C2S 9990   7.360   5.082   6.363 -0.2189  0.7260  0.0117
   7623SM   H2S 9991   7.249   5.074   6.360 -0.1041 -2.3117  0.6325
   7623SM   C3S 9992   7.406   5.221   6.400 -0.6425  1.0641  0.1433
   7623SM   H3S 9993   7.517   5.217   6.402 -0.6789 -1.5420  0.8885
   7623SM    O3 9994   7.362   5.262   6.526  0.1178 -0.0992 -0.2149
   7623SM   HO3 9995   7.338   5.177   6.566  1.0843  0.6262  2.0920
   7623SM   C4S 9996   7.355   5.317   6.304 -0.8713 -0.5634 -0.0628
   7623SM   H4S 9997   7.249   5.345   6.303 -1.0610 -1.2673 -0.8013
   7623SM   C5S 9998   7.439   5.399   6.221  0.3010 -0.0477 -0.8166
   7623SM   H5S 9999   7.548   5.410   6.232  0.1569  0.8442 -0.1836
   7623SM   C6S10000   7.384   5.507   6.135 -0.7891 -0.1071 -0.9238
   7623SM   H6S10001   7.274   5.501   6.141 -0.6923 -0.8536  0.2934
   7623SM   H6T10002   7.397   5.477   6.028 -0.4193  1.4000 -1.3219
   7623SM   C7S10003   7.414   5.644   6.200  0.5414  0.8053  0.1109
   7623SM   H7S10004   7.525   5.648   6.205  0.6028 -0.3981  0.0605
   7623SM   H7T10005   7.377   5.647   6.304 -1.6492 -0.0138 -0.5760
   7623SM   C8S10006   7.347   5.760   6.118 -0.2398  0.8477 -0.1021
   7623SM   H8S10007   7.385   5.745   6.014  0.0777 -3.0183  0.4330
   7623SM   H8T10008   7.399   5.852   6.151 -0.5581  0.8762  0.3221
   7623SM   C9S10009   7.196   5.774   6.115 -0.1876  0.1001  0.5147
   7623SM   H9S10010   7.157   5.771   6.218  1.0505  2.3481  1.1164
   7623SM   H9T10011   7.155   5.686   6.061  0.6832  0.1778 -0.3042
   7623SM  C10S10012   7.143   5.901   6.047  0.2499  0.2666  0.3654
   7623SM  H10S10013   7.184   5.987   6.105 -0.5538 -0.1930  1.6465
   7623SM  H10T10014   7.033   5.909   6.054  0.0957 -0.2304 -1.1142
   7623SM  C11S10015   7.188   5.912   5.895 -0.6445 -0.3010  0.3301
   7623SM  H11S10016   7.152   5.828   5.833 -0.3494 -0.9752  1.0633
   7623SM  H11T10017   7.298   5.915   5.877 -0.8128  0.1407 -0.6919
   7623SM  C12S10018   7.127   6.043   5.833 -0.0406  0.1347 -1.2732
   7623SM  H12S10019   7.162   6.129   5.893  0.8165 -0.6122 -0.6820
   7623SM  H12T10020   7.016   6.050   5.837  0.0129  0.2301  1.3158
   7623SM  C13S10021   7.163   6.061   5.684 -0.8476 -0.4141  0.4689
   7623SM  H13S10022   7.265   6.105   5.678 -1.4300  0.7786 -1.0613
   7623SM  H13T10023   7.103   6.145   5.644 -0.3841 -1.2976 -2.2901
   7623SM  C14S10024   7.149   5.934   5.597 -0.6747  0.2645 -0.5149
   7623SM  H14S10025   7.042   5.903   5.595 -0.9179  0.9846  0.6659
   7623SM  H14T10026   7.215   5.854   5.636  0.3381  1.6646  0.7260
   7623SM  C15S10027   7.203   5.956   5.448 -0.1272  0.2142  0.1725
   7623SM  H15S10028   7.310   5.987   5.456  0.5888 -2.2908  1.2189
   7623SM  H15T10029   7.150   6.041   5.401  1.3238  1.2417  0.3379
   7623SM  C16S10030   7.195   5.824   5.358 -0.4145 -0.5328  0.1636
   7623SM  H16S10031   7.097   5.771   5.353 -0.1098 -1.1068  0.1725
   7623SM  H16T10032   7.262   5.746   5.400  2.2396 -0.2723 -3.2097
   7623SM  C17S10033   7.244   5.855   5.207  0.1309  0.1761  0.3316
   7623SM  H17S10034   7.355   5.864   5.214  0.3736 -2.1476  0.4408
   7623SM  H17T10035   7.203   5.951   5.168  0.9065  0.8015  1.0286
   7623SM  C18S10036   7.212   5.744   5.104  0.1634 -0.0090  0.5047
   7623SM  H18S10037   7.101   5.733   5.097 -0.0240  2.2914 -0.9066
   7623SM  H18T10038   7.251   5.647   5.143 -0.9754 -1.3641 -1.4954
   7623SM  H18U10039   7.259   5.768   5.007 -1.3887  1.1506  0.0083
   7623SM   C1F10040   7.348   4.924   6.177 -0.6909 -0.0486 -0.3712
   7623SM    OF10041   7.248   4.879   6.227 -0.0043 -0.3506  0.4092
   7623SM   C2F10042   7.419   4.863   6.060 -0.2236  0.3287 -0.4291
   7623SM   H2F10043   7.512   4.806   6.079  0.1802  1.3061  0.5665
   7623SM   H2G10044   7.447   4.954   6.002  1.2238 -0.7159 -1.4366
   7623SM   C3F10045   7.320   4.772   5.972 -0.1694  0.2900  0.4862
   7623SM   H3F10046   7.219   4.818   5.964  0.3452  1.1747 -1.6620
   7623SM   H3G10047   7.301   4.673   6.018 -0.6021  0.2900  0.3151
   7623SM   C4F10048   7.369   4.749   5.827 -0.4358 -0.6263  0.8557
   7623SM   H4F10049   7.300   4.671   5.787  2.9440 -3.1354 -0.5019
   7623SM   H4G10050   7.469   4.702   5.824 -0.8358 -1.4487 -1.1830
   7623SM   C5F10051   7.361   4.876   5.739 -0.2236  0.9583  0.4240
   7623SM   H5F10052   7.425   4.953   5.788  0.7642  0.4964 -0.1340
   7623SM   H5G10053   7.257   4.916   5.736 -0.1674  1.0983  0.3341
   7623SM   C6F10054   7.390   4.873   5.591 -0.7169 -0.3015  0.1175
   7623SM   H6F10055   7.321   4.801   5.544 -0.6432  0.3937 -1.1051
   7623SM   H6G10056   7.492   4.834   5.570  0.0342  1.6540 -0.0933
   7623SM   C7F10057   7.365   5.013   5.535  0.5835 -0.2362  0.2447
   7623SM   H7F10058   7.435   5.095   5.563 -0.6608  1.4571 -1.3522
   7623SM   H7G10059   7.263   5.039   5.569 -0.1783  1.1225 -2.7146
   7623SM   C8F10060   7.369   5.007   5.378  0.6592  0.4111 -0.1512
   7623SM   H8F10061   7.339   5.106   5.340  0.0171  1.0149  1.8291
   7623SM   H8G10062   7.300   4.928   5.341  1.2046 -0.1639  0.0162
   7623SM   C9F10063   7.503   4.979   5.320  0.4220  0.0279  0.2839
   7623SM   H9F10064   7.545   4.884   5.360 -0.0356  0.0812  0.9114
   7623SM   H9G10065   7.575   5.051   5.365 -0.0737  0.7142  0.0024
   7623SM  C10F10066   7.491   4.993   5.165 -0.1731  0.1179 -0.0892
   7623SM  H10F10067   7.448   5.092   5.136  0.7916  0.2567 -1.0876
   7623SM  H10G10068   7.420   4.916   5.131  0.7519 -0.2976 -1.1335
   7623SM  C11F10069   7.623   4.981   5.089  0.5772  0.2002  0.4281
   7623SM  H11F10070   7.655   4.879   5.121  0.4579  0.9577  3.1721
   7623SM  H11G10071   7.702   5.050   5.125  1.1133  0.2543 -0.7900
   7623SM  C12F10072   7.609   4.992   4.936 -0.2135  0.5205  0.0939
   7623SM  H12F10073   7.572   5.094   4.913 -0.9307 -0.1584 -2.0747
   7623SM  H12G10074   7.538   4.911   4.909  1.9127 -1.5465  0.4147
   7623SM  C13F10075   7.746   4.965   4.868  0.1405  0.5935 -0.3646
   7623SM  H13F10076   7.787   4.865   4.895 -2.1364 -0.3836 -0.3517
   7623SM  H13G10077   7.811   5.049   4.901 -0.4284  0.3968  1.3547
   7623SM  C14F10078   7.743   4.967   4.721  0.0690  0.2978  0.4293
   7623SM  H14F10079   7.701   4.872   4.681  3.1527 -1.2951  0.6835
   7623SM  H14G10080   7.849   4.960   4.687 -0.3856 -1.9060 -0.7010
   7623SM  C15F10081   7.682   5.090   4.659 -0.8638  0.3845  0.0286
   7623SM  H15F10082   7.730   5.177   4.709 -0.3168 -0.3125  0.7241
   7623SM  H15G10083   7.573   5.093   4.680 -1.3425 -0.1645 -2.1168
   7623SM  C16F10084   7.708   5.095   4.511  0.0923  1.0812 -0.3785
   7623SM  H16F10085   7.670   5.003   4.462  1.4754  0.2915 -0.0161
   7623SM  H16G10086   7.817   5.080   4.495  0.0160  0.5219 -0.3853
   7623SM  C17F10087   7.650   5.209   4.427 -0.3342  0.2946 -0.3563
   7623SM  H17F10088   7.705   5.303   4.445  1.0649 -0.0887 -2.3779
   7623SM  H17G10089   7.546   5.214   4.468  0.2383  0.1818  1.1734
   7623SM  C18F10090   7.647   5.173   4.280 -0.5386  0.4707  0.0048
   7623SM  H18F10091   7.604   5.071   4.267  0.3738 -0.4163  3.1325
   7623SM  H18G10092   7.739   5.200   4.225 -0.7833  1.4240  0.0562
   7623SM  C19F10093   7.534   5.243   4.205  0.5700  0.3940 -0.0770
   7623SM  H19F10094   7.539   5.353   4.191  2.0507  0.3376 -0.0562
   7623SM  H19G10095   7.438   5.219   4.257  0.6266 -0.8811 -0.5162
   7623SM  C20F10096   7.513   5.173   4.066  0.2242  0.6489  0.8626
   7623SM  H20F10097   7.469   5.072   4.080  1.9775 -0.0532  1.6468
   7623SM  H20G10098   7.614   5.156   4.022 -0.1914  0.7371 -0.1538
   7623SM  C21F10099   7.417   5.252   3.975  0.5395  0.0052  0.3606
   7623SM  H21F10100   7.462   5.351   3.954  2.3882 -0.5634  1.4144
   7623SM  H21G10101   7.323   5.270   4.032  0.5269  0.2626  0.2609
   7623SM  C22F10102   7.373   5.177   3.843  0.2715 -0.2924 -0.0871
   7623SM  H22F10103   7.369   5.068   3.865 -0.1085 -0.7861 -2.3878
   7623SM  H22G10104   7.454   5.199   3.771  0.1551  0.2803 -0.0498
   7623SM  C23F10105   7.237   5.217   3.780  0.6821 -0.1198 -0.3665
   7623SM  H23F10106   7.211   5.149   3.696 -0.0652  0.4955 -0.6449
   7623SM  H23G10107   7.242   5.323   3.747  3.5572  0.1810  0.7779
   7623SM  H23H10108   7.158   5.224   3.857  2.2265  1.9464  1.1289
   7723SM     N10109   0.223   1.883   6.829  0.5878 -0.6717  0.3581
   7723SM   C1510110   0.088   1.836   6.799  0.0296 -0.4156 -0.1340
   7723SM  H15A10111   0.055   1.756   6.864  0.2279  0.4023  1.0148
   7723SM  H15B10112   0.080   1.801   6.697 -0.9006 -2.0412  0.4498
   7723SM  H15C10113   0.012   1.913   6.806 -0.3678 -0.4781 -2.8645
   7723SM   C1410114   0.224   1.940   6.972 -0.0741 -0.2373 -0.4518
   7723SM  H14A10115   0.319   1.991   6.982  0.2740 -0.7714 -0.9298
   7723SM  H14B10116   0.211   1.860   7.043  0.1040  1.8011  1.9762
   7723SM  H14C10117   0.141   2.008   6.983  0.7019  0.6060  0.3458
   7723SM   C1310118   0.319   1.776   6.823 -0.5260  0.7864  0.0452
   7723SM  H13A10119   0.422   1.810   6.830 -0.6454  0.8543  1.8144
   7723SM  H13B10120   0.311   1.703   6.743  1.0583 -0.3644  0.8760
   7723SM  H13C10121   0.310   1.716   6.912 -1.4984 -1.8584 -1.6988
   7723SM   C1210122   0.249   1.999   6.738  0.5634 -0.5234 -0.4669
   7723SM  H12A10123   0.182   2.081   6.757 -0.5352 -1.4942  0.0147
   7723SM  H12B10124   0.223   1.977   6.636  0.9237  0.0198 -0.6791
   7723SM   C1110125   0.391   2.060   6.725  0.2367  0.2025 -0.6734
   7723SM  H11A10126   0.384   2.148   6.657 -1.8265  1.0570  0.5519
   7723SM  H11B10127   0.450   1.986   6.667  0.7627 -0.6869  0.9297
   7723SM     P10128   0.592   2.067   6.878 -0.2277 -0.2885  0.2437
   7723SM   O1310129   0.626   2.140   7.000 -0.2533  0.4093 -0.0966
   7723SM   O1410130   0.610   1.917   6.867  0.4154 -0.4028  0.4539
   7723SM   O1110131   0.660   2.142   6.764  0.1481 -0.2779  0.2789
   7723SM   O1210132   0.447   2.094   6.853  0.6441 -0.0659 -0.1718
   7723SM   C1S10133   0.706   2.090   6.636  0.1056 -1.3092  0.7089
   7723SM   H1S10134   0.657   1.995   6.606 -0.2294 -0.8854 -0.1115
   7723SM   H1T10135   0.816   2.078   6.646  0.4102  0.4635 -0.1313
   7723SM    NF10136   0.673   2.146   6.391 -0.1009  0.9092  0.0337
   7723SM   HNF10137   0.758   2.137   6.340 -0.4532  3.7483 -1.1996
   7723SM   C2S10138   0.677   2.202   6.529 -1.3117  0.1241 -0.6970
   7723SM   H2S10139   0.572   2.237   6.539 -1.0236  1.2479 -1.4928
   7723SM   C3S10140   0.775   2.321   6.549  0.1808 -0.3971  1.1967
   7723SM   H3S10141   0.874   2.271   6.557  0.1498 -1.0034 -1.3577
   7723SM    O310142   0.741   2.395   6.671 -0.3683  0.1814 -0.3419
   7723SM   HO310143   0.698   2.325   6.720  1.7576 -0.4094  0.8004
   7723SM   C4S10144   0.769   2.416   6.426 -0.6031  0.3332  0.8854
   7723SM   H4S10145   0.840   2.375   6.353 -0.9229 -1.4703  1.5341
   7723SM   C5S10146   0.699   2.532   6.399 -0.1477 -0.0103  0.4527
   7723SM   H5S10147   0.628   2.566   6.476  1.9144  2.1231  1.5693
   7723SM   C6S10148   0.705   2.608   6.271 -0.0755 -0.4503  0.6099
   7723SM   H6S10149   0.753   2.706   6.289  0.3091 -0.6555  0.7051
   7723SM   H6T10150   0.602   2.620   6.232  0.7033 -0.8802 -1.7138
   7723SM   C7S10151   0.783   2.552   6.153  0.2349  0.4420  0.3732
   7723SM   H7S10152   0.891   2.526   6.164  1.0508  3.2460 -0.2123
   7723SM   H7T10153   0.791   2.636   6.080 -1.3933  2.2821  2.1657
   7723SM   C8S10154   0.703   2.436   6.091 -0.2289 -0.3657 -0.3412
   7723SM   H8S10155   0.594   2.449   6.111 -0.1037  2.7016 -1.1943
   7723SM   H8T10156   0.734   2.342   6.140  1.0422  1.0388  1.6943
   7723SM   C9S10157   0.728   2.441   5.940  0.4143 -0.0256  0.6317
   7723SM   H9S10158   0.833   2.471   5.920 -0.4624  2.1340 -1.0708
   7723SM   H9T10159   0.662   2.517   5.895  1.0186 -0.2270 -0.6216
   7723SM  C10S10160   0.702   2.303   5.868  0.0742 -0.3069 -0.7918
   7723SM  H10S10161   0.596   2.271   5.873  0.4802 -1.4992  1.2270
   7723SM  H10T10162   0.769   2.226   5.913  0.0077  0.2848  0.3556
   7723SM  C11S10163   0.738   2.308   5.716  0.2092  0.4250  0.1250
   7723SM  H11S10164   0.847   2.319   5.696  0.3019 -1.0524 -0.2574
   7723SM  H11T10165   0.690   2.393   5.662  1.0360  1.6540  1.2464
   7723SM  C12S10166   0.698   2.176   5.636  0.1022  0.1465  0.0539
   7723SM  H12S10167   0.594   2.147   5.660  0.1353  1.1900  1.6046
   7723SM  H12T10168   0.767   2.101   5.680  1.5136  1.5969  0.4060
   7723SM  C13S10169   0.723   2.199   5.491  0.4438 -0.6081  0.5787
   7723SM  H13S10170   0.672   2.287   5.445  1.8963 -1.1255 -2.2225
   7723SM  H13T10171   0.687   2.112   5.432  0.0813  0.7939 -1.3546
   7723SM  C14S10172   0.872   2.206   5.457 -0.1186 -0.3525 -0.1383
   7723SM  H14S10173   0.914   2.107   5.428  2.1752  0.0335  1.5699
   7723SM  H14T10174   0.934   2.251   5.537  0.3178  0.6888 -1.0355
   7723SM  C15S10175   0.912   2.307   5.341 -0.3362  0.0284  0.7167
   7723SM  H15S10176   1.021   2.319   5.361 -0.3375  0.7394  0.3253
   7723SM  H15T10177   0.858   2.403   5.353 -0.7633 -0.3127  1.6669
   7723SM  C16S10178   0.889   2.244   5.200  0.2496 -0.1463  0.0731
   7723SM  H16S10179   0.907   2.321   5.122 -1.5567 -0.1812 -0.4257
   7723SM  H16T10180   0.785   2.204   5.193  0.2426 -0.0878 -0.1637
   7723SM  C17S10181   0.985   2.130   5.163  0.6089 -0.6914  0.0622
   7723SM  H17S10182   0.966   2.039   5.224  0.1128  0.4134  1.6133
   7723SM  H17T10183   1.087   2.171   5.181  0.0605 -0.4288  3.2985
   7723SM  C18S10184   0.965   2.095   5.014  0.0334 -0.3494  0.0705
   7723SM  H18S10185   0.861   2.059   4.994 -0.0629  0.2247 -0.4860
   7723SM  H18T10186   1.046   2.029   4.978 -0.1177  0.4210 -1.8027
   7723SM  H18U10187   0.976   2.184   4.949  2.4634  0.0922  0.9878
   7723SM   C1F10188   0.574   2.073   6.341 -0.6710 -0.3011  0.3144
   7723SM    OF10189   0.470   2.052   6.394 -0.0343  0.3659 -0.0766
   7723SM   C2F10190   0.613   2.009   6.208 -0.0194  0.3022 -0.1609
   7723SM   H2F10191   0.723   1.997   6.201  0.0666  1.5265 -1.3682
   7723SM   H2G10192   0.582   2.078   6.126 -1.0641  0.3957  0.2987
   7723SM   C3F10193   0.538   1.875   6.186 -0.3560  0.5040  0.4121
   7723SM   H3F10194   0.429   1.900   6.185  0.2187  3.5236 -1.8202
   7723SM   H3G10195   0.560   1.813   6.275  0.7716  0.3835  0.0663
   7723SM   C4F10196   0.570   1.814   6.046  0.5008 -0.2095  0.1212
   7723SM   H4F10197   0.562   1.705   6.065  1.7789  0.0004  2.2514
   7723SM   H4G10198   0.672   1.845   6.016  0.1355  1.3054  0.3491
   7723SM   C5F10199   0.473   1.850   5.935 -0.5169 -0.2548  0.1614
   7723SM   H5F10200   0.483   1.957   5.910  1.2379  0.0964  2.0383
   7723SM   H5G10201   0.365   1.838   5.962 -0.2669 -3.0901  0.2229
   7723SM   C6F10202   0.523   1.762   5.818 -0.4661 -0.2637  0.4087
   7723SM   H6F10203   0.496   1.654   5.830  1.1648 -0.9751 -1.7999
   7723SM   H6G10204   0.633   1.773   5.812 -0.5128  0.5593  0.9310
   7723SM   C7F10205   0.465   1.815   5.690  0.1912  0.0665 -0.6396
   7723SM   H7F10206   0.543   1.815   5.610  0.2549  1.6938 -0.5981
   7723SM   H7G10207   0.410   1.911   5.693 -1.4296 -0.8216 -0.6382
   7723SM   C8F10208   0.345   1.729   5.645 -0.2680 -0.1201  0.4614
   7723SM   H8F10209   0.268   1.737   5.725 -1.1923  0.6118 -0.4730
   7723SM   H8G10210   0.378   1.624   5.636  2.4191  0.4656  2.3652
   7723SM   C9F10211   0.289   1.786   5.510  0.9613  0.5302  0.1962
   7723SM   H9F10212   0.377   1.777   5.442 -1.8904 -0.4666 -3.6901
   7723SM   H9G10213   0.261   1.891   5.530 -1.0411  0.0904 -0.1205
   7723SM  C10F10214   0.156   1.718   5.463 -0.3859 -0.2889  0.1641
   7723SM  H10F10215   0.104   1.789   5.396 -3.1753 -0.7629  1.6755
   7723SM  H10G10216   0.089   1.698   5.549 -1.4136  2.4176  0.0972
   7723SM  C11F10217   0.184   1.589   5.386 -0.4565 -0.3564 -0.6042
   7723SM  H11F10218   0.082   1.545   5.372 -0.7731 -0.7147  2.1542
   7723SM  H11G10219   0.235   1.522   5.458  1.0111  0.5131 -0.8128
   7723SM  C12F10220   0.255   1.606   5.244 -0.1421  0.1774 -0.1951
   7723SM  H12F10221   0.343   1.670   5.264  1.3269 -1.5889 -0.7419
   7723SM  H12G10222   0.191   1.679   5.189 -0.3364  0.5763  0.5461
   7723SM  C13F10223   0.289   1.474   5.181  0.0729 -0.1957 -0.2153
   7723SM  H13F10224   0.195   1.423   5.151  0.6181 -1.6665  0.4720
   7723SM  H13G10225   0.324   1.403   5.259 -0.0727  1.7954  1.7580
   7723SM  C14F10226   0.378   1.487   5.062 -0.2420  0.0131  0.6854
   7723SM  H14F10227   0.471   1.536   5.097 -1.2927  2.2573  0.4990
   7723SM  H14G10228   0.326   1.558   4.993 -0.7647 -0.5855  0.4520
   7723SM  C15F10229   0.417   1.358   4.991  0.0184  0.1455 -0.6913
   7723SM  H15F10230   0.449   1.375   4.886 -1.4326 -2.6517 -1.6747
   7723SM  H15G10231   0.330   1.290   4.992  0.0189  0.1448 -0.2199
   7723SM  C16F10232   0.534   1.294   5.065 -0.1821  0.2104  0.0366
   7723SM  H16F10233   0.518   1.293   5.175  0.2839 -1.1821  0.1141
   7723SM  H16G10234   0.623   1.358   5.049 -0.0446  0.5204  1.8569
   7723SM  C17F10235   0.572   1.152   5.020 -0.3877 -0.6435 -0.2121
   7723SM  H17F10236   0.581   1.149   4.910  0.8226 -1.5399 -0.1117
   7723SM  H17G10237   0.489   1.082   5.042 -3.3480  1.4394 -3.6937
   7723SM  C18F10238   0.704   1.098   5.084 -0.1871  0.0476 -0.1410
   7723SM  H18F10239   0.718   0.994   5.048  1.4974  0.6830 -1.4975
   7723SM  H18G10240   0.700   1.094   5.195  1.3352 -1.0696 -0.1018
   7723SM  C19F10241   0.832   1.158   5.046 -0.2206  0.3137 -0.4916
   7723SM  H19F10242   0.847   1.263   5.081  0.0868 -0.1219  0.7202
   7723SM  H19G10243   0.850   1.155   4.937  2.5486 -2.2925 -0.0922
   7723SM  C20F10244   0.951   1.081   5.106  0.0220  0.6043  0.3332
   7723SM  H20F10245   0.943   0.983   5.054  0.1162  0.0386  1.3574
   7723SM  H20G10246   0.945   1.065   5.215  0.1252  0.4330  0.3145
   7723SM  C21F10247   1.087   1.133   5.057 -0.0128  0.1078  0.3197
   7723SM  H21F10248   1.092   1.146   4.947  1.3424 -1.3506  0.1781
   7723SM  H21G10249   1.149   1.048   5.090  1.1293 -0.2437 -2.4186
   7723SM  C22F10250   1.132   1.266   5.115  0.1259 -0.1218 -0.0697
   7723SM  H22F10251   1.114   1.263   5.225  1.6355  2.0921  0.2847
   7723SM  H22G10252   1.075   1.348   5.067  1.6638  1.0115 -0.0372
   7723SM  C23F10253   1.281   1.300   5.091  0.5445  0.5392 -0.0024
   7723SM  H23F10254   1.341   1.230   5.153 -2.9519 -0.1987  2.9023
   7723SM  H23G10255   1.298   1.404   5.125  0.7936  1.0440 -1.5627
   7723SM  H23H10256   1.316   1.282   4.987  3.8367 -1.4659  1.2849
   7823SM     N10257   1.022   6.518   7.150  0.1003  0.0453 -0.1745
   7823SM   C1510258   0.975   6.425   7.261 -0.5633  0.3018 -0.1092
   7823SM  H15A10259   0.999   6.452   7.363  1.2748 -1.7351  0.0607
   7823SM  H15B10260   1.019   6.331   7.231  1.5593  1.6340 -1.3894
   7823SM  H15C10261   0.868   6.411   7.255 -0.5236 -0.4543  0.7759
   7823SM   C1410262   0.927   6.632   7.141 -0.4430 -0.1894  0.8223
   7823SM  H14A10263   0.934   6.702   7.223 -0.0935  0.2227  0.4457
   7823SM  H14B10264   0.825   6.595   7.136 -0.1374 -0.9678  0.0703
   7823SM  H14C10265   0.943   6.685   7.049 -0.0880 -0.1740  0.8928
   7823SM   C1310266   1.160   6.567   7.176 -0.3001 -0.6278 -0.7595
   7823SM  H13A10267   1.230   6.485   7.171 -0.5466 -1.0811  2.0068
   7823SM  H13B10268   1.161   6.617   7.271 -0.1308 -0.4297 -0.8650
   7823SM  H13C10269   1.178   6.637   7.096 -1.0132  2.7507  1.8240
   7823SM   C1210270   1.011   6.443   7.016 -0.3811 -0.0998 -0.3554
   7823SM  H12A10271   1.051   6.507   6.939 -3.4962  0.0072 -2.0397
   7823SM  H12B10272   0.908   6.422   6.993 -0.5613  0.0836  0.2525
   7823SM   C1110273   1.082   6.306   7.001 -0.6145  0.6260  0.8018
   7823SM  H11A10274   1.182   6.296   7.050 -0.1886 -3.7210 -0.5269
   7823SM  H11B10275   1.091   6.279   6.894 -3.1830  0.6097  0.5286
   7823SM     P10276   0.885   6.129   6.998  0.0383 -0.1576  0.4692
   7823SM   O1310277   0.861   5.993   7.044  0.5870 -0.1662  0.1458
   7823SM   O1410278   0.770   6.222   7.006 -0.1064  0.0210  0.2924
   7823SM   O1110279   0.932   6.126   6.844  0.0724 -0.3063 -0.2745
   7823SM   O1210280   1.014   6.197   7.067  0.4425  0.5167  0.4284
   7823SM   C1S10281   0.853   6.060   6.748 -0.3180 -0.6737  0.0522
   7823SM   H1S10282   0.743   6.074   6.751 -0.7477 -2.7921 -2.2506
   7823SM   H1T10283   0.866   5.950   6.756  0.2805 -0.6725 -0.7703
   7823SM    NF10284   0.819   6.032   6.502 -0.0952  0.1724  0.6053
   7823SM   HNF10285   0.853   5.957   6.446  2.0732  2.2050 -1.0166
   7823SM   C2S10286   0.908   6.085   6.603 -0.2125  0.1172 -0.3917
   7823SM   H2S10287   0.917   6.192   6.576  0.7451 -0.0910 -0.9208
   7823SM   C3S10288   1.060   6.035   6.598 -0.9102 -0.3123  0.5926
   7823SM   H3S10289   1.063   5.924   6.605 -0.2637 -0.2741  1.0646
   7823SM    O310290   1.144   6.084   6.702 -0.3282 -0.5900 -0.1455
   7823SM   HO310291   1.080   6.119   6.765 -0.2491  1.2217 -0.9907
   7823SM   C4S10292   1.115   6.072   6.459 -0.1753 -0.1794 -0.2683
   7823SM   H4S10293   1.154   6.174   6.451  3.7827 -1.4619  0.6565
   7823SM   C5S10294   1.131   5.988   6.360 -0.1158  0.3597  0.6338
   7823SM   H5S10295   1.104   5.881   6.370 -1.9819  0.7256 -0.2194
   7823SM   C6S10296   1.185   6.016   6.222  0.5751  0.1088 -0.5603
   7823SM   H6S10297   1.277   5.957   6.203  0.5589 -0.2464  0.4284
   7823SM   H6T10298   1.206   6.124   6.209  1.4678 -0.0219 -0.2410
   7823SM   C7S10299   1.095   5.974   6.116  0.2740  0.1919 -0.5027
   7823SM   H7S10300   0.994   6.014   6.137  0.0022 -1.4431  1.6674
   7823SM   H7T10301   1.083   5.864   6.114  0.8353  0.0630  1.2783
   7823SM   C8S10302   1.145   6.026   5.979  0.0852  0.2145 -0.5242
   7823SM   H8S10303   1.234   5.965   5.953  0.9482  1.6802 -1.1179
   7823SM   H8T10304   1.181   6.131   5.987 -1.8205  0.8967 -0.3854
   7823SM   C9S10305   1.044   6.009   5.865 -0.2658 -0.5306  0.1863
   7823SM   H9S10306   0.958   6.062   5.911  1.5496  1.7274  1.1810
   7823SM   H9T10307   1.028   5.899   5.857  1.8427 -0.7283 -3.1870
   7823SM  C10S10308   1.083   6.069   5.725  0.3818  0.4948  0.5551
   7823SM  H10S10309   1.180   6.027   5.690 -0.3849  0.2786 -1.3980
   7823SM  H10T10310   1.090   6.180   5.727  0.9207  0.5052 -0.9229
   7823SM  C11S10311   0.985   6.033   5.615  0.4593 -0.2107  0.5980
   7823SM  H11S10312   1.022   6.083   5.523 -0.6413 -1.2799 -0.4485
   7823SM  H11T10313   0.886   6.078   5.640  0.8554 -0.0510  1.9679
   7823SM  C12S10314   0.973   5.887   5.582 -0.0081 -0.2295  0.2897
   7823SM  H12S10315   0.939   5.833   5.674  1.8642  1.0493  1.8208
   7823SM  H12T10316   1.074   5.850   5.555  0.3117  1.2122 -0.5542
   7823SM  C13S10317   0.873   5.865   5.465 -0.4296 -0.2763  0.3939
   7823SM  H13S10318   0.923   5.917   5.380  2.3401 -3.2836 -0.0215
   7823SM  H13T10319   0.781   5.924   5.485  1.0183  1.6079  1.9284
   7823SM  C14S10320   0.839   5.719   5.440  0.1752  0.2550 -0.5658
   7823SM  H14S10321   0.809   5.658   5.529  2.3782 -1.3320 -0.8263
   7823SM  H14T10322   0.932   5.670   5.405  1.4374  2.4759 -0.4440
   7823SM  C15S10323   0.729   5.688   5.339  0.3217  0.3073 -0.0373
   7823SM  H15S10324   0.633   5.729   5.377 -1.3918 -3.7350  0.4468
   7823SM  H15T10325   0.713   5.579   5.324 -0.7914  0.5774 -0.9347
   7823SM  C16S10326   0.774   5.725   5.193  0.3993 -0.0606  0.3148
   7823SM  H16S10327   0.839   5.648   5.147 -0.7062 -1.6366  1.2799
   7823SM  H16T10328   0.819   5.827   5.194  3.0161 -1.1353 -0.5643
   7823SM  C17S10329   0.652   5.742   5.093 -0.4019  0.3916  0.4575
   7823SM  H17S10330   0.598   5.831   5.135 -0.0509  0.4733  0.7414
   7823SM  H17T10331   0.583   5.655   5.096 -0.7446  0.6490  0.1173
   7823SM  C18S10332   0.703   5.760   4.948 -0.2568 -0.1635  0.2894
   7823SM  H18S10333   0.755   5.669   4.914  0.5145  0.7079 -0.9533
   7823SM  H18T10334   0.770   5.847   4.929  0.4639 -0.2876  2.0647
   7823SM  H18U10335   0.615   5.751   4.881  0.7035  0.9707 -1.2020
   7823SM   C1F10336   0.693   6.068   6.484  0.4959 -0.2772 -0.3955
   7823SM    OF10337   0.633   6.150   6.554 -0.4579  0.2872  0.7839
   7823SM   C2F10338   0.624   6.001   6.373  0.1935 -0.0305 -0.0711
   7823SM   H2F10339   0.616   5.892   6.392 -2.9834  0.6220  3.3660
   7823SM   H2G10340   0.685   6.010   6.280  0.5983 -0.7112  0.1218
   7823SM   C3F10341   0.489   6.071   6.346 -0.1105 -0.4949 -0.5673
   7823SM   H3F10342   0.427   6.084   6.438 -0.2049  1.1460 -0.8367
   7823SM   H3G10343   0.432   6.008   6.274 -0.1299  0.7663 -1.6905
   7823SM   C4F10344   0.500   6.217   6.289  0.6816 -0.3960 -0.3146
   7823SM   H4F10345   0.542   6.290   6.362 -0.5561 -0.8519  0.9080
   7823SM   H4G10346   0.393   6.247   6.294  0.0586 -2.6772  2.0639
   7823SM   C5F10347   0.548   6.235   6.144 -0.5520  0.1950 -0.3120
   7823SM   H5F10348   0.486   6.175   6.074 -0.7301  0.7385 -0.6256
   7823SM   H5G10349   0.649   6.192   6.128 -1.1193 -0.9690 -0.8911
   7823SM   C6F10350   0.555   6.388   6.110 -0.3805  0.2308  0.2869
   7823SM   H6F10351   0.622   6.419   6.193 -2.0364 -0.4100  1.9196
   7823SM   H6G10352   0.459   6.443   6.123 -0.1334  0.7599 -0.0784
   7823SM   C7F10353   0.615   6.417   5.972  0.0566  0.1022 -0.2707
   7823SM   H7F10354   0.716   6.371   5.972  0.2138  0.3705  1.4303
   7823SM   H7G10355   0.624   6.527   5.964  0.0057  0.2219  1.0452
   7823SM   C8F10356   0.527   6.368   5.856 -0.6429 -0.1471 -0.5615
   7823SM   H8F10357   0.423   6.399   5.877 -0.0216  0.0963  2.6936
   7823SM   H8G10358   0.534   6.257   5.862  0.8976 -0.0121  1.5685
   7823SM   C9F10359   0.567   6.405   5.715 -0.1560 -0.0791 -0.3009
   7823SM   H9F10360   0.574   6.516   5.706  2.2032 -0.3062 -2.4852
   7823SM   H9G10361   0.481   6.360   5.663 -2.4124  1.3705  1.9167
   7823SM  C10F10362   0.706   6.361   5.659  0.6468 -0.8220 -0.4081
   7823SM  H10F10363   0.722   6.252   5.675 -0.2178 -0.5461  2.9483
   7823SM  H10G10364   0.781   6.411   5.724 -1.3540  2.1280 -0.2170
   7823SM  C11F10365   0.717   6.398   5.514 -0.1366  0.1760 -0.2032
   7823SM  H11F10366   0.809   6.359   5.466 -1.7344 -3.5831 -0.5349
   7823SM  H11G10367   0.704   6.508   5.507  0.3011  0.1970 -0.7233
   7823SM  C12F10368   0.602   6.342   5.425 -0.9130 -0.7565  0.1397
   7823SM  H12F10369   0.505   6.395   5.439 -1.0753 -0.8517 -0.5683
   7823SM  H12G10370   0.589   6.236   5.457  2.1731 -1.2269  0.0901
   7823SM  C13F10371   0.622   6.350   5.271 -0.2318  0.0318 -0.2717
   7823SM  H13F10372   0.713   6.294   5.241 -0.3046 -1.0424  1.3427
   7823SM  H13G10373   0.620   6.457   5.241 -0.0448  0.5270  1.3587
   7823SM  C14F10374   0.509   6.280   5.189 -0.0494  0.1046 -0.3396
   7823SM  H14F10375   0.412   6.316   5.229  0.3371  1.1495 -0.3209
   7823SM  H14G10376   0.511   6.170   5.205 -2.8592  0.2926  2.2319
   7823SM  C15F10377   0.525   6.312   5.039 -0.4103  0.0942 -0.3984
   7823SM  H15F10378   0.625   6.288   4.998 -1.0082 -0.7759 -1.4163
   7823SM  H15G10379   0.513   6.422   5.026 -0.7021  0.1171  0.0245
   7823SM  C16F10380   0.416   6.244   4.950 -0.1231 -0.3206  0.7936
   7823SM  H16F10381   0.416   6.295   4.851  2.3267  0.5485  1.1760
   7823SM  H16G10382   0.311   6.240   4.989 -0.4821  2.5654  0.3585
   7823SM  C17F10383   0.465   6.099   4.924  0.1465 -0.1666 -0.2606
   7823SM  H17F10384   0.490   6.046   5.018  0.7008  2.2120  1.0277
   7823SM  H17G10385   0.563   6.100   4.872 -0.2531 -2.0848 -1.1234
   7823SM  C18F10386   0.378   6.015   4.834 -0.4744 -0.0901  0.5340
   7823SM  H18F10387   0.427   5.917   4.814 -0.4103 -0.5191  2.5549
   7823SM  H18G10388   0.362   6.058   4.733  0.5435 -0.6214  0.1302
   7823SM  C19F10389   0.241   5.983   4.889  0.8134  0.2997 -0.0666
   7823SM  H19F10390   0.182   6.076   4.905 -0.6918 -0.5649 -0.3083
   7823SM  H19G10391   0.253   5.940   4.991  4.0808 -2.0819 -1.2910
   7823SM  C20F10392   0.153   5.878   4.811  0.1720  0.0692  0.2115
   7823SM  H20F10393   0.149   5.889   4.700  1.1865 -2.2727 -0.1304
   7823SM  H20G10394   0.049   5.896   4.844  0.0642 -3.3166  2.1932
   7823SM  C21F10395   0.196   5.735   4.858  0.0889  0.4703 -0.1457
   7823SM  H21F10396   0.159   5.717   4.961  1.1668 -2.1895 -0.1467
   7823SM  H21G10397   0.303   5.708   4.856  0.0724  0.3325  0.5210
   7823SM  C22F10398   0.129   5.619   4.780 -0.3478  0.3029  0.6845
   7823SM  H22F10399   0.149   5.636   4.672 -0.8914 -1.0182  0.3613
   7823SM  H22G10400   0.019   5.621   4.794 -0.5523  0.6602 -0.8038
   7823SM  C23F10401   0.182   5.486   4.821  0.4739  0.0250 -0.6309
   7823SM  H23F10402   0.178   5.485   4.932 -2.1363  0.3416 -0.6573
   7823SM  H23G10403   0.288   5.478   4.787  1.3645 -0.2683  1.9513
   7823SM  H23H10404   0.123   5.400   4.784 -0.9283  0.6334  0.1068
   7923SM     N10405   6.355   7.058   7.173 -0.4309 -0.7005 -0.5484
   7923SM   C1510406   6.224   7.092   7.098 -0.3200  0.0999 -0.3746
   7923SM  H15A10407   6.150   7.122   7.169  1.0428 -1.2328  1.7225
   7923SM  H15B10408   6.180   7.006   7.049 -1.3734  1.0956 -1.1977
   7923SM  H15C10409   6.246   7.164   7.021 -0.0709  0.3031 -0.1159
   7923SM   C1410410   6.399   7.173   7.253  0.4644 -0.2165 -0.6653
   7923SM  H14A10411   6.317   7.220   7.305  0.5317  0.1490 -0.8793
   7923SM  H14B10412   6.435   7.245   7.181 -2.3928 -0.9682 -3.0631
   7923SM  H14C10413   6.480   7.148   7.320  1.8963  0.2073 -2.1654
   7923SM   C1310414   6.316   6.948   7.271 -0.2771 -0.2409  0.3205
   7923SM  H13A10415   6.398   6.902   7.324 -0.0708 -1.3055 -0.8644
   7923SM  H13B10416   6.254   6.875   7.221  0.7868 -1.6531  1.0098
   7923SM  H13C10417   6.255   6.993   7.348  0.6986  0.9372  0.4308
   7923SM   C1210418   6.464   7.019   7.077 -0.4580  0.0350  1.0898
   7923SM  H12A10419   6.434   6.944   7.005  3.9961 -1.1284  0.1510
   7923SM  H12B10420   6.547   6.978   7.133  1.3182 -0.4652 -1.7084
   7923SM   C1110421   6.524   7.137   6.995  0.0278 -0.0487  0.2291
   7923SM  H11A10422   6.585   7.096   6.912 -0.4797  1.0915 -0.7286
   7923SM  H11B10423   6.597   7.190   7.059  1.3273  0.8854 -1.9367
   7923SM     P10424   6.439   7.384   6.949  0.3486  0.2473  0.0328
   7923SM   O1310425   6.301   7.444   6.941 -0.2595 -0.4499  0.3310
   7923SM   O1410426   6.522   7.419   7.069 -0.1637 -0.1001  0.1498
   7923SM   O1110427   6.528   7.421   6.819  0.5391 -0.2424  0.0622
   7923SM   O1210428   6.424   7.229   6.947  0.1534 -0.7011  0.3593
   7923SM   C1S10429   6.536   7.343   6.697  0.4034 -0.4667  0.2022
   7923SM   H1S10430   6.510   7.235   6.700 -0.4828 -0.2603  0.2534
   7923SM   H1T10431   6.638   7.336   6.655 -0.4647 -0.0264 -2.1099
   7923SM    NF10432   6.428   7.331   6.474  0.2035 -0.1393  0.0861
   7923SM   HNF10433   6.484   7.341   6.392  2.2782 -0.9260  1.3298
   7923SM   C2S10434   6.453   7.423   6.589  0.5509  0.3100  0.2525
   7923SM   H2S10435   6.353   7.446   6.633 -0.0871 -0.7579 -0.5875
   7923SM   C3S10436   6.522   7.547   6.550 -0.4855 -0.2972  0.0331
   7923SM   H3S10437   6.626   7.514   6.532 -1.1638 -2.1467 -0.7501
   7923SM    O310438   6.533   7.642   6.658  0.3427  0.5668 -0.0153
   7923SM   HO310439   6.500   7.605   6.740  3.7763  0.9654  1.7304
   7923SM   C4S10440   6.469   7.620   6.430 -0.1591  0.5146 -0.5692
   7923SM   H4S10441   6.359   7.620   6.426 -0.1704  1.9313 -0.8171
   7923SM   C5S10442   6.532   7.673   6.324 -0.0794  0.8104  0.1831
   7923SM   H5S10443   6.639   7.658   6.303 -0.2109  0.3294 -0.1634
   7923SM   C6S10444   6.462   7.742   6.215  0.3071  0.2687  0.0004
   7923SM   H6S10445   6.507   7.843   6.202  1.1293 -0.0699  0.1518
   7923SM   H6T10446   6.356   7.749   6.245  1.3342  0.7133  4.1343
   7923SM   C7S10447   6.460   7.666   6.078 -0.2879 -0.0245 -0.1963
   7923SM   H7S10448   6.446   7.557   6.087 -1.3245  0.1432  0.4373
   7923SM   H7T10449   6.564   7.672   6.038  0.2103 -3.8648  0.1774
   7923SM   C8S10450   6.359   7.733   5.982  0.4031 -0.0212 -0.1055
   7923SM   H8S10451   6.389   7.839   5.965 -1.1208  0.7614  1.7341
   7923SM   H8T10452   6.264   7.739   6.039  0.2818  0.0597 -0.3167
   7923SM   C9S10453   6.342   7.659   5.850  0.2449 -0.0873  0.2746
   7923SM   H9S10454   6.281   7.567   5.860  0.2124 -0.1523 -0.4581
   7923SM   H9T10455   6.444   7.633   5.816  0.4321  0.3803  0.4711
   7923SM  C10S10456   6.261   7.751   5.765  0.1009 -0.1918  0.6950
   7923SM  H10S10457   6.305   7.852   5.748  0.0948 -0.6221 -2.5952
   7923SM  H10T10458   6.166   7.767   5.820  0.6155  0.2451  1.4730
   7923SM  C11S10459   6.231   7.696   5.631  0.0764 -0.0898 -0.7924
   7923SM  H11S10460   6.326   7.651   5.593  0.0425  0.4764 -1.5554
   7923SM  H11T10461   6.196   7.777   5.564 -2.2667 -0.2741  0.1341
   7923SM  C12S10462   6.110   7.600   5.625 -1.0070 -0.0776 -0.2061
   7923SM  H12S10463   6.025   7.634   5.688 -0.9145 -1.2098  0.5740
   7923SM  H12T10464   6.133   7.501   5.671  0.8270 -0.4220 -1.7216
   7923SM  C13S10465   6.047   7.570   5.485  0.4415 -0.0432 -0.1324
   7923SM  H13S10466   6.125   7.537   5.413  1.2435  0.1537  0.6282
   7923SM  H13T10467   6.004   7.662   5.441 -0.7468 -1.0809 -1.2141
   7923SM  C14S10468   5.945   7.455   5.494  1.0506 -0.0669 -0.3794
   7923SM  H14S10469   5.855   7.489   5.549  0.6388 -0.2590 -0.9234
   7923SM  H14T10470   5.999   7.378   5.553  1.1870  0.3955  0.0951
   7923SM  C15S10471   5.901   7.402   5.363  0.0374 -0.0585 -0.0497
   7923SM  H15S10472   5.991   7.371   5.305 -0.4669 -0.0793 -0.8424
   7923SM  H15T10473   5.855   7.487   5.307 -1.7984 -0.9584  0.0151
   7923SM  C16S10474   5.802   7.283   5.370  0.1644 -0.3352  0.2351
   7923SM  H16S10475   5.721   7.307   5.442 -2.0812 -1.9520 -1.6262
   7923SM  H16T10476   5.845   7.188   5.408 -0.5452 -1.1027 -0.8166
   7923SM  C17S10477   5.730   7.264   5.237  0.4596  1.1506  0.2689
   7923SM  H17S10478   5.798   7.252   5.150 -1.3772  0.2771 -1.0998
   7923SM  H17T10479   5.665   7.351   5.216 -2.6657 -1.2329 -0.7237
   7923SM  C18S10480   5.643   7.141   5.248  0.0186  0.3738 -0.0181
   7923SM  H18S10481   5.571   7.134   5.165  0.0626  2.3025 -0.2589
   7923SM  H18T10482   5.582   7.136   5.341 -1.1141 -0.9863 -0.7992
   7923SM  H18U10483   5.702   7.047   5.236  0.0341  0.4421 -0.4872
   7923SM   C1F10484   6.344   7.228   6.476  0.8128  0.0452 -0.3187
   7923SM    OF10485   6.266   7.204   6.569 -0.1055  0.2584 -0.2161
   7923SM   C2F10486   6.345   7.132   6.364 -0.3969  0.0632 -0.3884
   7923SM   H2F10487   6.447   7.090   6.359  0.0740  1.3178 -2.3079
   7923SM   H2G10488   6.341   7.187   6.267  1.1045  2.0920  0.6242
   7923SM   C3F10489   6.231   7.037   6.355 -0.2811  0.5966 -0.3924
   7923SM   H3F10490   6.138   7.098   6.352 -0.9651 -0.3768  0.4750
   7923SM   H3G10491   6.223   6.971   6.444  1.2978 -1.8404 -1.9157
   7923SM   C4F10492   6.247   6.936   6.239  0.5092  0.2946  0.7327
   7923SM   H4F10493   6.326   6.867   6.275 -0.3451 -1.1382 -0.0407
   7923SM   H4G10494   6.280   6.983   6.144  2.9266 -0.1736  1.2897
   7923SM   C5F10495   6.119   6.857   6.219  0.0133 -0.0957  0.1488
   7923SM   H5F10496   6.028   6.918   6.237  0.0605 -0.3429  1.3017
   7923SM   H5G10497   6.109   6.771   6.289  1.3896  0.5743  1.2132
   7923SM   C6F10498   6.104   6.792   6.083  0.8950  0.1519 -0.3685
   7923SM   H6F10499   6.193   6.725   6.078  1.4719  0.8385  0.4067
   7923SM   H6G10500   6.096   6.859   5.994 -1.0567 -1.5858 -1.5763
   7923SM   C7F10501   5.972   6.709   6.067 -0.7211 -0.4740  0.2791
   7923SM   H7F10502   5.964   6.623   6.137  0.4960  0.6479  1.8785
   7923SM   H7G10503   5.976   6.658   5.969  0.3593  0.6965 -0.3218
   7923SM   C8F10504   5.848   6.787   6.085 -0.2283  0.1553  0.1437
   7923SM   H8F10505   5.849   6.881   6.026  1.6947  2.0705  2.9653
   7923SM   H8G10506   5.852   6.823   6.190  0.7023 -0.2070  0.2428
   7923SM   C9F10507   5.716   6.716   6.068 -0.0977  0.5356  0.2897
   7923SM   H9F10508   5.652   6.722   6.159 -0.7505 -2.7230  0.1763
   7923SM   H9G10509   5.739   6.608   6.053  0.4413  0.9743 -2.5553
   7923SM  C10F10510   5.643   6.755   5.935 -0.3226 -0.3114 -0.4802
   7923SM  H10F10511   5.609   6.858   5.959  0.8321 -0.3383  1.5750
   7923SM  H10G10512   5.557   6.685   5.927 -0.9172  0.2097  0.9300
   7923SM  C11F10513   5.737   6.754   5.813 -0.0823  0.0235  0.1112
   7923SM  H11F10514   5.786   6.655   5.817  0.4723  0.2374 -0.8658
   7923SM  H11G10515   5.814   6.833   5.826  0.5623 -1.0444  3.8301
   7923SM  C12F10516   5.664   6.767   5.681 -0.6466  0.4293  0.5522
   7923SM  H12F10517   5.620   6.869   5.689  0.6227  0.8584  2.7792
   7923SM  H12G10518   5.578   6.697   5.677 -0.4758  0.2560 -0.3874
   7923SM  C13F10519   5.760   6.748   5.561  1.2670  0.7337  0.7942
   7923SM  H13F10520   5.793   6.642   5.560 -0.2702  0.2371  0.0197
   7923SM  H13G10521   5.850   6.811   5.580  1.2440  0.7065  0.9937
   7923SM  C14F10522   5.693   6.788   5.426 -0.2912 -0.0428 -0.8405
   7923SM  H14F10523   5.675   6.896   5.407  0.0209  0.5263  1.6421
   7923SM  H14G10524   5.592   6.742   5.433 -0.5057  0.4753 -0.4163
   7923SM  C15F10525   5.759   6.730   5.300  0.1437  0.7568 -0.8278
   7923SM  H15F10526   5.757   6.619   5.309 -1.0051  0.9607  2.4495
   7923SM  H15G10527   5.868   6.752   5.291  0.3594 -0.6516 -2.0877
   7923SM  C16F10528   5.700   6.780   5.169  0.0010  0.5652  0.3670
   7923SM  H16F10529   5.735   6.885   5.156 -1.6106  1.1008  0.0788
   7923SM  H16G10530   5.589   6.784   5.173 -0.1256  1.2029 -2.1594
   7923SM  C17F10531   5.730   6.683   5.046 -0.4822  0.2076  0.1801
   7923SM  H17F10532   5.676   6.589   5.071  0.3135 -0.1924  0.4354
   7923SM  H17G10533   5.838   6.660   5.038 -0.0780  2.2593 -0.8858
   7923SM  C18F10534   5.679   6.733   4.913 -0.3925  0.0935  0.2145
   7923SM  H18F10535   5.569   6.737   4.923 -0.3066  1.8173  0.8846
   7923SM  H18G10536   5.686   6.655   4.834 -2.8755 -1.3386  1.3011
   7923SM  C19F10537   5.728   6.864   4.853  0.1158 -1.1255  0.3323
   7923SM  H19F10538   5.676   6.952   4.896 -1.9856 -0.8000 -2.5540
   7923SM  H19G10539   5.679   6.866   4.753 -1.4145  0.3335  1.0473
   7923SM  C20F10540   5.885   6.876   4.844 -0.7848 -0.3554 -0.5387
   7923SM  H20F10541   5.909   6.868   4.952  0.6486  0.0821 -0.8017
   7923SM  H20G10542   5.928   6.969   4.801 -0.1169 -0.8077 -0.8685
   7923SM  C21F10543   5.950   6.775   4.753 -0.2389  0.5812  0.0236
   7923SM  H21F10544   5.913   6.674   4.780 -0.9854  0.9860  0.5600
   7923SM  H21G10545   6.060   6.770   4.769  0.0119 -2.4948 -1.8371
   7923SM  C22F10546   5.906   6.794   4.607 -0.4936 -0.0791 -0.1655
   7923SM  H22F10547   5.900   6.902   4.583 -0.7334 -0.3602 -1.4532
   7923SM  H22G10548   5.804   6.749   4.601 -0.6915  0.1456  1.2046
   7923SM  C23F10549   5.993   6.714   4.514 -0.5629  0.8806 -0.2486
   7923SM  H23F10550   6.099   6.747   4.509 -0.1109 -0.6082 -2.5223
   7923SM  H23G10551   5.958   6.717   4.408  0.0077  2.3003 -0.4103
   7923SM  H23H10552   6.002   6.609   4.549  0.6250  0.5482 -1.4548
   8023SM     N10553   7.321   6.220   7.099  0.4197  0.4459  1.1209
   8023SM   C1510554   7.334   6.093   7.166 -0.0411  0.1578 -0.7574
   8023SM  H15A10555   7.416   6.040   7.119 -0.9024 -2.1184  0.1582
   8023SM  H15B10556   7.243   6.035   7.162 -0.3928  0.6758 -0.2974
   8023SM  H15C10557   7.356   6.101   7.271 -1.9114  1.1272 -0.3967
   8023SM   C1410558   7.224   6.303   7.173 -0.0857  0.1206 -0.4537
   8023SM  H14A10559   7.266   6.333   7.268  5.8154 -2.9752 -1.6127
   8023SM  H14B10560   7.132   6.250   7.193 -1.2334  2.1785  0.0913
   8023SM  H14C10561   7.190   6.386   7.113  0.1888 -0.3071 -1.2090
   8023SM   C1310562   7.455   6.285   7.101 -0.4414 -0.6795 -0.5252
   8023SM  H13A10563   7.444   6.378   7.048  1.4622 -1.5054 -2.5335
   8023SM  H13B10564   7.540   6.238   7.053  0.9865  0.3066  0.9312
   8023SM  H13C10565   7.482   6.298   7.205 -1.7308 -0.9141 -0.1391
   8023SM   C1210566   7.283   6.203   6.954 -0.0641 -0.3128  0.3319
   8023SM  H12A10567   7.180   6.174   6.943  0.2172 -0.9737 -0.6941
   8023SM  H12B10568   7.339   6.123   6.908 -1.2709 -0.6200 -0.6674
   8023SM   C1110569   7.304   6.330   6.868  0.1642  0.0752 -0.1893
   8023SM  H11A10570   7.291   6.288   6.765 -1.7135 -1.0849  0.4695
   8023SM  H11B10571   7.405   6.375   6.861  1.7266 -2.7028  2.1361
   8023SM     P10572   7.233   6.585   6.904 -0.1621 -0.3078 -0.4617
   8023SM   O1310573   7.104   6.654   6.936 -0.9915 -0.2129  0.2502
   8023SM   O1410574   7.350   6.613   6.988 -0.2305 -0.0778  0.4460
   8023SM   O1110575   7.279   6.611   6.755 -0.4236 -0.2880  0.3814
   8023SM   O1210576   7.201   6.430   6.894 -0.3679  0.3656  0.0854
   8023SM   C1S10577   7.265   6.738   6.689 -0.3185 -0.5990 -0.2586
   8023SM   H1S10578   7.355   6.799   6.711 -0.5456 -0.1419 -0.5994
   8023SM   H1T10579   7.175   6.798   6.714 -0.2532 -0.7009  0.2359
   8023SM    NF10580   7.235   6.851   6.473 -0.0539  0.1380 -0.1083
   8023SM   HNF10581   7.161   6.865   6.408  0.9084  1.9942 -0.8987
   8023SM   C2S10582   7.246   6.725   6.535  0.9101  0.7810 -0.0075
   8023SM   H2S10583   7.338   6.672   6.501  0.3435  0.0539 -0.4457
   8023SM   C3S10584   7.122   6.629   6.504  0.6245 -0.4240 -0.3879
   8023SM   H3S10585   7.025   6.667   6.542  0.8113 -0.4667  0.1341
   8023SM    O310586   7.126   6.504   6.565  0.4286  0.3833  0.0239
   8023SM   HO310587   7.186   6.507   6.639  0.7468 -0.6636 -0.1794
   8023SM   C4S10588   7.105   6.609   6.352 -0.0685 -0.3879  0.0264
   8023SM   H4S10589   7.053   6.692   6.303 -0.4189 -1.1891 -0.9760
   8023SM   C5S10590   7.155   6.508   6.272  0.6418 -0.3612  0.8613
   8023SM   H5S10591   7.209   6.423   6.316  3.5611 -0.0057 -1.6741
   8023SM   C6S10592   7.138   6.489   6.123  0.3104  1.1083  0.1179
   8023SM   H6S10593   7.089   6.391   6.105  0.8268  1.2021 -2.0837
   8023SM   H6T10594   7.231   6.490   6.062  0.0039 -3.8254 -0.8702
   8023SM   C7S10595   7.040   6.584   6.049  0.2489  0.5578  0.7379
   8023SM   H7S10596   7.100   6.671   6.014  0.6449 -0.3043 -0.8271
   8023SM   H7T10597   6.966   6.622   6.123 -1.1338  1.7042 -1.1525
   8023SM   C8S10598   6.953   6.523   5.931  0.2285 -0.1832 -0.0577
   8023SM   H8S10599   6.941   6.614   5.867 -1.2809 -0.4774 -0.2305
   8023SM   H8T10600   6.849   6.489   5.952  1.0239 -1.8988  1.3079
   8023SM   C9S10601   7.015   6.411   5.844  0.4631  0.2183  0.4944
   8023SM   H9S10602   6.947   6.391   5.759  2.1172 -0.6831 -0.6906
   8023SM   H9T10603   7.022   6.324   5.913  1.9659 -0.1958 -0.1381
   8023SM  C10S10604   7.149   6.460   5.785 -0.0871 -0.6351  0.2438
   8023SM  H10S10605   7.212   6.368   5.783  0.4603 -0.2874 -2.7547
   8023SM  H10T10606   7.197   6.539   5.847 -0.3366 -0.2124 -0.0958
   8023SM  C11S10607   7.138   6.510   5.641 -0.3570 -0.3563 -0.7036
   8023SM  H11S10608   7.092   6.611   5.634 -1.3705 -0.7178  0.2822
   8023SM  H11T10609   7.088   6.434   5.577  0.2728 -1.9320  0.5926
   8023SM  C12S10610   7.274   6.540   5.572 -0.4886 -0.2009  1.5936
   8023SM  H12S10611   7.255   6.539   5.462 -1.1847 -1.6496  1.7014
   8023SM  H12T10612   7.336   6.452   5.601 -0.8745 -0.5170  1.4793
   8023SM  C13S10613   7.350   6.653   5.630  0.5170 -0.1502 -1.0034
   8023SM  H13S10614   7.357   6.660   5.740 -0.2172 -0.9316 -0.9006
   8023SM  H13T10615   7.313   6.753   5.597  1.1687  1.3034  2.3140
   8023SM  C14S10616   7.493   6.643   5.581  0.1298 -0.3529  0.1448
   8023SM  H14S10617   7.510   6.637   5.472  0.2479  1.9118 -0.0121
   8023SM  H14T10618   7.528   6.545   5.619  1.1872 -0.9259 -2.1132
   8023SM  C15S10619   7.581   6.760   5.624 -0.3994 -0.2805  0.4286
   8023SM  H15S10620   7.566   6.768   5.734 -1.1332 -1.1040  0.3994
   8023SM  H15T10621   7.564   6.857   5.573  2.3184  0.5066  0.8888
   8023SM  C16S10622   7.726   6.719   5.605  0.0720  0.2041  0.0504
   8023SM  H16S10623   7.741   6.622   5.658  2.9313  1.1036  1.0569
   8023SM  H16T10624   7.790   6.793   5.657 -0.7284  0.6157  0.4783
   8023SM  C17S10625   7.776   6.684   5.464  0.0441 -0.3083 -0.0552
   8023SM  H17S10626   7.733   6.756   5.391 -0.3253 -1.3301 -0.8625
   8023SM  H17T10627   7.739   6.583   5.439  0.6843 -0.1692 -1.6605
   8023SM  C18S10628   7.926   6.694   5.447  0.0425 -0.2150  0.5084
   8023SM  H18S10629   7.974   6.685   5.546 -0.8236  1.4372  1.1157
   8023SM  H18T10630   7.955   6.788   5.396 -1.3697  0.3329  0.6566
   8023SM  H18U10631   7.966   6.610   5.386  0.0591  1.0065 -1.2428
   8023SM   C1F10632   7.341   6.935   6.476  0.1868  0.2083  0.0936
   8023SM    OF10633   7.454   6.897   6.521 -0.1184 -0.0461 -0.2222
   8023SM   C2F10634   7.322   7.076   6.424  0.0891 -0.7755  0.3365
   8023SM   H2F10635   7.276   7.139   6.502 -0.7508 -0.0998 -0.6676
   8023SM   H2G10636   7.250   7.075   6.339 -0.4737 -0.1666  0.7989
   8023SM   C3F10637   7.453   7.147   6.366  0.1779 -0.2089 -0.0593
   8023SM   H3F10638   7.469   7.091   6.271 -0.7374 -1.0008  0.2351
   8023SM   H3G10639   7.549   7.134   6.420  0.4177  0.6542 -0.2534
   8023SM   C4F10640   7.421   7.295   6.335 -0.2756 -0.3301 -0.6465
   8023SM   H4F10641   7.380   7.352   6.421  1.3108 -2.1269  1.3911
   8023SM   H4G10642   7.357   7.306   6.245  0.0886 -0.2360 -0.8976
   8023SM   C5F10643   7.551   7.371   6.296 -0.3397 -0.2936  0.0300
   8023SM   H5F10644   7.638   7.331   6.352 -0.9735 -1.6811  0.0912
   8023SM   H5G10645   7.534   7.479   6.315 -0.6822 -0.4220  0.4960
   8023SM   C6F10646   7.587   7.364   6.144  0.3712 -0.4311 -0.3784
   8023SM   H6F10647   7.499   7.337   6.082 -0.7389 -1.6159  1.6050
   8023SM   H6G10648   7.644   7.270   6.141 -2.9396 -2.7707  2.2759
   8023SM   C7F10649   7.650   7.489   6.091  0.1786  0.5406  0.2106
   8023SM   H7F10650   7.698   7.460   5.995  0.4726  3.4369 -0.6020
   8023SM   H7G10651   7.729   7.520   6.163 -0.9630  1.0017  1.2930
   8023SM   C8F10652   7.548   7.602   6.067 -1.3373  0.1493 -0.6297
   8023SM   H8F10653   7.520   7.644   6.166  0.1122  0.5712 -0.3664
   8023SM   H8G10654   7.456   7.572   6.012 -1.7094  0.7255 -0.3365
   8023SM   C9F10655   7.607   7.727   5.989 -0.0048  0.0529  0.4731
   8023SM   H9F10656   7.653   7.680   5.899 -1.8516 -0.8180 -0.0876
   8023SM   H9G10657   7.696   7.753   6.050  0.7643 -2.2596  0.4337
   8023SM  C10F10658   7.511   7.841   5.947  0.2659 -0.3437 -0.1779
   8023SM  H10F10659   7.463   7.897   6.031  2.2770  0.8506  0.2322
   8023SM  H10G10660   7.430   7.806   5.879 -0.5652  0.1165  0.5472
   8023SM  C11F10661   7.590   7.950   5.879  0.5547  0.1399  0.3847
   8023SM  H11F10662   7.653   7.892   5.809 -0.7806 -2.8376  1.4753
   8023SM  H11G10663   7.657   8.008   5.946  2.0516 -0.0983 -0.8587
   8023SM  C12F10664   7.514   8.050   5.795  0.1329  0.1399  0.8710
   8023SM  H12F10665   7.535   8.148   5.844 -1.2149 -0.4425  2.7321
   8023SM  H12G10666   7.403   8.040   5.795  0.2010 -0.6777  0.2065
   8023SM  C13F10667   7.546   8.040   5.644 -0.0458  0.0346 -0.1111
   8023SM  H13F10668   7.656   8.033   5.628  0.0136  0.1453  0.2370
   8023SM  H13G10669   7.525   8.133   5.586  1.4832 -0.4602 -1.5751
   8023SM  C14F10670   7.490   7.913   5.578 -0.5105 -0.4007 -0.5527
   8023SM  H14F10671   7.492   7.830   5.653  0.8712 -0.4267 -0.5970
   8023SM  H14G10672   7.557   7.884   5.495  3.5742 -0.9663  2.6327
   8023SM  C15F10673   7.339   7.931   5.549  0.0409 -0.0043 -0.0901
   8023SM  H15F10674   7.287   7.959   5.643 -0.6985 -0.9025 -0.2153
   8023SM  H15G10675   7.287   7.841   5.510  0.7292 -0.2482 -0.4537
   8023SM  C16F10676   7.305   8.044   5.445 -0.3375 -0.3882 -0.7353
   8023SM  H16F10677   7.376   8.049   5.360  0.2820  1.1461 -0.1725
   8023SM  H16G10678   7.327   8.144   5.490  0.6049 -0.9568  0.1148
   8023SM  C17F10679   7.160   8.030   5.395 -0.3716  0.1239 -0.3592
   8023SM  H17F10680   7.096   8.045   5.485  0.3904 -0.8968  0.3804
   8023SM  H17G10681   7.137   7.924   5.368 -1.4775 -0.1951  1.6130
   8023SM  C18F10682   7.123   8.120   5.274 -0.2138 -0.1818  0.7192
   8023SM  H18F10683   7.214   8.126   5.212  0.6678  2.6813  2.1123
   8023SM  H18G10684   7.100   8.225   5.304  0.5462  0.3293 -0.4172
   8023SM  C19F10685   7.004   8.058   5.202  0.5796 -0.2575  0.3704
   8023SM  H19F10686   6.916   8.124   5.218  1.1488  0.1062  2.1884
   8023SM  H19G10687   6.968   7.959   5.238  0.0012 -0.4064 -0.5764
   8023SM  C20F10688   7.016   8.053   5.054  0.4858 -0.3101  0.5150
   8023SM  H20F10689   7.112   8.002   5.032 -0.0312 -0.4158 -1.7693
   8023SM  H20G10690   7.034   8.157   5.019 -0.6497 -0.1260  0.4247
   8023SM  C21F10691   6.903   7.995   4.973  0.3401  0.3924  0.0342
   8023SM  H21F10692   6.882   7.886   4.981  1.4474 -0.0772 -2.4425
   8023SM  H21G10693   6.919   8.011   4.864 -1.0629 -2.2758 -0.6585
   8023SM  C22F10694   6.772   8.066   4.994  0.1935  0.4791 -0.6077
   8023SM  H22F10695   6.786   8.176   4.997 -0.3403  0.5164  1.5266
   8023SM  H22G10696   6.724   8.029   5.086 -0.1993  0.4037 -0.8395
   8023SM  C23F10697   6.671   8.035   4.883 -0.2492  0.1573 -0.4164
   8023SM  H23F10698   6.577   8.090   4.901 -0.3841 -0.5071  1.0362
   8023SM  H23G10699   6.650   7.926   4.874  1.1251 -0.2749  1.0760
   8023SM  H23H10700   6.714   8.069   4.786 -0.9739 -1.6920 -1.4495
   8123SM     N10701   3.776   4.415   2.431  0.1091 -0.0339  0.0267
   8123SM   C1510702   3.912   4.471   2.472  0.2901  0.3545  0.0980
   8123SM  H15A10703   3.966   4.397   2.529  0.6937  0.5183 -0.0706
   8123SM  H15B10704   3.899   4.568   2.517 -1.6880  0.5332 -0.7413
   8123SM  H15C10705   3.966   4.496   2.382  0.5840 -1.8089 -0.3913
   8123SM   C1410706   3.688   4.521   2.362 -0.3734  0.2615  0.2298
   8123SM  H14A10707   3.734   4.542   2.267  1.9173 -0.1661  1.1824
   8123SM  H14B10708   3.680   4.602   2.434 -2.1628 -0.4627  0.9110
   8123SM  H14C10709   3.583   4.504   2.344 -0.4345  1.3188 -0.4756
   8123SM   C1310710   3.803   4.301   2.336 -0.2699 -0.3179  0.3290
   8123SM  H13A10711   3.716   4.249   2.299  0.2048 -0.4907 -0.5748
   8123SM  H13B10712   3.864   4.225   2.382  0.2347 -0.9246 -1.2750
   8123SM  H13C10713   3.868   4.331   2.255 -0.9510 -0.3266 -0.2313
   8123SM   C1210714   3.712   4.348   2.554 -0.0204  0.2329  0.1386
   8123SM  H12A10715   3.768   4.260   2.582 -3.2930 -1.4374  2.0655
   8123SM  H12B10716   3.614   4.308   2.532  0.1061  0.0599 -0.1089
   8123SM   C1110717   3.698   4.440   2.675 -0.0600  0.5409 -0.5903
   8123SM  H11A10718   3.800   4.444   2.717  0.5523  0.5651 -2.0210
   8123SM  H11B10719   3.638   4.404   2.761  1.0535 -0.2033 -0.1018
   8123SM     P10720   3.698   4.695   2.733  0.1043  0.4850  0.1046
   8123SM   O1310721   3.843   4.713   2.713 -0.4059  0.2551 -0.5831
   8123SM   O1410722   3.613   4.811   2.698  0.6665  0.0662 -0.2660
   8123SM   O1110723   3.670   4.642   2.876  0.6495 -0.6591 -0.1980
   8123SM   O1210724   3.643   4.571   2.642 -0.0630 -0.3821 -0.4644
   8123SM   C1S10725   3.536   4.624   2.919  0.2166  0.1277 -0.1817
   8123SM   H1S10726   3.502   4.525   2.881 -2.2428  0.3185  1.2977
   8123SM   H1T10727   3.464   4.700   2.883 -0.3779  0.4808  1.6847
   8123SM    NF10728   3.382   4.582   3.109 -0.1090 -0.7036 -0.2001
   8123SM   HNF10729   3.326   4.659   3.138 -1.6308 -1.2268 -1.5997
   8123SM   C2S10730   3.516   4.614   3.074  0.2698 -0.3465 -0.7957
   8123SM   H2S10731   3.578   4.529   3.111  0.7485 -0.2223 -1.3153
   8123SM   C3S10732   3.593   4.746   3.130  0.5506 -0.0078  0.4131
   8123SM   H3S10733   3.557   4.834   3.073  2.0544  0.9686  0.9368
   8123SM    O310734   3.739   4.746   3.111  0.4864 -0.1428  0.2174
   8123SM   HO310735   3.759   4.672   3.054 -0.4544 -0.1260 -0.1447
   8123SM   C4S10736   3.549   4.771   3.274 -0.1485  0.5591 -0.7515
   8123SM   H4S10737   3.460   4.835   3.284 -0.5227  0.0876 -1.0621
   8123SM   C5S10738   3.606   4.716   3.381 -0.6076  0.9601 -0.7193
   8123SM   H5S10739   3.702   4.662   3.376 -0.3455  1.1787  1.2017
   8123SM   C6S10740   3.560   4.724   3.528 -0.4392  0.4445 -1.2917
   8123SM   H6S10741   3.644   4.753   3.594 -0.8382 -0.9754 -0.0927
   8123SM   H6T10742   3.536   4.624   3.570 -0.8357  0.1537 -2.1784
   8123SM   C7S10743   3.429   4.800   3.565 -0.5947 -0.5461 -1.2588
   8123SM   H7S10744   3.437   4.903   3.524  4.0211  0.0716  0.5290
   8123SM   H7T10745   3.429   4.825   3.674  1.3959 -0.2364 -1.2813
   8123SM   C8S10746   3.305   4.721   3.521  0.4068  0.4874 -0.5695
   8123SM   H8S10747   3.294   4.625   3.577  1.6358  0.2411 -0.7266
   8123SM   H8T10748   3.307   4.704   3.411  0.8850  1.4913 -0.7241
   8123SM   C9S10749   3.175   4.803   3.565 -0.0315  0.0508 -0.5412
   8123SM   H9S10750   3.101   4.801   3.483 -0.6422  0.2242  0.0036
   8123SM   H9T10751   3.228   4.901   3.567 -3.6600  2.2168  2.9803
   8123SM  C10S10752   3.113   4.761   3.702 -0.4165 -0.4539  0.6854
   8123SM  H10S10753   3.190   4.773   3.780 -0.7964 -0.2807  1.0353
   8123SM  H10T10754   3.077   4.656   3.710  2.3798 -1.5256  0.3616
   8123SM  C11S10755   3.003   4.860   3.748 -0.1279 -0.9863  0.5126
   8123SM  H11S10756   2.929   4.874   3.666  2.0589  1.1176 -1.2701
   8123SM  H11T10757   3.049   4.960   3.765 -0.3657 -0.9475  0.9485
   8123SM  C12S10758   2.928   4.814   3.871 -0.1412  0.4014  0.9084
   8123SM  H12S10759   2.878   4.716   3.857 -1.7525  1.0782  1.6616
   8123SM  H12T10760   2.854   4.894   3.893  2.6351  3.2708  0.4783
   8123SM  C13S10761   3.014   4.810   3.989 -0.3321  1.0304 -0.4803
   8123SM  H13S10762   3.088   4.892   3.981  2.0200 -0.6700  2.0438
   8123SM  H13T10763   3.072   4.716   3.992 -1.3127  0.4292  1.0199
   8123SM  C14S10764   2.930   4.806   4.119  0.1959 -0.0090  0.6764
   8123SM  H14S10765   2.855   4.724   4.112 -1.7089  1.7102  0.0411
   8123SM  H14T10766   2.879   4.904   4.130  1.2833  0.4907  1.5146
   8123SM  C15S10767   3.018   4.790   4.240 -0.1246 -0.2008 -0.5898
   8123SM  H15S10768   3.098   4.867   4.248 -0.7607  0.3732  0.3955
   8123SM  H15T10769   3.077   4.696   4.237  1.9199  1.0146 -0.6611
   8123SM  C16S10770   2.942   4.794   4.381  0.1272  0.6915 -0.4060
   8123SM  H16S10771   3.019   4.790   4.461  0.4696  1.3997 -0.6917
   8123SM  H16T10772   2.878   4.704   4.391 -0.5909  1.3867  1.8935
   8123SM  C17S10773   2.858   4.915   4.417  0.1905  0.2381 -0.6402
   8123SM  H17S10774   2.805   4.892   4.512  2.1887 -0.2082  0.4243
   8123SM  H17T10775   2.781   4.940   4.340 -0.4891 -1.1129 -0.4409
   8123SM  C18S10776   2.946   5.040   4.436  0.6821  0.4590  0.8925
   8123SM  H18S10777   2.888   5.134   4.450  0.3134  0.3041  0.4299
   8123SM  H18T10778   3.005   5.059   4.343 -0.4763  0.1818  0.0754
   8123SM  H18U10779   3.019   5.031   4.519  0.6397  1.0811  1.0009
   8123SM   C1F10780   3.335   4.460   3.088 -0.3491  0.1988  0.3034
   8123SM    OF10781   3.402   4.369   3.030  0.4173  0.3693 -1.1765
   8123SM   C2F10782   3.191   4.432   3.136 -0.3445  0.5537  0.1939
   8123SM   H2F10783   3.142   4.395   3.044 -1.5534 -2.1270  1.8045
   8123SM   H2G10784   3.138   4.524   3.169  0.0842  1.1778 -0.8199
   8123SM   C3F10785   3.181   4.312   3.246  0.0932 -0.2386  0.2809
   8123SM   H3F10786   3.207   4.221   3.188 -1.7358  0.2211 -1.3574
   8123SM   H3G10787   3.071   4.313   3.264  0.2078  1.0116  1.0470
   8123SM   C4F10788   3.250   4.348   3.374 -0.1979  0.3902 -0.1361
   8123SM   H4F10789   3.193   4.288   3.448 -0.4195 -2.0463 -2.1476
   8123SM   H4G10790   3.246   4.448   3.421  0.6501 -1.1046  3.4290
   8123SM   C5F10791   3.398   4.297   3.392 -0.1148 -0.3931 -0.7246
   8123SM   H5F10792   3.466   4.379   3.360 -1.3107  1.4504  1.2117
   8123SM   H5G10793   3.427   4.222   3.315  0.2442 -1.0873  0.0680
   8123SM   C6F10794   3.441   4.261   3.538  0.3767  0.4101 -0.2896
   8123SM   H6F10795   3.515   4.178   3.540 -0.8036 -0.6793  1.6389
   8123SM   H6G10796   3.351   4.211   3.580 -0.2117  1.4212 -0.3054
   8123SM   C7F10797   3.492   4.375   3.631  0.2401 -0.3074  0.2783
   8123SM   H7F10798   3.422   4.460   3.621  0.3373 -0.2407  0.1500
   8123SM   H7G10799   3.584   4.427   3.596  0.6263  1.7910  3.8293
   8123SM   C8F10800   3.518   4.336   3.775 -0.2701  0.2022  0.6846
   8123SM   H8F10801   3.606   4.268   3.786  0.3778  0.7927 -0.6035
   8123SM   H8G10802   3.431   4.274   3.804  0.8529 -1.5244  0.5275
   8123SM   C9F10803   3.543   4.463   3.862  0.2758  0.1922  1.1753
   8123SM   H9F10804   3.453   4.522   3.835 -0.8557 -1.1656  1.9005
   8123SM   H9G10805   3.632   4.515   3.820 -1.1637  0.2071 -2.2320
   8123SM  C10F10806   3.551   4.458   4.018 -0.3417 -0.3321 -0.2529
   8123SM  H10F10807   3.464   4.401   4.056  0.6913 -0.5792  1.8392
   8123SM  H10G10808   3.536   4.559   4.060 -4.4992 -0.7640 -0.2773
   8123SM  C11F10809   3.669   4.382   4.077  0.2784 -0.0568  0.3176
   8123SM  H11F10810   3.767   4.432   4.059  0.1177  1.4766  3.1299
   8123SM  H11G10811   3.659   4.286   4.023  1.6326 -0.3234  0.4986
   8123SM  C12F10812   3.655   4.339   4.225  0.3499  0.4719 -0.1189
   8123SM  H12F10813   3.620   4.419   4.293  0.9532 -0.9442  1.9461
   8123SM  H12G10814   3.752   4.311   4.273 -1.0636  0.4269  2.9053
   8123SM  C13F10815   3.555   4.224   4.252  0.6856  1.4913 -0.1566
   8123SM  H13F10816   3.554   4.151   4.168  1.0956 -2.0836  2.6766
   8123SM  H13G10817   3.449   4.256   4.246  0.2096  0.0144 -0.1511
   8123SM  C14F10818   3.580   4.161   4.391 -0.2310 -0.5024  0.4712
   8123SM  H14F10819   3.680   4.118   4.413  0.1637  0.6594  1.0243
   8123SM  H14G10820   3.513   4.073   4.394 -0.2284 -0.5145  0.1965
   8123SM  C15F10821   3.546   4.262   4.503  0.0303  0.1732 -0.0603
   8123SM  H15F10822   3.437   4.283   4.500 -0.5805 -2.3961  1.1907
   8123SM  H15G10823   3.608   4.353   4.487  0.7749 -0.3471 -0.1341
   8123SM  C16F10824   3.584   4.213   4.641  0.1001 -0.4254 -0.0876
   8123SM  H16F10825   3.534   4.114   4.638  0.1806 -0.4606 -0.2516
   8123SM  H16G10826   3.535   4.283   4.712 -0.7800 -1.6825  0.5910
   8123SM  C17F10827   3.738   4.187   4.673 -0.6857  0.5699  0.1508
   8123SM  H17F10828   3.765   4.259   4.753 -0.5278  0.6701  0.0099
   8123SM  H17G10829   3.808   4.199   4.587 -0.3377 -3.7900 -0.3779
   8123SM  C18F10830   3.773   4.044   4.723  0.1881  0.3334 -0.2215
   8123SM  H18F10831   3.739   3.968   4.649  2.2917  0.1269 -1.0220
   8123SM  H18G10832   3.699   4.029   4.804 -0.9018  1.2356 -1.0179
   8123SM  C19F10833   3.921   4.011   4.767 -0.1535 -0.1786 -0.5986
   8123SM  H19F10834   3.926   3.924   4.836 -0.6906  0.9073  0.8776
   8123SM  H19G10835   3.971   4.096   4.820 -1.9135  0.2432  0.4807
   8123SM  C20F10836   4.015   3.974   4.642  0.6560  0.9692 -0.2788
   8123SM  H20F10837   3.987   4.057   4.574 -0.1125  2.2984  1.5727
   8123SM  H20G10838   3.994   3.874   4.599  0.1261 -0.7639  3.5811
   8123SM  C21F10839   4.167   3.979   4.680 -0.4579  0.8158  0.1875
   8123SM  H21F10840   4.225   3.933   4.598  1.1611  1.2477  1.0412
   8123SM  H21G10841   4.177   3.922   4.775  2.9201  0.3690 -0.3259
   8123SM  C22F10842   4.212   4.125   4.686  0.4814  0.6091  0.0962
   8123SM  H22F10843   4.172   4.175   4.777  0.2359  0.2787  0.1723
   8123SM  H22G10844   4.169   4.181   4.601  0.4765  1.4278  0.6250
   8123SM  C23F10845   4.366   4.138   4.689 -1.1624  0.0589  0.5952
   8123SM  H23F10846   4.414   4.081   4.772  4.3970  0.0283 -2.1903
   8123SM  H23G10847   4.398   4.244   4.697 -1.2719  0.0876  0.6477
   8123SM  H23H10848   4.415   4.100   4.597 -2.0501 -0.9899  0.5251
   8223SM     N10849   4.434   4.264   2.295 -0.1271 -0.4982  0.0632
   8223SM   C1510850   4.534   4.281   2.188 -0.6967  0.1505 -0.0799
   8223SM  H15A10851   4.613   4.209   2.197 -0.9859 -0.4075 -1.6848
   8223SM  H15B10852   4.578   4.380   2.197  0.1779 -0.2398  0.0528
   8223SM  H15C10853   4.487   4.268   2.091  1.5377 -1.1907 -1.0574
   8223SM   C1410854   4.328   4.367   2.261  0.5223  0.1716  0.1243
   8223SM  H14A10855   4.279   4.334   2.171 -0.2117  2.3659 -0.3378
   8223SM  H14B10856   4.360   4.469   2.251 -1.1936  1.0095  2.2059
   8223SM  H14C10857   4.249   4.358   2.335 -2.2248  1.2568 -2.4699
   8223SM   C1310858   4.374   4.130   2.285  0.4344  0.3600  0.2323
   8223SM  H13A10859   4.456   4.063   2.306  0.6786  0.2508 -0.9851
   8223SM  H13B10860   4.343   4.098   2.187 -0.6823 -0.4827  0.8378
   8223SM  H13C10861   4.297   4.116   2.359  0.5596 -0.8429  0.1544
   8223SM   C1210862   4.491   4.294   2.426 -0.3940 -0.3639 -0.6667
   8223SM  H12A10863   4.420   4.338   2.495  1.1588 -0.1612  0.8823
   8223SM  H12B10864   4.555   4.380   2.414 -1.3195 -0.0006 -3.7386
   8223SM   C1110865   4.577   4.182   2.496 -0.6771  0.0776  0.7083
   8223SM  H11A10866   4.509   4.096   2.514  1.0207 -1.2438  1.1303
   8223SM  H11B10867   4.597   4.216   2.600 -0.4959 -1.5238  1.2330
   8223SM     P10868   4.823   4.225   2.424  0.0039  0.4145  0.0019
   8223SM   O1310869   4.942   4.146   2.393 -0.6067  0.3315  0.2851
   8223SM   O1410870   4.793   4.343   2.340 -0.2930 -0.3027 -0.5617
   8223SM   O1110871   4.844   4.291   2.572 -0.0381  0.8401 -0.2867
   8223SM   O1210872   4.696   4.135   2.422  1.0429 -0.0256  0.1878
   8223SM   C1S10873   4.891   4.424   2.586  0.6348  0.8290  0.3514
   8223SM   H1S10874   4.818   4.496   2.543 -1.9991 -0.5920  2.1084
   8223SM   H1T10875   4.990   4.446   2.541 -0.1741  4.3802  0.0356
   8223SM    NF10876   4.884   4.599   2.754  0.1212  0.0684  0.2876
   8223SM   HNF10877   4.959   4.637   2.808  0.7466 -2.1300  1.0932
   8223SM   C2S10878   4.887   4.460   2.741 -0.4907  0.7580 -0.0925
   8223SM   H2S10879   4.795   4.412   2.781 -0.5578  1.8850  1.1977
   8223SM   C3S10880   4.999   4.393   2.813 -0.2478 -0.0092  0.4079
   8223SM   H3S10881   5.085   4.453   2.778 -0.4428  0.5832  0.9135
   8223SM    O310882   5.026   4.262   2.775  0.0133  0.1731  0.8465
   8223SM   HO310883   4.975   4.245   2.695  0.2358  2.8096  0.0461
   8223SM   C4S10884   4.999   4.410   2.967 -0.2392  0.3303 -0.5796
   8223SM   H4S10885   5.043   4.506   2.997  0.6501 -0.7630  1.9311
   8223SM   C5S10886   4.957   4.325   3.065  0.2803 -0.9989 -0.5967
   8223SM   H5S10887   4.910   4.229   3.041  0.3808 -1.3445  0.5068
   8223SM   C6S10888   4.953   4.361   3.214 -0.7621  0.5293  0.0496
   8223SM   H6S10889   5.021   4.296   3.273  0.3578  1.5130 -0.1106
   8223SM   H6T10890   4.853   4.327   3.250 -0.4376 -0.1349  0.3501
   8223SM   C7S10891   4.982   4.507   3.250  0.1432  0.0444  0.0954
   8223SM   H7S10892   4.925   4.583   3.192  0.9875 -0.1774 -1.0747
   8223SM   H7T10893   5.090   4.529   3.231 -0.1736  0.3119 -1.5371
   8223SM   C8S10894   4.970   4.536   3.399  0.2046 -1.1268 -0.1728
   8223SM   H8S10895   5.018   4.458   3.461 -2.8407 -2.7099  0.3777
   8223SM   H8T10896   4.863   4.522   3.423  0.5828 -2.8568  0.6617
   8223SM   C9S10897   5.004   4.675   3.449 -0.8185 -0.0991 -0.5040
   8223SM   H9S10898   4.922   4.733   3.402 -0.2514  0.0433 -1.3396
   8223SM   H9T10899   5.107   4.693   3.411 -0.7036  1.5071  0.4802
   8223SM  C10S10900   5.001   4.682   3.600  0.4337 -0.3544 -0.3054
   8223SM  H10S10901   5.059   4.773   3.624 -0.1281 -0.1698  0.3700
   8223SM  H10T10902   5.045   4.586   3.636  0.9047 -0.7895 -1.9793
   8223SM  C11S10903   4.859   4.695   3.670 -0.3848 -0.0494 -1.0660
   8223SM  H11S10904   4.792   4.613   3.635  1.3060 -2.4026  0.8452
   8223SM  H11T10905   4.818   4.797   3.656 -0.9884 -0.2737 -0.9512
   8223SM  C12S10906   4.874   4.677   3.820  0.0797 -1.0472  0.4481
   8223SM  H12S10907   4.954   4.746   3.855 -0.6560 -0.6226  1.3040
   8223SM  H12T10908   4.902   4.572   3.845  0.8166 -0.3388  2.8360
   8223SM  C13S10909   4.755   4.710   3.903 -0.3303  0.4220  0.3200
   8223SM  H13S10910   4.663   4.656   3.870  0.0480  0.2791 -0.5307
   8223SM  H13T10911   4.717   4.806   3.862 -1.5393 -0.2880 -0.2631
   8223SM  C14S10912   4.784   4.702   4.058  0.3753 -0.2487  0.5516
   8223SM  H14S10913   4.879   4.758   4.068  0.2766  0.2259 -0.8715
   8223SM  H14T10914   4.821   4.601   4.086  0.8786 -0.3461 -0.4252
   8223SM  C15S10915   4.675   4.771   4.137  0.2646  0.1601  0.0334
   8223SM  H15S10916   4.582   4.712   4.121 -0.4553  0.6780  2.0144
   8223SM  H15T10917   4.677   4.870   4.087  0.8891  0.1082 -0.0609
   8223SM  C16S10918   4.699   4.787   4.286 -0.0695  0.4778 -0.2858
   8223SM  H16S10919   4.627   4.858   4.334  1.1306  1.3173  0.3280
   8223SM  H16T10920   4.805   4.820   4.290  0.2077  0.0043 -2.3972
   8223SM  C17S10921   4.689   4.657   4.364  0.8258  0.3316  0.1697
   8223SM  H17S10922   4.746   4.565   4.336 -0.9144 -0.2585 -1.6575
   8223SM  H17T10923   4.584   4.622   4.364  1.3458 -1.3367  0.5429
   8223SM  C18S10924   4.731   4.693   4.509 -0.2482 -0.1739 -0.5841
   8223SM  H18S10925   4.838   4.722   4.504  0.0828 -0.9061  1.4698
   8223SM  H18T10926   4.726   4.620   4.592  0.4423  1.3663  0.8623
   8223SM  H18U10927   4.668   4.779   4.540  0.6657  0.5749 -0.7825
   8223SM   C1F10928   4.792   4.684   2.714  0.6730  0.3516 -0.2716
   8223SM    OF10929   4.691   4.646   2.657 -0.4946  0.0431  0.0262
   8223SM   C2F10930   4.805   4.824   2.752  0.0161 -0.5469 -0.5827
   8223SM   H2F10931   4.814   4.890   2.663  1.4546  2.6086  1.7243
   8223SM   H2G10932   4.901   4.831   2.807  0.9894 -3.1258 -1.8207
   8223SM   C3F10933   4.690   4.874   2.849  0.3072 -0.0994  0.2042
   8223SM   H3F10934   4.589   4.871   2.803  0.2634  0.2115  0.2855
   8223SM   H3G10935   4.706   4.982   2.865  2.3423 -0.4784  1.0013
   8223SM   C4F10936   4.704   4.814   2.986  0.2129  0.3076 -0.1542
   8223SM   H4F10937   4.807   4.831   3.025  0.1184 -1.0433  0.7724
   8223SM   H4G10938   4.685   4.704   2.985 -0.6479  0.4462  0.3927
   8223SM   C5F10939   4.601   4.886   3.079 -0.0330  0.6905  0.1882
   8223SM   H5F10940   4.501   4.859   3.039 -0.5340  3.9017 -0.9804
   8223SM   H5G10941   4.609   4.997   3.070 -2.0886  0.8558 -0.0887
   8223SM   C6F10942   4.632   4.854   3.228  0.2515 -0.2588 -0.5428
   8223SM   H6F10943   4.736   4.885   3.253  0.1199 -0.8091  0.7056
   8223SM   H6G10944   4.634   4.744   3.243  2.0940 -0.4765 -1.9190
   8223SM   C7F10945   4.527   4.910   3.328 -0.2197 -0.9216 -0.2619
   8223SM   H7F10946   4.429   4.859   3.329  0.4135 -2.1612 -0.3221
   8223SM   H7G10947   4.514   5.020   3.313 -1.6555 -1.2445 -1.5901
   8223SM   C8F10948   4.577   4.897   3.476  0.0922 -0.1380  0.1551
   8223SM   H8F10949   4.666   4.962   3.490  0.4688 -0.3165 -1.2179
   8223SM   H8G10950   4.590   4.791   3.506 -2.1927  0.1927  2.5615
   8223SM   C9F10951   4.474   4.952   3.576  0.0375  0.3609  0.1860
   8223SM   H9F10952   4.373   4.912   3.551 -1.4993  4.1298 -0.4113
   8223SM   H9G10953   4.467   5.062   3.563  0.7614  0.2077 -1.7903
   8223SM  C10F10954   4.502   4.930   3.724 -0.2929 -0.8235 -0.8730
   8223SM  H10F10955   4.577   5.001   3.764 -0.8731 -0.4220 -0.5040
   8223SM  H10G10956   4.543   4.827   3.738  1.2334 -0.0891  0.3274
   8223SM  C11F10957   4.380   4.954   3.814  0.3433 -0.4957  0.3371
   8223SM  H11F10958   4.298   4.889   3.777  0.7105 -0.6686 -0.1875
   8223SM  H11G10959   4.349   5.058   3.787 -0.4555 -1.0566 -1.0081
   8223SM  C12F10960   4.404   4.933   3.963  0.3145  0.6228  0.2001
   8223SM  H12F10961   4.495   4.986   3.997  1.2161 -0.6820 -0.0969
   8223SM  H12G10962   4.413   4.826   3.988 -1.3106  1.0040  2.7381
   8223SM  C13F10963   4.291   4.988   4.049  0.0149 -0.4867  0.2990
   8223SM  H13F10964   4.192   4.942   4.028  0.4001 -1.0163 -0.4130
   8223SM  H13G10965   4.271   5.095   4.031 -3.4827 -1.1462 -0.3364
   8223SM  C14F10966   4.330   4.981   4.199  0.4496 -0.2197 -0.1956
   8223SM  H14F10967   4.410   5.052   4.228 -0.4316  0.4055  0.8235
   8223SM  H14G10968   4.372   4.881   4.223 -0.2114 -0.0819  1.7961
   8223SM  C15F10969   4.216   5.002   4.294  0.4018 -0.0843  0.8665
   8223SM  H15F10970   4.139   4.923   4.281  0.3671 -0.0034  0.5689
   8223SM  H15G10971   4.161   5.098   4.279 -1.0905 -0.8187  1.4905
   8223SM  C16F10972   4.270   5.008   4.436 -0.0365  0.1665  0.0029
   8223SM  H16F10973   4.355   5.079   4.443  1.5403 -1.6318 -0.3328
   8223SM  H16G10974   4.305   4.906   4.460 -0.2482  0.1285  0.1520
   8223SM  C17F10975   4.165   5.049   4.543  0.9359  0.4463 -0.0286
   8223SM  H17F10976   4.084   4.973   4.550  1.0262  0.0684 -2.3100
   8223SM  H17G10977   4.116   5.146   4.519 -1.6110 -0.4736  1.0930
   8223SM  C18F10978   4.240   5.069   4.681  0.6247  0.1980  0.3628
   8223SM  H18F10979   4.315   5.151   4.671 -1.7611  2.6483  1.2934
   8223SM  H18G10980   4.296   4.977   4.705  2.8503  0.9029 -1.6331
   8223SM  C19F10981   4.151   5.092   4.805  0.7592 -1.1432 -0.4970
   8223SM  H19F10982   4.092   5.184   4.789  3.1560  1.1331  2.4430
   8223SM  H19G10983   4.228   5.123   4.879 -1.5729  1.3503  1.0883
   8223SM  C20F10984   4.070   4.974   4.860 -0.3569  0.3364 -0.8579
   8223SM  H20F10985   4.114   4.875   4.835 -1.4600 -0.1364 -0.9893
   8223SM  H20G10986   3.972   4.971   4.806 -0.1347 -2.7969 -1.3167
   8223SM  C21F10987   4.053   4.975   5.013  0.1842  0.5111  0.2430
   8223SM  H21F10988   3.945   4.968   5.036  0.2273  2.1464  1.0445
   8223SM  H21G10989   4.078   5.075   5.055 -2.6584  1.4329 -0.1080
   8223SM  C22F10990   4.116   4.857   5.092  0.2653 -0.1911  0.5246
   8223SM  H22F10991   4.222   4.846   5.061  0.4832  0.7782  0.8722
   8223SM  H22G10992   4.059   4.768   5.058 -2.5881  0.9191  2.0507
   8223SM  C23F10993   4.108   4.864   5.247  0.1273  0.6727 -0.4755
   8223SM  H23F10994   4.067   4.962   5.279  0.9159  0.5819  0.9075
   8223SM  H23G10995   4.210   4.857   5.291 -0.3610 -1.1492  0.4505
   8223SM  H23H10996   4.048   4.785   5.297  0.0352  1.1435  0.1749
   8323SM     N10997   3.625   5.031   2.428  0.8816 -0.1175  0.3221
   8323SM   C1510998   3.622   5.146   2.331  0.1559 -0.2525 -0.1190
   8323SM  H15A10999   3.725   5.174   2.317  0.6476 -2.4508 -1.4642
   8323SM  H15B11000   3.561   5.232   2.354  2.0032  1.3315 -0.9243
   8323SM  H15C11001   3.591   5.098   2.239  2.2718 -4.2925  1.0121
   8323SM   C1411002   3.488   4.980   2.432  0.9159  0.1182 -0.1552
   8323SM  H14A11003   3.459   4.939   2.337  0.0445 -0.3701  0.3158
   8323SM  H14B11004   3.411   5.052   2.453 -0.1552 -0.7288 -1.0797
   8323SM  H14C11005   3.469   4.913   2.514 -0.5640  1.5333  0.7342
   8323SM   C1311006   3.728   4.923   2.384 -0.2055  0.2864 -0.0345
   8323SM  H13A11007   3.704   4.898   2.281  2.5776  0.0486 -0.7229
   8323SM  H13B11008   3.735   4.836   2.448 -0.5149  0.0580 -0.3092
   8323SM  H13C11009   3.824   4.973   2.378 -0.1696  0.0688 -2.3335
   8323SM   C1211010   3.663   5.074   2.570 -0.8549  0.3381 -0.3326
   8323SM  H12A11011   3.672   4.984   2.628  2.4751  0.1096 -0.9704
   8323SM  H12B11012   3.589   5.132   2.622 -2.3335 -2.7744  1.3094
   8323SM   C1111013   3.794   5.153   2.578 -0.2989 -0.0829 -1.0480
   8323SM  H11A11014   3.784   5.183   2.684 -1.3653 -0.6099 -0.9857
   8323SM  H11B11015   3.788   5.243   2.514  2.8057  1.2451  0.3313
   8323SM     P11016   4.047   5.115   2.607  0.3025 -0.6226  0.2742
   8323SM   O1311017   4.145   5.005   2.582 -0.2861  0.2378  0.2061
   8323SM   O1411018   4.080   5.256   2.564  0.0079  0.3958  0.0558
   8323SM   O1111019   4.019   5.131   2.766 -0.1850 -0.0057  0.4453
   8323SM   O1211020   3.912   5.082   2.542 -0.1178  0.0530  0.1792
   8323SM   C1S11021   4.001   5.010   2.841 -0.0450 -0.5511 -0.6011
   8323SM   H1S11022   4.101   4.962   2.847  0.6481  0.6918 -1.6867
   8323SM   H1T11023   3.924   4.943   2.798  0.1591 -0.6029 -0.8830
   8323SM    NF11024   3.974   4.924   3.067  0.5573  0.1920  0.2812
   8323SM   HNF11025   3.896   4.862   3.074  0.6626  0.1158  0.7763
   8323SM   C2S11026   3.957   5.044   2.987  0.0778  0.3399 -0.4908
   8323SM   H2S11027   4.023   5.121   3.032 -0.8069  0.8962 -0.0978
   8323SM   C3S11028   3.821   5.116   2.999 -0.2720 -0.9458  0.4808
   8323SM   H3S11029   3.746   5.059   2.940  1.6435 -1.8969 -1.1802
   8323SM    O311030   3.812   5.250   2.951 -0.1156 -0.5115 -0.5813
   8323SM   HO311031   3.874   5.255   2.877  2.5933  2.1964  1.6091
   8323SM   C4S11032   3.779   5.127   3.139  0.3558  0.1257  0.3829
   8323SM   H4S11033   3.861   5.153   3.207 -0.2138  0.4534  0.9440
   8323SM   C5S11034   3.659   5.114   3.200 -1.4141 -0.0648  0.0823
   8323SM   H5S11035   3.564   5.108   3.144 -0.8158 -0.4914 -0.8990
   8323SM   C6S11036   3.641   5.128   3.352  0.1251 -0.3398  0.0717
   8323SM   H6S11037   3.659   5.028   3.397 -1.6024 -0.9440 -0.4967
   8323SM   H6T11038   3.538   5.160   3.381  0.7222  0.5540  1.3098
   8323SM   C7S11039   3.733   5.222   3.446  0.0292 -0.2781  0.2029
   8323SM   H7S11040   3.722   5.330   3.419  0.1428 -0.4899 -0.7298
   8323SM   H7T11041   3.838   5.194   3.423  0.2321 -0.3011  1.1084
   8323SM   C8S11042   3.711   5.199   3.598  0.3234  0.4722 -0.2943
   8323SM   H8S11043   3.731   5.091   3.614 -0.8737 -0.0668 -2.1179
   8323SM   H8T11044   3.601   5.211   3.605  0.3443  0.4601  0.0507
   8323SM   C9S11045   3.789   5.281   3.700 -0.2030  0.1760 -0.2165
   8323SM   H9S11046   3.763   5.384   3.668 -0.8625 -0.0085 -0.2873
   8323SM   H9T11047   3.894   5.255   3.675  0.5792 -0.5195  3.2732
   8323SM  C10S11048   3.746   5.260   3.844 -0.2231 -0.4726 -0.0233
   8323SM  H10S11049   3.730   5.156   3.879 -0.1242 -0.2369  0.7560
   8323SM  H10T11050   3.654   5.322   3.842 -0.3422 -0.6627 -0.8954
   8323SM  C11S11051   3.857   5.319   3.935 -0.5722 -0.1165  0.0080
   8323SM  H11S11052   3.876   5.425   3.908 -0.6377  0.0544  0.5995
   8323SM  H11T11053   3.952   5.269   3.908 -0.8289  0.4410 -2.0488
   8323SM  C12S11054   3.839   5.309   4.085 -0.0383 -0.1452 -0.2712
   8323SM  H12S11055   3.801   5.206   4.103  1.8134 -0.9110 -0.4924
   8323SM  H12T11056   3.762   5.381   4.120  1.3685  0.9575  0.6456
   8323SM  C13S11057   3.963   5.334   4.175 -0.1158 -0.7613 -0.5303
   8323SM  H13S11058   4.041   5.258   4.152 -0.2591 -0.1885 -3.3007
   8323SM  H13T11059   3.935   5.337   4.282  1.8268  0.9369 -0.0092
   8323SM  C14S11060   4.022   5.472   4.160  0.2047 -0.1592  0.1809
   8323SM  H14S11061   3.940   5.548   4.161 -1.6124 -1.8635 -2.7415
   8323SM  H14T11062   4.074   5.479   4.061  0.7583 -1.7322  0.3422
   8323SM  C15S11063   4.136   5.508   4.260  0.1854  0.4097  0.3664
   8323SM  H15S11064   4.097   5.539   4.360  0.0160 -1.3995  0.8957
   8323SM  H15T11065   4.178   5.600   4.213  2.0572 -0.0441  1.0595
   8323SM  C16S11066   4.252   5.416   4.279 -0.1613  0.3347  0.1534
   8323SM  H16S11067   4.281   5.357   4.189 -1.2626 -0.2007  0.1331
   8323SM  H16T11068   4.230   5.354   4.369  3.2434  0.7207  1.4010
   8323SM  C17S11069   4.388   5.478   4.331  0.3745 -0.2476 -0.5552
   8323SM  H17S11070   4.374   5.525   4.431 -0.8461 -1.1134 -0.2975
   8323SM  H17T11071   4.414   5.567   4.269  1.9042 -0.6506 -0.5439
   8323SM  C18S11072   4.504   5.374   4.325  0.5315  0.3092  0.0416
   8323SM  H18S11073   4.591   5.415   4.382  0.4655 -0.9199  1.0998
   8323SM  H18T11074   4.536   5.350   4.221  2.0548 -0.4176  0.6290
   8323SM  H18U11075   4.475   5.286   4.387  0.8634  0.8362  0.9740
   8323SM   C1F11076   4.097   4.875   3.095 -0.3595  0.0457  0.5359
   8323SM    OF11077   4.199   4.932   3.056  0.1846 -0.0855 -0.5506
   8323SM   C2F11078   4.096   4.745   3.180  0.1578  0.3444 -0.1792
   8323SM   H2F11079   4.197   4.700   3.190 -1.1580 -2.7643  0.2383
   8323SM   H2G11080   4.037   4.673   3.118  0.1880  1.5088 -1.6291
   8323SM   C3F11081   4.022   4.766   3.315 -0.7447  0.4418 -0.1676
   8323SM   H3F11082   3.990   4.670   3.362  0.5355  0.2981  0.4705
   8323SM   H3G11083   3.941   4.840   3.301 -0.4859  0.8839  0.5744
   8323SM   C4F11084   4.128   4.821   3.409  0.6326  0.3229 -1.0019
   8323SM   H4F11085   4.157   4.925   3.385 -0.5250  0.6347 -1.0766
   8323SM   H4G11086   4.220   4.758   3.410  0.1859 -0.3770  1.2939
   8323SM   C5F11087   4.077   4.822   3.556 -0.3743 -0.0523 -0.4055
   8323SM   H5F11088   4.166   4.851   3.616  0.1516  0.5842 -1.4601
   8323SM   H5G11089   4.049   4.719   3.585 -1.1025  0.5338  1.0456
   8323SM   C6F11090   3.975   4.929   3.594  0.3356 -0.3403 -0.3448
   8323SM   H6F11091   3.877   4.902   3.551  0.2499 -2.1674  0.9174
   8323SM   H6G11092   4.009   5.023   3.544  3.1290 -1.1817 -0.2077
   8323SM   C7F11093   3.965   4.952   3.747 -0.1355 -0.1531  0.0483
   8323SM   H7F11094   3.919   5.047   3.781 -0.0054 -0.5215  1.3103
   8323SM   H7G11095   4.071   4.947   3.782  0.5810  0.4375 -1.9029
   8323SM   C8F11096   3.874   4.849   3.819 -0.8502 -0.1176 -0.7227
   8323SM   H8F11097   3.916   4.752   3.785  2.8496  1.1305 -0.1322
   8323SM   H8G11098   3.770   4.855   3.780 -0.7138  0.1360 -1.0510
   8323SM   C9F11099   3.884   4.876   3.972 -0.1104  0.2848 -0.1244
   8323SM   H9F11100   3.862   4.984   3.990 -1.5977  0.1577 -1.0328
   8323SM   H9G11101   3.985   4.847   4.007 -0.0729  0.2749 -0.2405
   8323SM  C10F11102   3.775   4.795   4.052 -0.5124 -0.5360 -0.7176
   8323SM  H10F11103   3.775   4.691   4.013  0.9517 -0.8099 -0.0121
   8323SM  H10G11104   3.680   4.845   4.022  0.5120  0.8125 -1.8158
   8323SM  C11F11105   3.799   4.812   4.204 -0.1140  0.1557  0.2174
   8323SM  H11F11106   3.894   4.762   4.232  0.1137 -1.1330 -2.5027
   8323SM  H11G11107   3.724   4.761   4.268  0.2631 -0.4953  0.1442
   8323SM  C12F11108   3.812   4.963   4.247  0.1017 -0.6820 -0.2754
   8323SM  H12F11109   3.735   5.028   4.201 -0.3631 -0.1036  1.2597
   8323SM  H12G11110   3.906   4.997   4.199 -0.9732  0.8264 -1.3887
   8323SM  C13F11111   3.817   5.003   4.396  0.7891  0.1258  0.0577
   8323SM  H13F11112   3.845   5.109   4.413  2.8673 -0.2071 -0.9597
   8323SM  H13G11113   3.900   4.943   4.440  0.3130 -2.7091 -2.5558
   8323SM  C14F11114   3.697   4.964   4.482  0.0568 -0.4309  0.1559
   8323SM  H14F11115   3.669   4.858   4.464  0.5745 -0.4048 -0.9020
   8323SM  H14G11116   3.612   5.034   4.465  0.2637 -0.4953 -1.2925
   8323SM  C15F11117   3.723   4.980   4.630 -0.6297  0.0685 -0.1545
   8323SM  H15F11118   3.762   5.081   4.655  1.9362 -1.3401  2.0917
   8323SM  H15G11119   3.800   4.907   4.662  0.5450  1.2179 -0.3023
   8323SM  C16F11120   3.595   4.949   4.714  0.3368  0.4993  0.6497
   8323SM  H16F11121   3.544   4.855   4.684 -2.4274  2.3389 -0.8697
   8323SM  H16G11122   3.522   5.030   4.695 -1.2457 -0.4908  2.1872
   8323SM  C17F11123   3.623   4.949   4.867 -0.0633 -0.7315 -0.5004
   8323SM  H17F11124   3.682   5.040   4.894 -1.1835 -0.7860  2.4618
   8323SM  H17G11125   3.676   4.852   4.877  0.4967 -0.5684 -1.6856
   8323SM  C18F11126   3.509   4.970   4.967 -0.0706  0.6044  0.3065
   8323SM  H18F11127   3.429   4.896   4.950 -1.3616  0.9857  3.8697
   8323SM  H18G11128   3.460   5.068   4.949 -3.3023 -0.9859 -0.1411
   8323SM  C19F11129   3.553   4.970   5.114 -0.2357  0.1947  0.8044
   8323SM  H19F11130   3.466   4.996   5.179 -0.6090 -1.6332  1.0890
   8323SM  H19G11131   3.635   5.041   5.138  1.2064 -1.4878  1.0921
   8323SM  C20F11132   3.606   4.829   5.156 -0.1645  0.5087  0.4648
   8323SM  H20F11133   3.697   4.815   5.094 -0.5551 -2.7230  0.4642
   8323SM  H20G11134   3.537   4.745   5.132 -1.4013  1.1136  1.7566
   8323SM  C21F11135   3.638   4.806   5.303  0.6362 -0.0039  0.0601
   8323SM  H21F11136   3.715   4.880   5.332  0.8288  0.7957 -2.2244
   8323SM  H21G11137   3.692   4.711   5.318  0.0990 -0.9352 -3.0358
   8323SM  C22F11138   3.516   4.815   5.397 -0.1976 -0.4797  0.3360
   8323SM  H22F11139   3.468   4.911   5.367  3.2229  1.1412 -0.5318
   8323SM  H22G11140   3.554   4.823   5.501  0.8564  3.1216 -0.1657
   8323SM  C23F11141   3.410   4.701   5.376 -0.5225 -0.2824 -0.4482
   8323SM  H23F11142   3.468   4.606   5.373  1.7402  1.0527 -0.8701
   8323SM  H23G11143   3.356   4.715   5.280 -2.5581 -1.4627  0.4491
   8323SM  H23H11144   3.335   4.699   5.458  0.1314 -1.3541  0.1500
   8423SM     N11145   4.826   2.271   2.714  0.4879 -0.0828 -0.4078
   8423SM   C1511146   4.882   2.131   2.734 -0.1060  0.1564 -0.1752
   8423SM  H15A11147   4.918   2.118   2.835  0.2146  0.9263 -0.1823
   8423SM  H15B11148   4.954   2.116   2.655 -0.1816 -2.1945  0.1450
   8423SM  H15C11149   4.811   2.054   2.706  1.4909 -1.4030 -0.0613
   8423SM   C1411150   4.930   2.376   2.731 -0.5498  0.1616 -0.1228
   8423SM  H14A11151   5.001   2.359   2.651 -0.9751 -0.5075 -0.3728
   8423SM  H14B11152   4.972   2.378   2.830 -0.7279  1.6882 -0.0538
   8423SM  H14C11153   4.898   2.474   2.699 -1.7182  0.1674  0.9882
   8423SM   C1311154   4.776   2.288   2.575  0.6809  0.1659  0.5362
   8423SM  H13A11155   4.731   2.386   2.571  0.3525  0.1164  2.3008
   8423SM  H13B11156   4.706   2.211   2.544  3.0819 -1.2995 -1.7028
   8423SM  H13C11157   4.859   2.275   2.507 -1.7510 -1.0454 -2.4590
   8423SM   C1211158   4.716   2.290   2.814 -0.6573 -0.1288  0.4211
   8423SM  H12A11159   4.680   2.390   2.796  0.1569  0.3483  1.3924
   8423SM  H12B11160   4.757   2.287   2.914  1.1051 -0.6723 -0.2787
   8423SM   C1111161   4.585   2.211   2.817  0.3007 -0.5663 -0.0541
   8423SM  H11A11162   4.518   2.254   2.895  0.1628 -1.8022  0.5274
   8423SM  H11B11163   4.606   2.106   2.845  2.0838 -1.1491 -3.1205
   8423SM     P11164   4.421   2.317   2.641  0.0323 -0.3319  0.0277
   8423SM   O1311165   4.459   2.453   2.694 -0.4716  0.1270  0.6002
   8423SM   O1411166   4.419   2.305   2.494 -0.3110 -0.0631  0.3804
   8423SM   O1111167   4.278   2.279   2.695  0.0164  0.1881  0.4299
   8423SM   O1211168   4.519   2.214   2.694 -0.4179 -0.3804 -0.1447
   8423SM   C1S11169   4.239   2.162   2.769  1.0181 -0.7011  0.5627
   8423SM   H1S11170   4.315   2.083   2.752  0.2344 -1.0736 -1.4765
   8423SM   H1T11171   4.143   2.126   2.727  1.1355 -0.1866 -0.1727
   8423SM    NF11172   4.153   2.062   2.970  0.9334  0.5156  0.4227
   8423SM   HNF11173   4.056   2.040   2.971  1.6378 -4.2259 -2.6334
   8423SM   C2S11174   4.196   2.182   2.918 -0.4015 -0.1502 -0.5838
   8423SM   H2S11175   4.290   2.207   2.972 -1.9324  0.5853  1.9063
   8423SM   C3S11176   4.096   2.293   2.935 -0.6198  0.2627  0.3029
   8423SM   H3S11177   4.001   2.278   2.877 -1.1736 -0.5019  1.3746
   8423SM    O311178   4.149   2.414   2.887  0.4801 -0.2374  0.3185
   8423SM   HO311179   4.211   2.410   2.814  0.2247 -0.3259  0.1052
   8423SM   C4S11180   4.056   2.309   3.071  0.1238  0.0134 -0.4982
   8423SM   H4S11181   4.003   2.226   3.119 -0.3645  0.5106 -0.1689
   8423SM   C5S11182   4.079   2.418   3.151  0.6931  0.2166  0.6533
   8423SM   H5S11183   4.127   2.509   3.111  0.2409 -0.1520 -0.8187
   8423SM   C6S11184   4.025   2.427   3.286 -0.4147  0.0906 -0.4205
   8423SM   H6S11185   3.969   2.337   3.320 -0.9049 -0.4257 -2.4731
   8423SM   H6T11186   3.957   2.514   3.285 -0.0883  0.3953  1.2489
   8423SM   C7S11187   4.139   2.448   3.381 -0.0455 -0.1073  0.5231
   8423SM   H7S11188   4.197   2.542   3.366 -1.3154  0.7130  0.5514
   8423SM   H7T11189   4.203   2.359   3.366  0.9593  0.9165 -1.4956
   8423SM   C8S11190   4.094   2.423   3.530 -0.5262  0.6322 -0.3869
   8423SM   H8S11191   4.017   2.344   3.533  1.0256 -0.9463 -0.2463
   8423SM   H8T11192   4.045   2.515   3.567 -0.1088  1.0128 -0.7622
   8423SM   C9S11193   4.216   2.399   3.621 -1.2821  0.3921  0.2840
   8423SM   H9S11194   4.273   2.494   3.628  0.6665 -0.6842 -0.1156
   8423SM   H9T11195   4.288   2.330   3.572 -0.6605  2.2736 -1.5819
   8423SM  C10S11196   4.180   2.335   3.754  1.1950  0.5954 -0.3622
   8423SM  H10S11197   4.124   2.241   3.735 -0.6108  1.3053  1.1136
   8423SM  H10T11198   4.108   2.402   3.805  1.6033  0.8015 -0.0496
   8423SM  C11S11199   4.304   2.300   3.849 -0.4323 -0.7377 -0.1786
   8423SM  H11S11200   4.373   2.387   3.857  2.3784 -2.9509  1.1413
   8423SM  H11T11201   4.367   2.225   3.797  1.3519 -0.6154  1.7075
   8423SM  C12S11202   4.259   2.250   3.989  0.1056 -0.6012  0.6968
   8423SM  H12S11203   4.180   2.173   3.977 -0.3934  0.0255 -0.2029
   8423SM  H12T11204   4.220   2.341   4.040  1.4502  1.7603 -2.1734
   8423SM  C13S11205   4.368   2.189   4.069 -0.5813 -0.3540  0.1537
   8423SM  H13S11206   4.436   2.274   4.089 -2.2493  0.9807  0.3437
   8423SM  H13T11207   4.419   2.114   4.004 -0.3979  0.2851 -0.4543
   8423SM  C14S11208   4.319   2.115   4.192 -0.5170 -0.2614 -0.2535
   8423SM  H14S11209   4.229   2.054   4.167  0.6719 -1.7323 -1.1299
   8423SM  H14T11210   4.287   2.188   4.269  0.4653 -0.2588  0.1526
   8423SM  C15S11211   4.425   2.026   4.263 -0.1322  0.7684 -0.2119
   8423SM  H15S11212   4.474   1.958   4.189 -1.3028 -0.0748 -0.2312
   8423SM  H15T11213   4.379   1.944   4.320  1.1824 -0.4796 -0.8817
   8423SM  C16S11214   4.540   2.089   4.353  0.1256  0.8355  0.7226
   8423SM  H16S11215   4.491   2.158   4.425 -2.8415 -0.1823 -0.1636
   8423SM  H16T11216   4.604   2.145   4.282 -0.0013 -0.8389 -0.7866
   8423SM  C17S11217   4.620   1.981   4.434  0.0030 -0.2772  0.3632
   8423SM  H17S11218   4.651   1.907   4.357  0.2387  0.9750 -0.7792
   8423SM  H17T11219   4.538   1.941   4.497 -0.5963 -0.2927 -0.4038
   8423SM  C18S11220   4.745   2.044   4.504  0.0503 -0.5537 -0.2782
   8423SM  H18S11221   4.715   2.112   4.586 -0.5456 -2.0591  0.7943
   8423SM  H18T11222   4.804   2.105   4.432 -1.1043  1.6488  0.5397
   8423SM  H18U11223   4.801   1.956   4.543 -0.2288 -0.7823 -0.3905
   8423SM   C1F11224   4.240   1.973   3.009  0.2376 -0.0066 -0.1053
   8423SM    OF11225   4.358   1.979   2.972 -0.0083  0.1856 -0.0756
   8423SM   C2F11226   4.188   1.866   3.091  0.0837 -0.3542 -0.1415
   8423SM   H2F11227   4.224   1.769   3.051  0.4767 -0.1154 -0.3679
   8423SM   H2G11228   4.079   1.862   3.068  0.5108 -0.5165 -2.4018
   8423SM   C3F11229   4.231   1.882   3.236 -0.2587  1.5034  0.0687
   8423SM   H3F11230   4.341   1.879   3.246 -0.1624  0.5497 -1.0624
   8423SM   H3G11231   4.202   1.786   3.284  0.1613  0.7981 -1.0388
   8423SM   C4F11232   4.180   2.003   3.312 -0.1876  0.1980 -0.0394
   8423SM   H4F11233   4.087   2.046   3.268 -1.8023 -1.2338  1.7974
   8423SM   H4G11234   4.253   2.086   3.301 -1.9825  1.9333  0.5940
   8423SM   C5F11235   4.148   1.982   3.461  0.4320 -0.7513  0.0053
   8423SM   H5F11236   4.060   1.917   3.477 -0.1365 -0.1986 -0.8271
   8423SM   H5G11237   4.124   2.079   3.511 -0.3609 -0.5638 -0.7314
   8423SM   C6F11238   4.263   1.915   3.531  0.6695  0.4136 -0.6008
   8423SM   H6F11239   4.357   1.970   3.508  0.9780  0.6037  1.0019
   8423SM   H6G11240   4.276   1.812   3.492  1.1890  0.3519 -0.2819
   8423SM   C7F11241   4.244   1.909   3.686 -1.1203 -0.4901 -0.6179
   8423SM   H7F11242   4.143   1.881   3.722 -0.1456 -0.3225  2.6195
   8423SM   H7G11243   4.259   2.009   3.732  1.3648 -1.3564  0.6784
   8423SM   C8F11244   4.354   1.818   3.751 -0.6393 -0.3981  0.2442
   8423SM   H8F11245   4.456   1.856   3.729 -1.4208  0.8970 -1.3493
   8423SM   H8G11246   4.350   1.723   3.694 -0.4272  0.5333 -1.4119
   8423SM   C9F11247   4.338   1.793   3.899  0.3255 -0.0035  0.1672
   8423SM   H9F11248   4.242   1.737   3.904 -0.6535  1.7229  3.1891
   8423SM   H9G11249   4.330   1.880   3.967  2.0963 -1.3331  2.2403
   8423SM  C10F11250   4.455   1.712   3.955  0.2603  0.4111 -0.0321
   8423SM  H10F11251   4.548   1.772   3.955  1.1061 -0.8689  0.4499
   8423SM  H10G11252   4.462   1.619   3.895  0.8216  0.8236 -0.6159
   8423SM  C11F11253   4.421   1.671   4.101 -0.2378  0.1345  0.6666
   8423SM  H11F11254   4.315   1.637   4.097 -1.0136  2.4852 -1.7636
   8423SM  H11G11255   4.422   1.764   4.161 -0.2499  0.3667  0.3105
   8423SM  C12F11256   4.510   1.565   4.169  0.2901  0.8001  0.5799
   8423SM  H12F11257   4.616   1.597   4.168  0.3597  1.0912  4.4927
   8423SM  H12G11258   4.513   1.469   4.112 -0.0708  1.9623 -1.5048
   8423SM  C13F11259   4.460   1.533   4.304  0.7045 -0.2915 -1.1952
   8423SM  H13F11260   4.353   1.508   4.292  1.0638 -1.8295 -1.3935
   8423SM  H13G11261   4.462   1.622   4.371  0.0401 -0.6164 -0.7382
   8423SM  C14F11262   4.550   1.442   4.391  0.6547  0.3356  0.3745
   8423SM  H14F11263   4.581   1.355   4.328 -0.4164 -0.3782  0.7881
   8423SM  H14G11264   4.485   1.400   4.471 -1.5968  1.4606 -0.7769
   8423SM  C15F11265   4.675   1.498   4.449 -1.4436 -0.4666  0.7439
   8423SM  H15F11266   4.657   1.598   4.496  1.9221 -0.0446  1.3387
   8423SM  H15G11267   4.747   1.503   4.365  0.0483 -0.7458  1.9585
   8423SM  C16F11268   4.733   1.404   4.557 -0.1098 -0.6148 -0.3151
   8423SM  H16F11269   4.840   1.426   4.577 -0.5222  1.6077 -0.3322
   8423SM  H16G11270   4.742   1.304   4.508  0.6303  0.1318 -1.7615
   8423SM  C17F11271   4.656   1.392   4.685 -0.3889  0.3352 -0.0603
   8423SM  H17F11272   4.546   1.386   4.675 -0.4969 -0.9867  1.4668
   8423SM  H17G11273   4.671   1.491   4.734 -0.0515  1.1890 -1.7940
   8423SM  C18F11274   4.692   1.260   4.759  0.3658  0.0914 -0.3198
   8423SM  H18F11275   4.632   1.180   4.711  0.1221 -0.6640  1.1829
   8423SM  H18G11276   4.657   1.260   4.865  0.2389  2.5571 -0.3047
   8423SM  C19F11277   4.837   1.216   4.753  0.2694 -0.6023 -0.0582
   8423SM  H19F11278   4.901   1.301   4.787 -1.2701  0.7051 -0.2969
   8423SM  H19G11279   4.859   1.185   4.648  0.9668  0.8263 -0.3602
   8423SM  C20F11280   4.879   1.094   4.836 -0.1407  0.1674 -0.7758
   8423SM  H20F11281   4.983   1.066   4.810  1.0726  0.4994  3.0923
   8423SM  H20G11282   4.823   1.006   4.799  1.1509 -0.9610 -0.1470
   8423SM  C21F11283   4.863   1.102   4.985 -0.3037  0.0186 -0.0940
   8423SM  H21F11284   4.895   1.009   5.036  0.6677 -0.8218 -2.1374
   8423SM  H21G11285   4.753   1.102   5.000 -0.1188  0.6658  1.4649
   8423SM  C22F11286   4.919   1.223   5.058  0.0671  0.2117 -0.4020
   8423SM  H22F11287   4.889   1.212   5.164  1.1056  0.9286 -0.0121
   8423SM  H22G11288   4.865   1.311   5.016 -0.2129  0.4272  0.4033
   8423SM  C23F11289   5.069   1.227   5.055 -0.0476 -0.1086 -0.0431
   8423SM  H23F11290   5.103   1.323   5.099  0.4613  0.7142 -2.1174
   8423SM  H23G11291   5.102   1.222   4.949 -1.5816 -0.3682 -0.5376
   8423SM  H23H11292   5.115   1.136   5.100  1.0488 -0.3557 -1.5449
   8523SM     N11293   6.326   3.402   2.390  0.6029  0.2097  0.0188
   8523SM   C1511294   6.239   3.498   2.314 -1.0863  0.7824  0.2859
   8523SM  H15A11295   6.194   3.553   2.395  0.1049 -2.7830  3.7077
   8523SM  H15B11296   6.162   3.454   2.252  1.1474 -2.5199 -0.4463
   8523SM  H15C11297   6.296   3.563   2.249  0.7714 -1.5621 -0.6220
   8523SM   C1411298   6.406   3.326   2.290 -0.4113  0.0723  0.0976
   8523SM  H14A11299   6.465   3.246   2.331 -1.3861 -0.5465  0.3518
   8523SM  H14B11300   6.477   3.394   2.245  1.0035 -0.5084  1.4042
   8523SM  H14C11301   6.344   3.283   2.212  1.3323 -1.5484 -0.4714
   8523SM   C1311302   6.431   3.466   2.473 -0.1230  0.2687 -0.8121
   8523SM  H13A11303   6.490   3.536   2.417 -1.9326  3.4214  0.9391
   8523SM  H13B11304   6.495   3.396   2.524 -0.6454  0.0551 -0.4325
   8523SM  H13C11305   6.384   3.522   2.553 -0.5674  0.6009 -1.2976
   8523SM   C1211306   6.237   3.310   2.475  0.0885  0.4148 -0.5855
   8523SM  H12A11307   6.282   3.212   2.482 -1.0062 -0.2581 -2.3643
   8523SM  H12B11308   6.154   3.282   2.413  0.0300  0.2336 -0.4304
   8523SM   C1111309   6.196   3.350   2.618  0.2600 -0.2814 -0.2433
   8523SM  H11A11310   6.286   3.374   2.678  0.2037  0.0690 -0.2928
   8523SM  H11B11311   6.150   3.258   2.661  2.3127 -0.1020  2.6314
   8523SM     P11312   5.951   3.455   2.648 -0.0206 -0.0618  0.5179
   8523SM   O1311313   5.899   3.593   2.637  0.0079  0.3566 -0.3830
   8523SM   O1411314   5.882   3.367   2.551  0.4574 -0.0886  0.0319
   8523SM   O1111315   5.945   3.389   2.792 -0.5090  0.0212 -0.2339
   8523SM   O1211316   6.106   3.456   2.613 -0.2594  0.1642 -0.8323
   8523SM   C1S11317   6.027   3.432   2.900 -0.2908  0.0195 -0.1674
   8523SM   H1S11318   6.058   3.539   2.896  0.3910 -0.1653 -0.0526
   8523SM   H1T11319   6.112   3.362   2.917 -1.3372 -1.5411 -1.0919
   8523SM    NF11320   6.027   3.496   3.133  0.1504 -0.1476  0.4476
   8523SM   HNF11321   6.099   3.444   3.177  0.6787 -1.1553 -1.4814
   8523SM   C2S11322   5.951   3.423   3.038 -0.8585  0.5320  0.1806
   8523SM   H2S11323   5.855   3.477   3.027 -1.8965 -0.9051  1.6314
   8523SM   C3S11324   5.925   3.271   3.067  0.7716  0.6272 -0.6825
   8523SM   H3S11325   6.018   3.210   3.066 -2.3057 -4.7126 -1.3819
   8523SM    O311326   5.842   3.207   2.967  0.8753  0.4310  0.1392
   8523SM   HO311327   5.843   3.273   2.898  0.3141  1.5659  1.1641
   8523SM   C4S11328   5.856   3.249   3.197  0.0270  0.7783 -0.6727
   8523SM   H4S11329   5.753   3.284   3.212  0.0344  0.8781 -0.8479
   8523SM   C5S11330   5.916   3.198   3.309  0.4083 -0.7202  0.0445
   8523SM   H5S11331   6.019   3.160   3.309  0.4079 -0.9511  3.0948
   8523SM   C6S11332   5.862   3.185   3.443  1.2407  0.1186  0.0146
   8523SM   H6S11333   5.916   3.240   3.522 -1.3176  0.9592  1.2879
   8523SM   H6T11334   5.880   3.076   3.459 -0.9493 -0.5073 -1.2816
   8523SM   C7S11335   5.709   3.210   3.462  0.0876  0.0691  0.3291
   8523SM   H7S11336   5.645   3.155   3.390  0.2611  0.2298  0.0464
   8523SM   H7T11337   5.687   3.318   3.447 -1.3118 -0.4749 -2.0235
   8523SM   C8S11338   5.658   3.171   3.610 -0.7560 -0.3272 -0.1169
   8523SM   H8S11339   5.564   3.227   3.632  0.1412  1.5545 -0.8281
   8523SM   H8T11340   5.732   3.218   3.678 -1.5059  1.4935 -0.4825
   8523SM   C9S11341   5.653   3.025   3.631 -0.0990  0.9124  0.0088
   8523SM   H9S11342   5.749   2.968   3.631 -1.1386 -0.9172 -0.1011
   8523SM   H9T11343   5.588   2.973   3.557  2.2056 -0.4606 -1.1764
   8523SM  C10S11344   5.612   2.991   3.782  0.0687 -0.1563 -0.6992
   8523SM  H10S11345   5.598   2.881   3.792  0.4149 -0.1388  0.0453
   8523SM  H10T11346   5.507   3.024   3.795 -0.8728 -2.6094 -1.4828
   8523SM  C11S11347   5.715   3.042   3.881 -0.2789 -0.1242 -0.2237
   8523SM  H11S11348   5.691   2.996   3.979 -1.7326  1.7073  0.3318
   8523SM  H11T11349   5.690   3.149   3.898  1.5878  0.0920  1.4316
   8523SM  C12S11350   5.863   3.023   3.850 -0.5980 -0.0640  0.1008
   8523SM  H12S11351   5.889   3.080   3.759 -0.7517 -0.8280 -0.4352
   8523SM  H12T11352   5.900   2.918   3.848 -0.6784 -0.1381  1.3056
   8523SM  C13S11353   5.953   3.075   3.966  0.8058  0.3118  0.2480
   8523SM  H13S11354   5.937   3.014   4.057  0.2127 -1.0434 -0.7255
   8523SM  H13T11355   5.918   3.178   3.990 -0.8691 -0.3339  0.7149
   8523SM  C14S11356   6.104   3.082   3.919  0.8840 -0.2338 -0.6655
   8523SM  H14S11357   6.162   3.130   4.001  2.8452 -0.0438 -2.1080
   8523SM  H14T11358   6.115   3.162   3.843 -2.4473  1.1194  0.0730
   8523SM  C15S11359   6.166   2.952   3.875 -0.3829 -0.4251  0.3244
   8523SM  H15S11360   6.103   2.920   3.789 -2.0969  0.6574  1.1337
   8523SM  H15T11361   6.157   2.873   3.953  2.0822 -0.9827  0.1358
   8523SM  C16S11362   6.316   2.969   3.829 -0.1890 -0.6077 -0.4049
   8523SM  H16S11363   6.318   3.040   3.743 -0.8615  0.1715  0.2013
   8523SM  H16T11364   6.333   2.871   3.780 -1.7901 -0.7347 -0.7752
   8523SM  C17S11365   6.420   2.997   3.940 -0.7827 -0.2077  0.1848
   8523SM  H17S11366   6.453   2.898   3.978 -3.2494 -1.2169 -0.1032
   8523SM  H17T11367   6.375   3.051   4.026  0.4070  1.5498 -0.2524
   8523SM  C18S11368   6.539   3.080   3.898  0.1513 -0.5472  0.1797
   8523SM  H18S11369   6.489   3.170   3.855 -1.0774 -0.9167  0.7952
   8523SM  H18T11370   6.593   3.025   3.817 -0.7673 -1.7494  0.3429
   8523SM  H18U11371   6.605   3.113   3.980  0.8975 -0.0692 -0.5910
   8523SM   C1F11372   6.035   3.627   3.143 -0.3814 -0.0971  0.2859
   8523SM    OF11373   5.962   3.696   3.077 -0.2483  0.0206  0.0691
   8523SM   C2F11374   6.130   3.681   3.248  0.1557  0.5097  0.0828
   8523SM   H2F11375   6.218   3.613   3.248 -0.6219 -0.5281  0.7726
   8523SM   H2G11376   6.081   3.681   3.348  2.9580  0.7020  1.5594
   8523SM   C3F11377   6.182   3.827   3.227 -0.0404 -0.9880 -0.3813
   8523SM   H3F11378   6.101   3.903   3.234  0.9079  0.0566 -0.4708
   8523SM   H3G11379   6.215   3.824   3.121 -0.0382  1.2951 -0.5001
   8523SM   C4F11380   6.282   3.877   3.337 -0.5718 -0.7295 -0.2872
   8523SM   H4F11381   6.362   3.941   3.294 -1.2388  0.0234 -0.4438
   8523SM   H4G11382   6.338   3.793   3.382  1.4231 -0.1467 -1.5357
   8523SM   C5F11383   6.219   3.961   3.450  0.1499 -0.5115 -0.1710
   8523SM   H5F11384   6.125   3.911   3.484  1.4452 -3.6518 -0.8000
   8523SM   H5G11385   6.193   4.064   3.417 -0.4114  0.5087  3.1032
   8523SM   C6F11386   6.301   3.980   3.580 -0.3720 -0.1761  0.1121
   8523SM   H6F11387   6.255   4.068   3.631  1.1477  1.4268 -1.1542
   8523SM   H6G11388   6.408   3.997   3.554  0.2604 -1.5618  1.6276
   8523SM   C7F11389   6.292   3.856   3.664  0.5111 -0.1371 -0.2786
   8523SM   H7F11390   6.335   3.768   3.612 -1.7640 -0.0455 -2.5165
   8523SM   H7G11391   6.183   3.846   3.682  0.2096 -1.4628 -2.4570
   8523SM   C8F11392   6.369   3.856   3.796  0.6213 -0.0204 -0.6435
   8523SM   H8F11393   6.480   3.852   3.788  0.9212  1.8984  1.4107
   8523SM   H8G11394   6.325   3.769   3.849 -2.7809  2.4293  0.9774
   8523SM   C9F11395   6.326   3.963   3.894  0.7462 -0.2621  0.3544
   8523SM   H9F11396   6.215   3.964   3.902  0.6896 -2.5043  0.4670
   8523SM   H9G11397   6.363   4.063   3.864 -0.7193  0.1073 -0.3242
   8523SM  C10F11398   6.375   3.921   4.039 -0.1884  0.4914  0.6809
   8523SM  H10F11399   6.486   3.913   4.044 -0.2267  0.0897  0.9810
   8523SM  H10G11400   6.333   3.823   4.070  1.6676 -0.0453  1.6415
   8523SM  C11F11401   6.320   4.012   4.153  0.7467  0.0227  0.8485
   8523SM  H11F11402   6.213   4.037   4.136  1.2649  0.4882 -2.3905
   8523SM  H11G11403   6.374   4.109   4.154 -0.8386  0.9537  0.1519
   8523SM  C12F11404   6.324   3.942   4.283  0.2606 -0.3412  0.6621
   8523SM  H12F11405   6.427   3.910   4.311  0.9755  0.5440 -0.8435
   8523SM  H12G11406   6.249   3.860   4.283 -0.3385  0.2027  0.7168
   8523SM  C13F11407   6.295   4.029   4.412  0.1817  0.3712 -0.2216
   8523SM  H13F11408   6.198   4.080   4.394  0.4228  0.9850  0.1638
   8523SM  H13G11409   6.363   4.117   4.423  0.2570  0.5725 -1.9264
   8523SM  C14F11410   6.298   3.943   4.538  0.5674 -0.4241 -0.0916
   8523SM  H14F11411   6.403   3.911   4.554  0.5997 -0.7891 -0.9972
   8523SM  H14G11412   6.244   3.846   4.532 -0.1453  0.0527 -2.1685
   8523SM  C15F11413   6.220   4.013   4.651 -0.1169  0.0887  0.2631
   8523SM  H15F11414   6.273   4.103   4.688  1.9393 -0.8329 -0.2809
   8523SM  H15G11415   6.216   3.941   4.735 -0.3557 -2.8157 -2.0786
   8523SM  C16F11416   6.075   4.023   4.618 -0.2547  0.8622 -0.1213
   8523SM  H16F11417   6.035   3.926   4.580 -1.4401  0.6202  1.6240
   8523SM  H16G11418   6.057   4.104   4.545  0.7288  1.9797  0.8368
   8523SM  C17F11419   5.988   4.063   4.743 -0.0525  0.4102  0.8124
   8523SM  H17F11420   6.019   4.167   4.765 -1.2011  0.5632  1.8057
   8523SM  H17G11421   6.004   4.002   4.835 -0.0105 -0.3470  0.3118
   8523SM  C18F11422   5.842   4.079   4.704  0.0984 -0.2306  0.3960
   8523SM  H18F11423   5.809   3.988   4.651  2.4901  0.0850 -1.8220
   8523SM  H18G11424   5.832   4.160   4.629  0.9924  1.3095  1.8648
   8523SM  C19F11425   5.753   4.115   4.829  0.1808  0.3174  0.0473
   8523SM  H19F11426   5.760   4.225   4.844  2.2175  0.0354  1.4694
   8523SM  H19G11427   5.782   4.055   4.918 -0.2264 -2.4141 -1.5352
   8523SM  C20F11428   5.598   4.094   4.803  0.6409  0.4182  0.3422
   8523SM  H20F11429   5.582   3.984   4.808  0.4726  0.4924  2.4037
   8523SM  H20G11430   5.576   4.147   4.708 -0.3181 -0.2985  0.1439
   8523SM  C21F11431   5.514   4.154   4.912  0.4990  0.3320 -0.1385
   8523SM  H21F11432   5.517   4.265   4.917 -2.1725  0.4195  1.8594
   8523SM  H21G11433   5.553   4.121   5.011 -0.7500 -1.1445 -0.1042
   8523SM  C22F11434   5.366   4.090   4.907 -0.1847 -0.1687  0.1943
   8523SM  H22F11435   5.375   3.984   4.940 -0.3893 -0.7167 -1.3879
   8523SM  H22G11436   5.346   4.092   4.798 -0.7960  0.2509  0.3112
   8523SM  C23F11437   5.276   4.177   4.991  0.3752 -0.0944 -0.2812
   8523SM  H23F11438   5.309   4.151   5.094 -0.1746 -2.0837 -0.5601
   8523SM  H23G11439   5.167   4.159   4.987  0.1704  1.1662 -0.8158
   8523SM  H23H11440   5.284   4.288   4.985 -0.3929 -0.0358 -0.2419
   8623SM     N11441   4.136   2.292   2.215  0.2320 -0.3954  0.1743
   8623SM   C1511442   4.251   2.341   2.135  0.5117  0.0208  0.3183
   8623SM  H15A11443   4.242   2.448   2.126  1.2013 -0.0223 -1.2813
   8623SM  H15B11444   4.245   2.304   2.033  0.8170 -0.6950  0.5558
   8623SM  H15C11445   4.345   2.314   2.179 -0.3124 -1.5670  1.2096
   8623SM   C1411446   4.011   2.338   2.147  0.3009  0.0603 -0.3868
   8623SM  H14A11447   4.015   2.445   2.135  0.8046  0.2536  1.3308
   8623SM  H14B11448   3.920   2.311   2.200  0.5135  1.4445  0.7245
   8623SM  H14C11449   4.007   2.307   2.043  1.1800 -1.8651  0.1116
   8623SM   C1311450   4.141   2.148   2.219 -0.7528  0.2236 -0.4187
   8623SM  H13A11451   4.118   2.106   2.123  1.0763  0.7459 -1.1223
   8623SM  H13B11452   4.060   2.106   2.277 -2.5561  1.0370 -2.1958
   8623SM  H13C11453   4.231   2.112   2.266 -3.0400 -1.6289  2.9284
   8623SM   C1211454   4.147   2.352   2.361  0.4554  0.1222 -0.0609
   8623SM  H12A11455   4.124   2.457   2.352  1.5785  0.3615 -0.1925
   8623SM  H12B11456   4.248   2.334   2.395  0.6580 -0.9637 -1.1861
   8623SM   C1111457   4.050   2.297   2.466  0.3957  0.3776  0.5879
   8623SM  H11A11458   4.077   2.341   2.564 -0.2676 -1.9660  1.8925
   8623SM  H11B11459   4.069   2.191   2.493 -1.0780 -0.0097  0.2328
   8623SM     P11460   3.832   2.436   2.461  0.4324 -0.0629  0.5037
   8623SM   O1311461   3.894   2.563   2.420 -0.1273  0.3486 -0.4238
   8623SM   O1411462   3.694   2.420   2.407 -0.1420 -0.1577  0.1939
   8623SM   O1111463   3.824   2.432   2.614 -0.2297  0.5014 -0.7287
   8623SM   O1211464   3.915   2.308   2.421  0.2014 -0.1651  0.6153
   8623SM   C1S11465   3.763   2.308   2.669 -0.1063 -0.3377 -0.0188
   8623SM   H1S11466   3.840   2.229   2.660 -1.3051 -1.9223  2.4065
   8623SM   H1T11467   3.671   2.275   2.615  0.3081 -1.4040 -0.0882
   8623SM    NF11468   3.656   2.206   2.876 -0.5291 -0.6308  0.6435
   8623SM   HNF11469   3.557   2.202   2.867 -0.5578  0.2492  0.4416
   8623SM   C2S11470   3.718   2.324   2.819 -0.5022  0.0043 -0.2503
   8623SM   H2S11471   3.815   2.341   2.871  1.0517 -3.6820 -1.5359
   8623SM   C3S11472   3.628   2.445   2.836  0.2775 -0.1310 -0.4036
   8623SM   H3S11473   3.526   2.424   2.799  0.2512 -0.1347 -0.3293
   8623SM    O311474   3.679   2.559   2.780  0.1973 -0.0640  0.0951
   8623SM   HO311475   3.741   2.519   2.718  0.1933  0.3138 -0.1543
   8623SM   C4S11476   3.601   2.463   2.988 -0.4502 -0.6390  0.3085
   8623SM   H4S11477   3.696   2.471   3.043 -0.9736  2.5660  0.9450
   8623SM   C5S11478   3.493   2.430   3.058  0.2731 -0.5097 -0.8123
   8623SM   H5S11479   3.400   2.386   3.019 -1.0911  2.7896 -1.5442
   8623SM   C6S11480   3.484   2.442   3.209  0.1813  0.1459 -0.5097
   8623SM   H6S11481   3.424   2.356   3.243 -0.5456  0.1159 -1.8187
   8623SM   H6T11482   3.432   2.540   3.217  0.7397  0.4244 -0.1902
   8623SM   C7S11483   3.620   2.458   3.289 -0.1675 -0.3189 -0.3188
   8623SM   H7S11484   3.677   2.548   3.256 -1.6482  1.5881  2.0484
   8623SM   H7T11485   3.676   2.362   3.292  0.4333  0.0041 -0.9109
   8623SM   C8S11486   3.588   2.488   3.436 -0.1413 -0.3979  0.2914
   8623SM   H8S11487   3.524   2.403   3.468 -1.2639  0.9852  1.9825
   8623SM   H8T11488   3.534   2.585   3.424 -3.4078 -2.0170  0.7722
   8623SM   C9S11489   3.715   2.504   3.531 -0.2115 -0.6054 -0.6157
   8623SM   H9S11490   3.777   2.591   3.499 -1.7298  0.3824 -1.0099
   8623SM   H9T11491   3.781   2.416   3.521  0.5882  0.0451 -1.2474
   8623SM  C10S11492   3.666   2.525   3.670 -0.1377  0.0302  0.1427
   8623SM  H10S11493   3.632   2.429   3.714 -1.2955  0.3245 -0.0759
   8623SM  H10T11494   3.582   2.596   3.655 -1.2500 -1.3593 -0.4937
   8623SM  C11S11495   3.778   2.576   3.763  0.6492  0.0272 -0.0575
   8623SM  H11S11496   3.803   2.680   3.735  0.6756  0.7017  2.2455
   8623SM  H11T11497   3.863   2.505   3.755  0.0570 -0.6165 -0.9233
   8623SM  C12S11498   3.722   2.567   3.908 -0.0477 -0.1687  0.2543
   8623SM  H12S11499   3.696   2.462   3.936  1.7595 -1.2815 -1.9082
   8623SM  H12T11500   3.632   2.630   3.923 -0.9468 -1.3643  0.0258
   8623SM  C13S11501   3.828   2.612   4.007 -0.0382 -0.4193 -0.0423
   8623SM  H13S11502   3.853   2.718   3.988  0.0556 -0.4125  0.1171
   8623SM  H13T11503   3.923   2.554   4.005  1.2044  1.4029  2.1280
   8623SM  C14S11504   3.780   2.604   4.160  0.5185  0.4525  0.8240
   8623SM  H14S11505   3.741   2.503   4.186 -1.1746  1.4379  2.3990
   8623SM  H14T11506   3.697   2.677   4.178 -0.4297 -1.0391  2.8828
   8623SM  C15S11507   3.888   2.639   4.264  0.0495  0.4643  0.2993
   8623SM  H15S11508   3.849   2.636   4.368  1.2438  1.6222  0.8036
   8623SM  H15T11509   3.919   2.744   4.250 -0.6971  0.7951  1.0007
   8623SM  C16S11510   4.007   2.544   4.274 -0.5033 -0.1399 -0.0975
   8623SM  H16S11511   4.061   2.541   4.177 -0.5118 -1.3198 -0.0908
   8623SM  H16T11512   3.979   2.438   4.294  0.2875 -0.7942 -2.2031
   8623SM  C17S11513   4.119   2.570   4.378 -0.4759  0.2042  0.1794
   8623SM  H17S11514   4.198   2.496   4.351 -0.4080  0.5075 -0.4660
   8623SM  H17T11515   4.074   2.559   4.479  0.9163  1.5902  0.9967
   8623SM  C18S11516   4.183   2.709   4.368  0.7311  0.3827 -0.2694
   8623SM  H18S11517   4.217   2.730   4.264 -1.2067  0.3587 -0.9466
   8623SM  H18T11518   4.272   2.708   4.433  0.0103 -2.8489  0.8617
   8623SM  H18U11519   4.104   2.778   4.403 -2.7898 -3.9435  1.2571
   8623SM   C1F11520   3.730   2.103   2.916  0.3797 -0.6001 -0.2536
   8623SM    OF11521   3.850   2.097   2.898 -0.5777  0.3535  0.3307
   8623SM   C2F11522   3.659   1.995   2.981  0.1642 -0.2273  0.4741
   8623SM   H2F11523   3.643   1.918   2.902 -0.0225  1.0257 -0.7549
   8623SM   H2G11524   3.559   2.021   3.022  0.2989 -1.0848  1.3751
   8623SM   C3F11525   3.743   1.951   3.102 -0.0328 -0.1782  0.0468
   8623SM   H3F11526   3.844   1.928   3.062  0.2972  0.3366  0.5748
   8623SM   H3G11527   3.699   1.856   3.140 -0.2116 -0.3888 -0.6777
   8623SM   C4F11528   3.750   2.050   3.213  0.7206 -0.0333  0.2679
   8623SM   H4F11529   3.662   2.116   3.200 -0.5955 -1.9207 -0.9376
   8623SM   H4G11530   3.845   2.105   3.201  0.9639 -0.3902  0.5148
   8623SM   C5F11531   3.741   1.991   3.354 -0.1731  0.2615 -0.0392
   8623SM   H5F11532   3.810   1.904   3.352 -0.2290  0.1713  1.0701
   8623SM   H5G11533   3.635   1.965   3.376  0.2257 -0.7048  0.8502
   8623SM   C6F11534   3.778   2.085   3.462 -0.3774 -0.2485  0.0859
   8623SM   H6F11535   3.723   2.181   3.452  0.1040  0.0742  0.4547
   8623SM   H6G11536   3.881   2.124   3.443 -0.1553  0.0561  1.7151
   8623SM   C7F11537   3.771   2.026   3.602  0.2637 -0.6524  0.1487
   8623SM   H7F11538   3.827   1.931   3.611 -1.1638 -1.5917 -0.5518
   8623SM   H7G11539   3.664   1.997   3.613 -0.5744  1.1204 -2.4045
   8623SM   C8F11540   3.831   2.115   3.710 -0.2318 -0.0052 -0.1256
   8623SM   H8F11541   3.771   2.208   3.701 -1.6743 -0.8238  0.7245
   8623SM   H8G11542   3.935   2.137   3.677 -0.0171 -0.5506  0.1819
   8623SM   C9F11543   3.834   2.051   3.853  0.1057  0.4197  0.3640
   8623SM   H9F11544   3.908   1.969   3.855 -1.3382 -0.9095  0.8322
   8623SM   H9G11545   3.732   2.020   3.883 -0.0412  1.5156  1.0489
   8623SM  C10F11546   3.869   2.155   3.960  0.4210 -0.2460 -0.1579
   8623SM  H10F11547   3.798   2.239   3.970  0.2744 -0.3822 -0.0454
   8623SM  H10G11548   3.961   2.203   3.920 -0.1353  0.1272 -1.0035
   8623SM  C11F11549   3.888   2.084   4.099  0.1835 -0.4667 -0.4207
   8623SM  H11F11550   3.979   2.024   4.081  1.1392  0.5895  0.7359
   8623SM  H11G11551   3.800   2.022   4.127 -0.8630  0.2019 -2.0322
   8623SM  C12F11552   3.928   2.184   4.207  0.2697  0.2006  0.0722
   8623SM  H12F11553   3.836   2.242   4.231 -0.4440 -1.5373  1.7809
   8623SM  H12G11554   4.007   2.257   4.179 -0.4300  1.3867  1.0745
   8623SM  C13F11555   3.974   2.116   4.334 -0.2884 -0.6112 -0.0615
   8623SM  H13F11556   4.078   2.078   4.319  0.8329  1.3440  2.0856
   8623SM  H13G11557   3.909   2.028   4.351  0.0841 -1.4854 -2.6539
   8623SM  C14F11558   3.996   2.207   4.461  0.4995  0.4930  0.3336
   8623SM  H14F11559   4.069   2.291   4.450  1.5191 -0.6389 -2.3497
   8623SM  H14G11560   4.044   2.153   4.545  1.1429 -0.9163 -0.9053
   8623SM  C15F11561   3.860   2.266   4.506 -0.4776  0.0714 -0.2767
   8623SM  H15F11562   3.783   2.187   4.503 -1.1598  0.7257 -0.3942
   8623SM  H15G11563   3.823   2.359   4.457  1.3124  0.8038 -0.3297
   8623SM  C16F11564   3.862   2.294   4.656  0.1197  0.0655  0.0689
   8623SM  H16F11565   3.956   2.345   4.689  0.8948 -0.6416 -0.9907
   8623SM  H16G11566   3.875   2.193   4.701 -0.2814 -1.3607 -2.8143
   8623SM  C17F11567   3.737   2.367   4.700  0.1540  1.0997 -0.2928
   8623SM  H17F11568   3.646   2.308   4.676  0.0574  0.6992  0.9520
   8623SM  H17G11569   3.737   2.455   4.632  1.5791 -0.6914 -2.7880
   8623SM  C18F11570   3.746   2.409   4.846 -0.3821 -0.7458 -0.0828
   8623SM  H18F11571   3.807   2.501   4.853  0.2213 -1.1635  0.3027
   8623SM  H18G11572   3.807   2.345   4.913 -1.1638  0.2782  1.6999
   8623SM  C19F11573   3.606   2.431   4.911  0.0613  0.3292 -0.7707
   8623SM  H19F11574   3.528   2.354   4.887  0.6986 -1.8927  3.2577
   8623SM  H19G11575   3.577   2.535   4.884  6.1182  2.4887 -0.3433
   8623SM  C20F11576   3.619   2.406   5.066  0.2970  0.2401  0.0802
   8623SM  H20F11577   3.695   2.483   5.094  1.4304 -0.9148  0.2949
   8623SM  H20G11578   3.651   2.301   5.082 -1.2960 -0.6460 -2.0968
   8623SM  C21F11579   3.484   2.440   5.134  0.2167  0.4158  0.0618
   8623SM  H21F11580   3.401   2.376   5.096  1.5778 -1.7059  0.4344
   8623SM  H21G11581   3.472   2.546   5.106 -2.2824 -0.1111 -1.1877
   8623SM  C22F11582   3.477   2.421   5.284  0.0944 -0.3115 -0.1510
   8623SM  H22F11583   3.573   2.461   5.324 -0.4527  0.6743  0.1957
   8623SM  H22G11584   3.484   2.314   5.312  3.3940 -0.6484 -1.6805
   8623SM  C23F11585   3.366   2.503   5.345 -0.3169 -0.5828  0.7484
   8623SM  H23F11586   3.393   2.539   5.447  1.2736  1.1397 -0.2249
   8623SM  H23G11587   3.276   2.438   5.350 -1.2799  0.7242  1.0494
   8623SM  H23H11588   3.346   2.595   5.287 -1.7738 -1.5481 -0.3433
   8723SM     N11589   5.530   2.235   2.290 -0.1383  0.3874  0.1845
   8723SM   C1511590   5.634   2.201   2.186  0.4971  0.1945  0.1906
   8723SM  H15A11591   5.738   2.209   2.216  0.4400  0.0996  0.4167
   8723SM  H15B11592   5.618   2.256   2.094 -2.0608  0.2231  0.5783
   8723SM  H15C11593   5.612   2.098   2.160 -2.0173  1.0288 -1.3944
   8723SM   C1411594   5.551   2.378   2.320  0.3073 -0.1303  0.2158
   8723SM  H14A11595   5.556   2.443   2.234 -0.9464  0.3568  0.4894
   8723SM  H14B11596   5.639   2.397   2.380 -0.3396 -2.0042  1.8983
   8723SM  H14C11597   5.465   2.405   2.381 -0.4813 -1.6108 -0.1821
   8723SM   C1311598   5.403   2.215   2.223  0.1339 -0.2082  0.2876
   8723SM  H13A11599   5.391   2.111   2.194  0.6952 -0.3065  0.3863
   8723SM  H13B11600   5.380   2.283   2.142  0.6194 -0.3835 -0.0040
   8723SM  H13C11601   5.324   2.236   2.293  0.0607 -0.5435  0.3094
   8723SM   C1211602   5.539   2.148   2.413 -1.2978 -0.0641 -0.2418
   8723SM  H12A11603   5.642   2.163   2.442 -1.1042  0.1739 -1.0398
   8723SM  H12B11604   5.533   2.045   2.382  0.5039 -0.1135 -0.5224
   8723SM   C1111605   5.450   2.187   2.536  0.4216 -0.8982 -0.5246
   8723SM  H11A11606   5.444   2.296   2.557  0.4616 -1.1932  1.1214
   8723SM  H11B11607   5.495   2.148   2.629 -1.5112 -1.7724  0.0914
   8723SM     P11608   5.287   1.992   2.544  0.3094  0.0366  0.1455
   8723SM   O1311609   5.138   1.989   2.540  0.3122 -0.0399  0.2079
   8723SM   O1411610   5.369   1.900   2.463  0.3295  0.6473  0.1718
   8723SM   O1111611   5.335   1.967   2.690  0.7592 -0.1440  0.1162
   8723SM   O1211612   5.320   2.135   2.512  0.4134 -0.5227  0.1478
   8723SM   C1S11613   5.260   2.035   2.793 -0.5197  0.1952  0.7204
   8723SM   H1S11614   5.165   1.978   2.801  0.2222 -1.0847  0.7678
   8723SM   H1T11615   5.239   2.142   2.774 -1.5331  0.0193  0.8025
   8723SM    NF11616   5.270   2.125   3.018 -0.2076  0.0780  0.2100
   8723SM   HNF11617   5.335   2.192   3.053  0.5757  0.9447 -2.6308
   8723SM   C2S11618   5.343   2.036   2.922  0.4167  0.1780  0.1753
   8723SM   H2S11619   5.338   1.939   2.978 -1.3173  0.3909  0.4500
   8723SM   C3S11620   5.494   2.083   2.897 -0.2378  0.5246 -0.1349
   8723SM   H3S11621   5.497   2.188   2.860  2.0578 -0.0683 -1.8698
   8723SM    O311622   5.576   2.018   2.804  0.7465 -0.2920  0.2931
   8723SM   HO311623   5.516   1.970   2.747  1.1551 -0.8893  0.3625
   8723SM   C4S11624   5.558   2.095   3.030 -0.4957  0.1984  0.6860
   8723SM   H4S11625   5.531   2.189   3.081 -3.3649 -2.0628  3.7300
   8723SM   C5S11626   5.643   2.005   3.087 -0.4781 -0.2421 -0.3209
   8723SM   H5S11627   5.686   1.926   3.023  0.0980  0.7972 -1.2679
   8723SM   C6S11628   5.676   2.019   3.233 -0.3355  0.5338  0.4383
   8723SM   H6S11629   5.776   2.066   3.243  0.7048 -0.9412 -2.0265
   8723SM   H6T11630   5.678   1.916   3.275 -1.1537 -0.7645 -2.4123
   8723SM   C7S11631   5.588   2.097   3.323  0.0494  0.2316  0.5138
   8723SM   H7S11632   5.486   2.057   3.340  0.8536 -1.2951  2.2119
   8723SM   H7T11633   5.585   2.206   3.301 -0.8168  0.4618  1.6332
   8723SM   C8S11634   5.656   2.096   3.467 -0.4087  0.1557  0.7602
   8723SM   H8S11635   5.763   2.123   3.450 -0.2451 -1.8372 -1.9219
   8723SM   H8T11636   5.658   1.992   3.505  0.2235  0.0336  0.4056
   8723SM   C9S11637   5.576   2.173   3.576 -0.5875  0.0050  0.0599
   8723SM   H9S11638   5.482   2.114   3.590 -1.3268  0.4260 -2.4948
   8723SM   H9T11639   5.552   2.273   3.535 -1.6937  0.8887  2.6901
   8723SM  C10S11640   5.634   2.193   3.708 -0.2531  0.1665 -0.3606
   8723SM  H10S11641   5.737   2.234   3.706 -0.1723  0.0950  1.0577
   8723SM  H10T11642   5.641   2.101   3.770  1.4886  1.3290  1.2816
   8723SM  C11S11643   5.552   2.291   3.799  0.2409 -0.0010 -0.7412
   8723SM  H11S11644   5.441   2.281   3.796 -0.2439  1.5683  3.8190
   8723SM  H11T11645   5.574   2.385   3.743  0.7047  1.2651  1.4473
   8723SM  C12S11646   5.591   2.324   3.948  0.6589 -0.1216  0.1412
   8723SM  H12S11647   5.544   2.420   3.978  0.2922 -0.9866  2.4649
   8723SM  H12T11648   5.701   2.320   3.963  0.7178 -3.0600 -0.3607
   8723SM  C13S11649   5.534   2.225   4.045  0.2966 -0.4632  0.5190
   8723SM  H13S11650   5.575   2.125   4.016  1.2415  0.1777 -0.4699
   8723SM  H13T11651   5.425   2.220   4.027  0.2854  0.2276  0.3738
   8723SM  C14S11652   5.560   2.260   4.193  0.6570 -0.4881  0.0870
   8723SM  H14S11653   5.663   2.298   4.209  1.6748 -3.6105  1.9527
   8723SM  H14T11654   5.559   2.158   4.237  0.0029 -1.0613 -1.1989
   8723SM  C15S11655   5.443   2.332   4.256  0.4339  0.5312  0.9325
   8723SM  H15S11656   5.350   2.273   4.244  0.0917  1.0703  0.9074
   8723SM  H15T11657   5.436   2.426   4.197 -0.3859 -1.2097 -1.9494
   8723SM  C16S11658   5.460   2.366   4.400 -0.4535 -0.1701  0.6763
   8723SM  H16S11659   5.375   2.432   4.427  1.1924  2.6628 -0.6484
   8723SM  H16T11660   5.544   2.438   4.399  0.1624 -0.8673  1.2726
   8723SM  C17S11661   5.494   2.254   4.498  0.2187 -0.5009 -0.2358
   8723SM  H17S11662   5.546   2.296   4.587 -1.0313 -1.4877  0.9978
   8723SM  H17T11663   5.557   2.175   4.453 -1.8498 -1.9610 -0.7078
   8723SM  C18S11664   5.360   2.190   4.546 -0.6756  0.1921  0.2132
   8723SM  H18S11665   5.301   2.147   4.462 -0.5332 -4.3466  2.1515
   8723SM  H18T11666   5.313   2.279   4.593  0.7759  0.1980  1.7657
   8723SM  H18U11667   5.379   2.116   4.627 -0.5242  2.0494  1.9725
   8723SM   C1F11668   5.147   2.103   3.058  0.2844  0.1902  0.2018
   8723SM    OF11669   5.104   1.993   3.048 -0.0444 -0.6925 -0.1246
   8723SM   C2F11670   5.077   2.219   3.125 -0.4634  0.2125  0.1911
   8723SM   H2F11671   4.993   2.255   3.062 -2.3347 -0.3983  2.1914
   8723SM   H2G11672   5.155   2.296   3.143  1.1209 -1.2173 -0.2946
   8723SM   C3F11673   5.012   2.182   3.260 -0.6184  0.0810 -0.8183
   8723SM   H3F11674   4.949   2.090   3.258  0.9910 -1.1144  0.6953
   8723SM   H3G11675   4.949   2.264   3.301 -2.4711 -1.1089 -1.1380
   8723SM   C4F11676   5.115   2.145   3.375 -1.2078  1.0962  0.4562
   8723SM   H4F11677   5.194   2.223   3.385 -0.1298 -0.0400  1.2067
   8723SM   H4G11678   5.177   2.056   3.348  1.1427  3.1450 -1.4408
   8723SM   C5F11679   5.056   2.116   3.514 -0.5772 -0.0074  0.0735
   8723SM   H5F11680   4.992   2.026   3.500 -1.5428  0.6450  0.2122
   8723SM   H5G11681   5.000   2.197   3.565  0.8107 -0.0260  1.7019
   8723SM   C6F11682   5.172   2.078   3.615  0.0322  0.0813 -0.0679
   8723SM   H6F11683   5.252   2.155   3.619 -0.2408  0.3473  0.4783
   8723SM   H6G11684   5.223   1.985   3.582 -0.5112 -0.2087 -0.1100
   8723SM   C7F11685   5.118   2.063   3.751 -0.3226  0.1625 -0.4354
   8723SM   H7F11686   5.035   1.990   3.758 -0.0136 -0.0631  1.4594
   8723SM   H7G11687   5.073   2.159   3.784 -0.2662 -0.2227  0.8216
   8723SM   C8F11688   5.224   2.018   3.855 -1.4049  0.9284 -0.1896
   8723SM   H8F11689   5.307   2.091   3.864 -0.1803 -0.5347  0.7562
   8723SM   H8G11690   5.282   1.931   3.819  0.4881  1.5739  1.1313
   8723SM   C9F11691   5.169   1.964   3.988  0.6995 -0.4088 -0.2720
   8723SM   H9F11692   5.101   1.881   3.961  2.1657 -1.5213 -0.6591
   8723SM   H9G11693   5.108   2.041   4.041 -2.5469 -2.0619 -1.3262
   8723SM  C10F11694   5.278   1.911   4.076  0.2797  1.1659  0.2421
   8723SM  H10F11695   5.355   1.989   4.095 -0.0709  1.4437  0.5200
   8723SM  H10G11696   5.327   1.829   4.019  0.5433  0.6122  1.2439
   8723SM  C11F11697   5.232   1.866   4.218  0.9385  0.3364  0.2112
   8723SM  H11F11698   5.153   1.788   4.208  0.5065  0.9536 -1.5807
   8723SM  H11G11699   5.177   1.947   4.271  1.3525  0.5574  0.3088
   8723SM  C12F11700   5.347   1.825   4.313  0.3569 -0.3750  0.2683
   8723SM  H12F11701   5.415   1.913   4.320 -1.0705  0.7021  1.3409
   8723SM  H12G11702   5.399   1.741   4.263 -0.5351 -0.7496 -0.0377
   8723SM  C13F11703   5.297   1.780   4.454 -0.5045  0.3263  0.0532
   8723SM  H13F11704   5.219   1.702   4.437  1.3069 -2.0056  1.7738
   8723SM  H13G11705   5.256   1.863   4.514  0.9713  0.2459  1.2378
   8723SM  C14F11706   5.406   1.705   4.534 -0.0680  0.3436 -0.1119
   8723SM  H14F11707   5.469   1.651   4.460 -1.7658 -2.0938  0.0991
   8723SM  H14G11708   5.345   1.638   4.598 -4.2410  2.5465 -1.3270
   8723SM  C15F11709   5.495   1.798   4.618 -0.1643 -0.0647  0.0726
   8723SM  H15F11710   5.444   1.864   4.691 -1.0670 -0.4100 -0.2288
   8723SM  H15G11711   5.544   1.871   4.550  0.1261 -1.7121 -1.5913
   8723SM  C16F11712   5.597   1.703   4.685 -0.6168 -1.2372 -0.3164
   8723SM  H16F11713   5.655   1.663   4.600 -0.9766  0.6925 -1.5296
   8723SM  H16G11714   5.546   1.620   4.739 -0.4513 -1.3310 -0.3041
   8723SM  C17F11715   5.691   1.785   4.781 -0.2270  0.2161 -0.1653
   8723SM  H17F11716   5.635   1.830   4.866 -1.2146  1.1818 -1.2962
   8723SM  H17G11717   5.725   1.872   4.720 -0.2035  0.9739  0.8980
   8723SM  C18F11718   5.811   1.708   4.836 -0.3649  0.8102 -0.8531
   8723SM  H18F11719   5.880   1.778   4.888 -0.9024 -0.1184  1.2457
   8723SM  H18G11720   5.875   1.663   4.757 -0.5334 -2.4301  0.6993
   8723SM  C19F11721   5.767   1.587   4.926 -0.1764  0.5751  0.3444
   8723SM  H19F11722   5.854   1.518   4.935 -0.2119  0.5854  0.8259
   8723SM  H19G11723   5.677   1.534   4.889  0.4689 -0.9978  0.9286
   8723SM  C20F11724   5.722   1.638   5.062 -0.2571  0.2474 -0.1204
   8723SM  H20F11725   5.692   1.544   5.112  1.4947 -0.0193  0.5091
   8723SM  H20G11726   5.638   1.710   5.050 -1.1746 -0.6313  0.8007
   8723SM  C21F11727   5.833   1.694   5.147 -0.3099  0.5476  0.5128
   8723SM  H21F11728   5.882   1.779   5.094  0.2876  0.2945  0.6498
   8723SM  H21G11729   5.910   1.617   5.167 -1.1850 -0.5442 -0.2207
   8723SM  C22F11730   5.788   1.748   5.280 -0.3201 -0.2071  0.3988
   8723SM  H22F11731   5.887   1.767   5.326  0.9989 -3.5249 -0.7246
   8723SM  H22G11732   5.747   1.661   5.335  2.5772 -0.5766  2.1587
   8723SM  C23F11733   5.688   1.864   5.284  0.5342  0.8267  0.0016
   8723SM  H23F11734   5.708   1.954   5.223 -1.2819  1.2008 -0.1195
   8723SM  H23G11735   5.674   1.891   5.391  1.7937 -0.2764  0.4708
   8723SM  H23H11736   5.583   1.831   5.264 -0.6758  0.2174  5.6755
   8823SM     N11737   2.026   2.144   2.666  0.4678  0.1098  0.7284
   8823SM   C1511738   2.101   2.250   2.590  0.4215  0.2540 -0.1111
   8823SM  H15A11739   2.135   2.313   2.671  1.1832 -0.2645 -0.0211
   8823SM  H15B11740   2.031   2.301   2.526 -0.9092 -2.1019 -0.6477
   8823SM  H15C11741   2.181   2.199   2.538 -1.3519 -1.6675 -1.1268
   8823SM   C1411742   1.991   2.039   2.561 -1.0273  0.1196  0.0330
   8823SM  H14A11743   1.919   2.074   2.490  0.5011 -1.3526 -2.4120
   8823SM  H14B11744   1.947   1.953   2.610 -0.1909 -0.0973  0.4372
   8823SM  H14C11745   2.077   2.010   2.502 -1.0504 -0.7324  0.3942
   8823SM   C1311746   2.116   2.079   2.773 -0.4344  0.0360 -0.3146
   8823SM  H13A11747   2.131   2.142   2.859  0.0391  1.6215 -1.5033
   8823SM  H13B11748   2.212   2.052   2.731 -0.9457 -1.6284 -0.4864
   8823SM  H13C11749   2.075   1.985   2.807  2.0974 -1.7696 -1.9261
   8823SM   C1211750   1.905   2.194   2.742 -0.5824 -0.1226  0.1374
   8823SM  H12A11751   1.852   2.109   2.781 -0.6147  0.4625  1.4137
   8823SM  H12B11752   1.838   2.234   2.667  0.3648  0.7699 -0.2772
   8823SM   C1111753   1.930   2.315   2.838 -0.0277 -0.2413 -0.5023
   8823SM  H11A11754   1.995   2.280   2.921 -3.9384  0.4164  3.1883
   8823SM  H11B11755   1.830   2.339   2.880  0.4487  0.7861  0.0830
   8823SM     P11756   2.053   2.539   2.838 -0.0913 -0.6920 -0.4300
   8823SM   O1311757   2.193   2.504   2.845  0.3822  0.0561  0.4774
   8823SM   O1411758   2.026   2.675   2.787 -0.1170 -0.3987 -0.2867
   8823SM   O1111759   1.996   2.530   2.991  0.0464 -0.3187  0.0189
   8823SM   O1211760   1.972   2.426   2.757  0.4021  0.0401 -0.2165
   8823SM   C1S11761   2.071   2.598   3.095 -0.1334  0.2800  0.4050
   8823SM   H1S11762   2.074   2.705   3.068 -0.8050  0.4840  1.1015
   8823SM   H1T11763   2.178   2.568   3.095 -0.1859  0.0081 -1.3423
   8823SM    NF11764   2.103   2.653   3.328  0.0225  0.4820 -0.5172
   8823SM   HNF11765   2.182   2.605   3.367 -2.1164 -2.3353  0.6692
   8823SM   C2S11766   2.018   2.577   3.241 -0.2024 -0.6170 -0.4429
   8823SM   H2S11767   1.917   2.621   3.233  0.0393  0.0674  0.0960
   8823SM   C3S11768   1.991   2.430   3.277  0.5914 -0.4680  0.0841
   8823SM   H3S11769   2.087   2.377   3.293  1.9437  1.9255  0.4998
   8823SM    O311770   1.921   2.356   3.174  0.3616  0.2754  0.3407
   8823SM   HO311771   1.935   2.410   3.096 -0.6282  3.7152  2.2985
   8823SM   C4S11772   1.921   2.423   3.410 -0.0492  0.0317 -0.0467
   8823SM   H4S11773   1.995   2.399   3.488  2.3925 -0.4154 -2.3685
   8823SM   C5S11774   1.791   2.460   3.439 -0.0824  0.4846  0.2435
   8823SM   H5S11775   1.739   2.499   3.350 -0.8707  0.0877  0.5240
   8823SM   C6S11776   1.742   2.482   3.583  0.0332  0.7098  0.5454
   8823SM   H6S11777   1.639   2.440   3.591  0.0669  0.4757 -0.1767
   8823SM   H6T11778   1.734   2.591   3.603 -2.0583  0.2333  2.6497
   8823SM   C7S11779   1.833   2.434   3.698  0.3318 -0.2342 -0.0745
   8823SM   H7S11780   1.935   2.478   3.697  0.8998 -1.4115 -2.7844
   8823SM   H7T11781   1.831   2.323   3.707  2.3277 -0.1621  2.6506
   8823SM   C8S11782   1.787   2.499   3.831  0.6618 -0.0566  0.0383
   8823SM   H8S11783   1.679   2.473   3.845  0.6406 -1.1802 -1.8405
   8823SM   H8T11784   1.785   2.609   3.819 -3.5994  0.2428  1.5742
   8823SM   C9S11785   1.858   2.458   3.955 -0.1949  0.4311 -0.3679
   8823SM   H9S11786   1.963   2.493   3.952  0.7451 -2.0771  0.8964
   8823SM   H9T11787   1.862   2.348   3.965 -1.9087  0.4486  0.9362
   8823SM  C10S11788   1.795   2.514   4.086  0.5307  0.1653  0.3605
   8823SM  H10S11789   1.693   2.470   4.084  0.5331  0.1729 -0.1605
   8823SM  H10T11790   1.786   2.625   4.086 -0.2523  0.1162  1.5933
   8823SM  C11S11791   1.872   2.483   4.210 -0.1519  0.4189 -0.4369
   8823SM  H11S11792   1.844   2.552   4.293  0.8698  2.2468 -1.5455
   8823SM  H11T11793   1.981   2.497   4.193  0.4124 -2.2411  0.5473
   8823SM  C12S11794   1.855   2.331   4.255  0.5533 -0.2998 -0.1832
   8823SM  H12S11795   1.873   2.266   4.167  0.3769 -1.0748  0.3379
   8823SM  H12T11796   1.746   2.323   4.276  0.3708  0.6313 -0.7408
   8823SM  C13S11797   1.941   2.298   4.378 -0.1910  0.0287  0.7462
   8823SM  H13S11798   1.914   2.373   4.455 -1.1880 -1.2755  1.7137
   8823SM  H13T11799   2.049   2.315   4.357 -0.6477  1.2833 -0.7782
   8823SM  C14S11800   1.919   2.155   4.436 -0.0635  0.0406 -0.4488
   8823SM  H14S11801   1.958   2.079   4.365 -0.2919  0.8069 -1.4114
   8823SM  H14T11802   1.809   2.151   4.452  0.2177  0.2347  1.8685
   8823SM  C15S11803   1.977   2.137   4.580 -0.2019 -0.2959  0.2145
   8823SM  H15S11804   1.988   2.237   4.626 -0.5004 -0.6519  1.0765
   8823SM  H15T11805   2.077   2.093   4.559 -1.1307 -1.5651 -1.9679
   8823SM  C16S11806   1.886   2.049   4.669  0.0378  0.3462 -0.0379
   8823SM  H16S11807   1.875   1.950   4.621  1.5225 -1.3255  2.7949
   8823SM  H16T11808   1.792   2.105   4.689 -0.2408 -0.2722  0.4096
   8823SM  C17S11809   1.958   2.014   4.804  0.1269 -0.2514 -0.1800
   8823SM  H17S11810   2.023   2.098   4.837 -2.0078  0.4215  2.6135
   8823SM  H17T11811   2.029   1.929   4.792  0.3231 -0.2065  0.6024
   8823SM  C18S11812   1.868   2.002   4.922  0.0562 -0.2830  0.3898
   8823SM  H18S11813   1.788   1.930   4.895 -0.7666  1.4568 -2.1585
   8823SM  H18T11814   1.822   2.101   4.942  1.1462 -0.2817  3.4430
   8823SM  H18U11815   1.917   1.968   5.015 -2.8182 -1.6014  1.5601
   8823SM   C1F11816   2.119   2.779   3.326  0.6194 -0.6599  0.5934
   8823SM    OF11817   2.049   2.859   3.254 -0.6064  0.1878 -0.3705
   8823SM   C2F11818   2.235   2.830   3.413  0.0358  0.4873 -0.3298
   8823SM   H2F11819   2.269   2.930   3.380 -0.6531  0.3464 -1.5080
   8823SM   H2G11820   2.322   2.761   3.411  0.7073  1.2970  0.1626
   8823SM   C3F11821   2.178   2.834   3.556  0.4657 -0.6897  0.4657
   8823SM   H3F11822   2.151   2.732   3.592 -2.0317 -1.5726 -3.3219
   8823SM   H3G11823   2.082   2.890   3.563  0.2081 -1.0818  0.1426
   8823SM   C4F11824   2.285   2.884   3.646 -0.0517  0.1287  0.1675
   8823SM   H4F11825   2.322   2.978   3.600 -1.1949  0.0320 -1.0159
   8823SM   H4G11826   2.375   2.820   3.654  0.2330  0.7321  3.2622
   8823SM   C5F11827   2.226   2.911   3.790  0.2822  0.2403 -0.6036
   8823SM   H5F11828   2.140   2.978   3.771 -1.6208 -2.1226 -0.8267
   8823SM   H5G11829   2.309   2.969   3.837  0.1675  1.2954 -1.6471
   8823SM   C6F11830   2.188   2.798   3.881  0.2466  0.6339 -0.1751
   8823SM   H6F11831   2.096   2.749   3.844  0.3478  0.3052  0.0063
   8823SM   H6G11832   2.162   2.830   3.984 -1.1012 -2.2309  0.4755
   8823SM   C7F11833   2.299   2.687   3.898  0.3453  0.0883  0.0240
   8823SM   H7F11834   2.391   2.727   3.947 -0.4283 -0.1744  1.7767
   8823SM   H7G11835   2.325   2.647   3.798 -0.6486  0.5119 -0.4113
   8823SM   C8F11836   2.262   2.581   4.009  0.0669  0.7255  0.2125
   8823SM   H8F11837   2.171   2.530   3.972 -0.7745  2.1377  0.2390
   8823SM   H8G11838   2.235   2.629   4.106 -2.6195  0.8809 -0.5201
   8823SM   C9F11839   2.363   2.470   4.052  0.4285  0.2689 -0.0147
   8823SM   H9F11840   2.465   2.509   4.074  0.3305  0.0157  0.9460
   8823SM   H9G11841   2.375   2.403   3.964  2.2164  2.4765 -1.5727
   8823SM  C10F11842   2.310   2.409   4.183  0.0037  0.3476  0.1025
   8823SM  H10F11843   2.207   2.367   4.180  0.4144 -0.6602 -2.6101
   8823SM  H10G11844   2.329   2.477   4.269 -0.4857 -1.9799  2.1881
   8823SM  C11F11845   2.398   2.282   4.220  0.7362  0.5926 -0.5655
   8823SM  H11F11846   2.492   2.306   4.274  1.0485 -4.2941  1.5155
   8823SM  H11G11847   2.427   2.226   4.129  1.6932 -1.0529  0.6940
   8823SM  C12F11848   2.317   2.170   4.289  0.4989  0.0285 -0.4468
   8823SM  H12F11849   2.224   2.142   4.235 -0.3967 -0.2151  1.1517
   8823SM  H12G11850   2.285   2.206   4.390  1.7221 -1.4003  0.4849
   8823SM  C13F11851   2.404   2.041   4.315 -0.1128  0.0641 -0.4051
   8823SM  H13F11852   2.500   2.077   4.357 -0.0936 -0.7287  0.2433
   8823SM  H13G11853   2.430   1.983   4.224  1.9772 -0.9872  0.8142
   8823SM  C14F11854   2.338   1.947   4.413  0.1607  0.2051 -1.2078
   8823SM  H14F11855   2.242   1.911   4.371 -0.0026  0.5039 -1.0928
   8823SM  H14G11856   2.318   2.001   4.508 -0.3313 -1.9595 -0.0068
   8823SM  C15F11857   2.422   1.819   4.456 -0.3294 -0.5509  0.2110
   8823SM  H15F11858   2.386   1.780   4.553  2.1134  0.0837  1.4655
   8823SM  H15G11859   2.529   1.847   4.468 -0.3154 -1.5902  3.4730
   8823SM  C16F11860   2.411   1.708   4.349  0.0555  0.3807  0.0277
   8823SM  H16F11861   2.474   1.740   4.264  0.9903 -0.5780  0.3404
   8823SM  H16G11862   2.306   1.688   4.318 -0.0902  2.4122 -0.9145
   8823SM  C17F11863   2.470   1.574   4.402 -0.1013 -0.1167  0.3056
   8823SM  H17F11864   2.409   1.540   4.489 -1.5890 -1.1326 -1.0639
   8823SM  H17G11865   2.576   1.591   4.429  0.1373  0.5229 -0.9794
   8823SM  C18F11866   2.460   1.473   4.284 -0.7041  0.7893  0.8651
   8823SM  H18F11867   2.356   1.466   4.246 -0.1841 -0.2555 -0.4824
   8823SM  H18G11868   2.506   1.378   4.320  1.6901  1.5397  0.0301
   8823SM  C19F11869   2.543   1.503   4.153  0.3054 -0.4371 -0.9979
   8823SM  H19F11870   2.646   1.525   4.189  0.8775 -0.8392 -2.3110
   8823SM  H19G11871   2.502   1.594   4.103  0.2487 -0.6104 -1.2691
   8823SM  C20F11872   2.544   1.388   4.060 -0.5622 -0.1841  0.8335
   8823SM  H20F11873   2.442   1.344   4.055  0.3382 -2.1940 -1.5769
   8823SM  H20G11874   2.607   1.310   4.109  2.4736  1.6653  0.1536
   8823SM  C21F11875   2.586   1.423   3.914 -0.3662 -0.6097 -0.6799
   8823SM  H21F11876   2.567   1.326   3.863 -2.7412  0.5027 -2.0406
   8823SM  H21G11877   2.696   1.440   3.913 -0.2036 -1.0958  1.9927
   8823SM  C22F11878   2.509   1.534   3.849  0.1307  0.1481  0.0266
   8823SM  H22F11879   2.542   1.629   3.897 -1.3993  1.1518 -0.8312
   8823SM  H22G11880   2.406   1.514   3.885  0.7690 -1.7179  0.9667
   8823SM  C23F11881   2.513   1.534   3.698 -0.4767  0.3567 -0.4339
   8823SM  H23F11882   2.606   1.574   3.652 -0.7218  0.6416 -0.6957
   8823SM  H23G11883   2.437   1.602   3.653 -0.6987 -1.1944 -2.5635
   8823SM  H23H11884   2.490   1.434   3.656 -0.8319  0.6509 -0.9582
   8923SM     N11885   6.201   2.524   2.314  0.1635 -0.1766 -0.0180
   8923SM   C1511886   6.266   2.653   2.291 -0.1027  0.1655 -0.3703
   8923SM  H15A11887   6.338   2.644   2.211 -2.4414 -1.0804 -2.4931
   8923SM  H15B11888   6.315   2.688   2.380 -1.4132  0.1543  0.3871
   8923SM  H15C11889   6.203   2.737   2.264  1.3876  1.5552  0.3193
   8923SM   C1411890   6.096   2.540   2.415 -0.2692 -0.1783 -0.3939
   8923SM  H14A11891   6.077   2.445   2.463  0.1620 -0.0069  0.1319
   8923SM  H14B11892   6.012   2.570   2.355 -0.5166 -0.5862 -0.2511
   8923SM  H14C11893   6.112   2.622   2.484  1.1814 -0.0784 -0.7984
   8923SM   C1311894   6.142   2.478   2.186  0.5369 -0.2075  0.6131
   8923SM  H13A11895   6.108   2.376   2.190  1.5503 -0.7316 -1.8585
   8923SM  H13B11896   6.228   2.471   2.121  1.8596  0.3086  2.2295
   8923SM  H13C11897   6.064   2.536   2.139  0.5583  0.9824  1.9944
   8923SM   C1211898   6.306   2.424   2.357  0.6448 -0.3305  0.4558
   8923SM  H12A11899   6.273   2.326   2.388 -1.4362  0.8276  2.1732
   8923SM  H12B11900   6.367   2.469   2.435  0.7277  1.2114 -0.4508
   8923SM   C1111901   6.408   2.399   2.252  0.4729  0.0280 -0.8040
   8923SM  H11A11902   6.467   2.491   2.230 -0.3273  1.0324  0.9651
   8923SM  H11B11903   6.367   2.351   2.161  0.5233  0.1245 -0.8783
   8923SM     P11904   6.598   2.327   2.412  0.4190  0.5777  0.1233
   8923SM   O1311905   6.705   2.223   2.396 -0.0770 -0.3408  0.4326
   8923SM   O1411906   6.641   2.467   2.415  0.3618 -0.3096 -0.0824
   8923SM   O1111907   6.524   2.303   2.555 -0.3060 -0.5250 -0.4229
   8923SM   O1211908   6.486   2.295   2.308  0.0004  0.1912 -0.0043
   8923SM   C1S11909   6.459   2.179   2.571 -0.1358 -0.1996  0.5415
   8923SM   H1S11910   6.528   2.093   2.555  1.1019  0.4050  2.2836
   8923SM   H1T11911   6.368   2.168   2.508 -0.3525  0.2771  0.7664
   8923SM    NF11912   6.385   2.040   2.738 -0.2467 -0.6612 -0.2699
   8923SM   HNF11913   6.289   2.018   2.754 -0.4839 -0.1687 -0.9822
   8923SM   C2S11914   6.410   2.175   2.719  0.2701 -0.1100 -0.0278
   8923SM   H2S11915   6.487   2.210   2.792  0.1852  1.7947 -0.7829
   8923SM   C3S11916   6.291   2.277   2.737  0.6436 -0.1005 -0.6588
   8923SM   H3S11917   6.204   2.247   2.675 -0.3546  2.2185 -0.4737
   8923SM    O311918   6.321   2.409   2.693 -0.4934  0.3893  0.3754
   8923SM   HO311919   6.404   2.390   2.650 -1.2149 -1.1980 -0.4483
   8923SM   C4S11920   6.241   2.269   2.888 -0.3800  0.2683 -0.6034
   8923SM   H4S11921   6.148   2.213   2.904  0.1200 -0.5926 -0.5941
   8923SM   C5S11922   6.313   2.313   2.992  0.0340 -0.1073 -0.4936
   8923SM   H5S11923   6.411   2.359   2.971  1.6018 -2.1103  1.8727
   8923SM   C6S11924   6.284   2.294   3.139  0.3033  0.9179  0.2803
   8923SM   H6S11925   6.349   2.209   3.167  2.5807  2.3995 -0.1923
   8923SM   H6T11926   6.176   2.271   3.142  0.2431  1.1727  0.1317
   8923SM   C7S11927   6.320   2.421   3.209  0.2288 -0.3801 -1.0253
   8923SM   H7S11928   6.235   2.493   3.208  1.1500  0.7351 -1.6549
   8923SM   H7T11929   6.398   2.489   3.167 -0.7306  0.2018 -1.9295
   8923SM   C8S11930   6.338   2.389   3.362  0.2231 -0.7110 -0.0106
   8923SM   H8S11931   6.377   2.479   3.415  0.3888 -0.9941  0.3595
   8923SM   H8T11932   6.414   2.308   3.369  0.5814 -0.4594 -0.9186
   8923SM   C9S11933   6.204   2.362   3.433  0.6177 -0.3703  0.1270
   8923SM   H9S11934   6.149   2.274   3.393 -1.9486  0.7141  0.9933
   8923SM   H9T11935   6.130   2.443   3.415 -1.0909 -1.3947  2.0735
   8923SM  C10S11936   6.223   2.343   3.586 -0.1365  0.1031 -0.0813
   8923SM  H10S11937   6.291   2.257   3.609  1.2122  1.2132  0.2232
   8923SM  H10T11938   6.126   2.326   3.637  0.2242  1.1318  0.9836
   8923SM  C11S11939   6.289   2.462   3.659  0.6076  0.4998 -0.4891
   8923SM  H11S11940   6.233   2.558   3.655  1.2665  0.9276  0.3473
   8923SM  H11T11941   6.390   2.485   3.618  1.7405 -0.7496  1.4480
   8923SM  C12S11942   6.319   2.442   3.811 -0.0914 -0.2133  0.6867
   8923SM  H12S11943   6.409   2.377   3.819  0.0047 -0.1571  0.1122
   8923SM  H12T11944   6.234   2.394   3.864 -0.4998  0.1318  0.3518
   8923SM  C13S11945   6.342   2.578   3.880  0.1852  0.3940  0.4710
   8923SM  H13S11946   6.248   2.636   3.873  0.2362  0.2804 -1.7676
   8923SM  H13T11947   6.430   2.623   3.830 -1.1517  2.0393 -0.4723
   8923SM  C14S11948   6.370   2.566   4.033  0.4210 -0.0898 -0.0178
   8923SM  H14S11949   6.411   2.663   4.069 -2.0260  0.9899  0.0565
   8923SM  H14T11950   6.441   2.481   4.050 -0.9128 -0.7080  3.3083
   8923SM  C15S11951   6.241   2.531   4.107 -0.4287 -0.2494  0.4707
   8923SM  H15S11952   6.211   2.433   4.065 -0.6319 -0.1586  0.4034
   8923SM  H15T11953   6.169   2.608   4.072  0.0214 -0.9503 -2.2085
   8923SM  C16S11954   6.250   2.537   4.263  0.3855 -0.6371 -0.2832
   8923SM  H16S11955   6.340   2.478   4.288  2.3161  2.8543  1.7411
   8923SM  H16T11956   6.159   2.498   4.313 -0.5772  1.1704 -0.5620
   8923SM  C17S11957   6.273   2.677   4.327 -0.4896 -0.0217  0.1246
   8923SM  H17S11958   6.380   2.699   4.307 -0.3533 -2.2008 -2.0176
   8923SM  H17T11959   6.268   2.671   4.438 -0.6766  1.5468  0.2221
   8923SM  C18S11960   6.177   2.783   4.271  0.2219 -0.1083  0.4199
   8923SM  H18S11961   6.080   2.745   4.310  0.5359  0.0090  1.3387
   8923SM  H18T11962   6.189   2.805   4.163  0.1477  1.8698  0.7699
   8923SM  H18U11963   6.185   2.882   4.321 -1.3074  0.3390 -0.1649
   8923SM   C1F11964   6.479   1.951   2.760  0.2667  0.0459 -0.1932
   8923SM    OF11965   6.604   1.970   2.758 -0.0434  0.1292  0.0716
   8923SM   C2F11966   6.416   1.822   2.811  0.0098  0.1178  0.1081
   8923SM   H2F11967   6.358   1.789   2.722  2.4140  0.5965 -1.7733
   8923SM   H2G11968   6.341   1.840   2.891  0.6468 -1.7352  1.1832
   8923SM   C3F11969   6.516   1.716   2.861 -0.2544 -0.1493  0.4250
   8923SM   H3F11970   6.575   1.687   2.771  0.3421  1.6165  0.2158
   8923SM   H3G11971   6.445   1.631   2.870 -0.6416  0.1724  0.4641
   8923SM   C4F11972   6.591   1.758   2.990  0.1050 -0.6790  0.0652
   8923SM   H4F11973   6.521   1.804   3.064 -0.4896 -0.8082 -0.4035
   8923SM   H4G11974   6.657   1.843   2.962  0.6938 -0.5943  1.6119
   8923SM   C5F11975   6.663   1.643   3.058 -0.4586 -0.2429 -1.3173
   8923SM   H5F11976   6.736   1.592   2.992  1.7461  0.2398  0.6360
   8923SM   H5G11977   6.588   1.570   3.094 -1.0979  0.9614 -0.0971
   8923SM   C6F11978   6.750   1.681   3.173  1.2756  0.2626 -0.7877
   8923SM   H6F11979   6.700   1.739   3.253  1.2268  2.3881 -2.2683
   8923SM   H6G11980   6.835   1.751   3.153  1.2787  0.4033 -0.2918
   8923SM   C7F11981   6.817   1.554   3.231  0.3389 -0.9326 -0.5839
   8923SM   H7F11982   6.886   1.506   3.158  2.2638 -1.4316  1.4543
   8923SM   H7G11983   6.739   1.476   3.245 -1.0578  0.4023 -0.6855
   8923SM   C8F11984   6.876   1.581   3.371 -1.0582 -0.3249 -1.0394
   8923SM   H8F11985   6.947   1.665   3.359 -0.9909 -0.5385 -2.3854
   8923SM   H8G11986   6.930   1.490   3.403  0.0748  0.8005  0.3253
   8923SM   C9F11987   6.772   1.617   3.479  0.8562 -0.0610 -0.2742
   8923SM   H9F11988   6.692   1.541   3.488  1.4857 -0.7195 -0.1524
   8923SM   H9G11989   6.727   1.715   3.456  0.8875 -0.0043 -0.0996
   8923SM  C10F11990   6.835   1.633   3.624 -0.4174 -0.6804  0.5771
   8923SM  H10F11991   6.907   1.718   3.630 -0.8448 -0.1106 -1.4901
   8923SM  H10G11992   6.897   1.543   3.644 -0.5187 -1.4435 -2.0994
   8923SM  C11F11993   6.719   1.631   3.722  0.3495  0.5548  0.4563
   8923SM  H11F11994   6.655   1.541   3.711  1.5269 -0.1035 -1.5963
   8923SM  H11G11995   6.640   1.705   3.697 -2.4987 -2.0268  1.1889
   8923SM  C12F11996   6.781   1.641   3.858 -0.5228 -0.0995  0.9209
   8923SM  H12F11997   6.815   1.746   3.871 -0.1269  0.1301 -1.4200
   8923SM  H12G11998   6.864   1.570   3.875 -2.0934 -2.0254  0.8953
   8923SM  C13F11999   6.673   1.625   3.962  0.4693  0.6113 -0.3140
   8923SM  H13F12000   6.618   1.529   3.947 -0.9866  1.6395 -1.8756
   8923SM  H13G12001   6.593   1.700   3.946  0.4654  0.1420 -2.8903
   8923SM  C14F12002   6.724   1.653   4.105  0.0462  0.0911 -0.0803
   8923SM  H14F12003   6.748   1.761   4.108 -0.3798  0.1802  0.2295
   8923SM  H14G12004   6.818   1.599   4.131  0.2510  0.5622  0.1713
   8923SM  C15F12005   6.616   1.623   4.208  0.3312  0.4221 -0.5371
   8923SM  H15F12006   6.566   1.526   4.184 -0.2023  0.2405  1.1719
   8923SM  H15G12007   6.539   1.702   4.193  0.3812  0.5912  0.0888
   8923SM  C16F12008   6.673   1.625   4.351  0.4612 -0.1655 -0.3784
   8923SM  H16F12009   6.735   1.716   4.361  0.2626 -0.2405  2.2919
   8923SM  H16G12010   6.743   1.541   4.368 -0.5723 -0.7958  0.9451
   8923SM  C17F12011   6.567   1.644   4.465  0.1460 -0.9991 -0.2243
   8923SM  H17F12012   6.513   1.548   4.476  1.2158 -1.6790 -0.6904
   8923SM  H17G12013   6.501   1.728   4.436  3.1955  1.4801 -0.5239
   8923SM  C18F12014   6.625   1.683   4.600  0.2382 -0.3483 -0.4155
   8923SM  H18F12015   6.731   1.714   4.587  0.5204 -0.7188  0.8552
   8923SM  H18G12016   6.640   1.593   4.663  2.3390  0.6283  0.5944
   8923SM  C19F12017   6.551   1.807   4.677 -0.4387 -0.5633  0.4461
   8923SM  H19F12018   6.477   1.758   4.744 -2.5487 -0.3532 -1.6198
   8923SM  H19G12019   6.501   1.867   4.598  0.1240 -0.0480  0.4787
   8923SM  C20F12020   6.645   1.891   4.756  0.3892  0.1235  0.0010
   8923SM  H20F12021   6.583   1.953   4.824 -1.8529 -2.2348  0.2810
   8923SM  H20G12022   6.711   1.958   4.697  2.7344 -1.9874  0.0607
   8923SM  C21F12023   6.744   1.804   4.837 -0.1679 -0.1219 -0.0203
   8923SM  H21F12024   6.819   1.749   4.775 -0.8964 -0.2988 -0.7764
   8923SM  H21G12025   6.682   1.718   4.871 -1.2779  1.0258  0.9097
   8923SM  C22F12026   6.817   1.875   4.943  0.0685 -0.2785  0.2513
   8923SM  H22F12027   6.737   1.935   4.992 -0.8760 -1.6334  0.4173
   8923SM  H22G12028   6.879   1.957   4.900  1.3305 -0.7698  1.0754
   8923SM  C23F12029   6.902   1.800   5.041  0.0286 -0.1691  0.0636
   8923SM  H23F12030   6.832   1.733   5.095 -0.0533  1.4091  2.0325
   8923SM  H23G12031   6.959   1.864   5.112  1.0168  0.1176 -0.9540
   8923SM  H23H12032   6.977   1.736   4.990  1.0854 -0.1470  1.5074
   9023SM     N12033   6.031   1.838   2.051 -1.2364  0.6294  0.1122
   9023SM   C1512034   6.072   1.885   1.915 -0.4342 -0.6036 -0.0414
   9023SM  H15A12035   6.136   1.809   1.872  1.8974  1.6496 -0.8092
   9023SM  H15B12036   6.129   1.976   1.911 -2.6134  0.9666  1.8289
   9023SM  H15C12037   5.982   1.889   1.854 -1.0668 -0.7427  0.8612
   9023SM   C1412038   5.976   1.699   2.044 -0.1349 -0.3920 -0.6319
   9023SM  H14A12039   6.050   1.632   2.003 -0.3505 -0.8169 -0.3334
   9023SM  H14B12040   5.887   1.702   1.984  0.4982 -1.3862 -1.6652
   9023SM  H14C12041   5.949   1.656   2.140  0.2413 -1.0105 -0.7946
   9023SM   C1312042   6.152   1.823   2.139 -0.3582 -0.8732 -0.1465
   9023SM  H13A12043   6.228   1.765   2.088  0.2210 -1.2832  1.1377
   9023SM  H13B12044   6.125   1.779   2.234 -0.4190 -0.9324 -0.1915
   9023SM  H13C12045   6.194   1.920   2.163  1.1360 -1.5187 -0.0320
   9023SM   C1212046   5.931   1.929   2.112 -0.2167  0.2328  0.0800
   9023SM  H12A12047   5.843   1.922   2.050 -0.1051 -0.5826 -0.0016
   9023SM  H12B12048   5.978   2.025   2.100 -0.1160  0.1649 -0.0769
   9023SM   C1112049   5.901   1.918   2.260  0.3369 -0.1496 -0.4147
   9023SM  H11A12050   5.871   1.821   2.304  1.2828  0.3310  1.3876
   9023SM  H11B12051   5.805   1.969   2.286 -0.9318 -2.6896  0.1770
   9023SM     P12052   6.019   2.132   2.331 -0.4929  0.3822 -0.1518
   9023SM   O1312053   6.147   2.174   2.393  0.6536  0.2597  1.1071
   9023SM   O1412054   5.986   2.193   2.200  0.2918  0.6095 -0.6936
   9023SM   O1112055   5.908   2.172   2.435 -0.3522 -0.3981  0.0793
   9023SM   O1212056   6.011   1.979   2.330 -0.5323  0.1633  0.4484
   9023SM   C1S12057   5.871   2.081   2.541 -0.0526 -0.4570 -0.9487
   9023SM   H1S12058   5.946   2.000   2.550  2.6107  1.9738  0.5556
   9023SM   H1T12059   5.769   2.039   2.526 -1.1127  1.5668  0.0744
   9023SM    NF12060   5.881   2.041   2.790 -0.1720 -0.9731  0.5746
   9023SM   HNF12061   5.787   2.015   2.810 -0.4524  0.3560  1.0842
   9023SM   C2S12062   5.886   2.145   2.687 -0.1297  0.4005 -0.0180
   9023SM   H2S12063   5.990   2.185   2.689 -0.4268  1.1757  0.8498
   9023SM   C3S12064   5.793   2.262   2.705  0.4279  0.2817  0.3040
   9023SM   H3S12065   5.691   2.227   2.679  1.7795 -2.2728 -2.0717
   9023SM    O312066   5.813   2.357   2.605  0.0321  0.2243 -0.0916
   9023SM   HO312067   5.872   2.317   2.541  0.1040 -1.3475  0.9155
   9023SM   C4S12068   5.798   2.318   2.840  0.3499 -1.0109 -0.8679
   9023SM   H4S12069   5.753   2.249   2.914 -1.8456  0.9074 -0.3285
   9023SM   C5S12070   5.867   2.414   2.894  0.3574  0.0808  0.3652
   9023SM   H5S12071   5.933   2.462   2.820 -0.6314  1.6830  0.4696
   9023SM   C6S12072   5.899   2.452   3.039  0.7238 -0.1038  0.0901
   9023SM   H6S12073   5.835   2.539   3.068 -0.3003  0.5380 -3.6384
   9023SM   H6T12074   6.004   2.487   3.044  0.2811  1.1900  0.7275
   9023SM   C7S12075   5.872   2.343   3.142 -0.5636 -0.4238  0.0519
   9023SM   H7S12076   5.943   2.259   3.125  1.2287  0.8644  0.9297
   9023SM   H7T12077   5.771   2.297   3.132 -0.8334  0.1102  0.3065
   9023SM   C8S12078   5.880   2.396   3.284 -0.1259  0.3319 -0.6056
   9023SM   H8S12079   5.959   2.474   3.280 -0.2665  0.5985  1.1084
   9023SM   H8T12080   5.924   2.315   3.345  0.5865  0.6767 -0.6539
   9023SM   C9S12081   5.760   2.462   3.353 -0.1097  0.3105  0.0113
   9023SM   H9S12082   5.681   2.387   3.372  0.5754  0.4122  4.0578
   9023SM   H9T12083   5.721   2.545   3.291 -1.9319  1.0459  2.0298
   9023SM  C10S12084   5.794   2.498   3.496  0.6847  0.3269 -0.2190
   9023SM  H10S12085   5.837   2.407   3.543 -2.2586 -0.5727  0.9289
   9023SM  H10T12086   5.711   2.526   3.564  0.8864 -0.0569  0.1937
   9023SM  C11S12087   5.888   2.619   3.508 -1.0368  0.3549 -0.1714
   9023SM  H11S12088   5.854   2.712   3.456 -0.8689  0.4795 -0.0595
   9023SM  H11T12089   5.987   2.590   3.468 -0.3974  2.8572 -0.6103
   9023SM  C12S12090   5.906   2.667   3.657  0.7176  0.2267 -0.2907
   9023SM  H12S12091   5.824   2.738   3.682  1.5399  0.6622  1.3434
   9023SM  H12T12092   6.001   2.724   3.663  1.9080 -1.7628  0.5148
   9023SM  C13S12093   5.925   2.550   3.756  0.6033  0.2829 -0.0258
   9023SM  H13S12094   6.005   2.483   3.719 -0.4560 -1.3221  0.4528
   9023SM  H13T12095   5.832   2.489   3.762 -1.2364  2.8873 -0.5902
   9023SM  C14S12096   5.957   2.586   3.897  0.5577  0.2467  0.2322
   9023SM  H14S12097   6.022   2.676   3.892  1.1985 -0.2314 -0.2791
   9023SM  H14T12098   6.007   2.498   3.943 -0.2825 -0.1347  0.4351
   9023SM  C15S12099   5.825   2.630   3.965 -0.0458 -0.9530 -0.9088
   9023SM  H15S12100   5.743   2.556   3.960 -1.2734  0.1731  1.3855
   9023SM  H15T12101   5.772   2.718   3.923  1.4615  1.0672  1.1549
   9023SM  C16S12102   5.851   2.651   4.123 -0.3063 -0.7658  0.3013
   9023SM  H16S12103   5.917   2.740   4.138 -0.3321 -0.7001  0.0207
   9023SM  H16T12104   5.910   2.570   4.171  0.0052 -0.2450  0.8221
   9023SM  C17S12105   5.716   2.661   4.196 -0.4477 -0.6238  0.3197
   9023SM  H17S12106   5.728   2.661   4.307  0.3085  0.6592  0.2653
   9023SM  H17T12107   5.657   2.576   4.157 -2.5683  0.9012  0.0315
   9023SM  C18S12108   5.635   2.782   4.160  0.0434  0.2318  0.0815
   9023SM  H18S12109   5.536   2.775   4.209  0.1699  2.5319  0.7979
   9023SM  H18T12110   5.611   2.775   4.052 -0.8010 -1.1194  0.3386
   9023SM  H18U12111   5.684   2.878   4.190 -0.0828 -0.2621  2.0465
   9023SM   C1F12112   5.985   1.959   2.804  0.1890  0.5550 -0.5913
   9023SM    OF12113   6.099   1.994   2.765  0.4796  0.1400  0.1584
   9023SM   C2F12114   5.948   1.826   2.856 -0.1004 -0.0244  0.7858
   9023SM   H2F12115   5.910   1.762   2.774  1.3711  1.0154 -0.7777
   9023SM   H2G12116   5.855   1.844   2.915  0.5038 -1.1545  2.1396
   9023SM   C3F12117   6.048   1.754   2.947 -0.9143  0.6216 -0.4607
   9023SM   H3F12118   6.122   1.700   2.884  0.2297 -2.0440  2.9252
   9023SM   H3G12119   5.981   1.678   2.992 -0.7692 -1.0141 -2.8044
   9023SM   C4F12120   6.121   1.834   3.050 -0.5346 -0.3398  0.6254
   9023SM   H4F12121   6.160   1.932   3.012  0.0923 -1.1654 -0.9919
   9023SM   H4G12122   6.206   1.765   3.069 -0.1109 -0.3317 -1.0118
   9023SM   C5F12123   6.028   1.878   3.162 -0.1317  0.0288 -0.5560
   9023SM   H5F12124   5.958   1.794   3.180  0.4603 -0.2879  0.2905
   9023SM   H5G12125   5.965   1.968   3.144  0.0998 -0.0134 -1.6478
   9023SM   C6F12126   6.096   1.927   3.292  0.3677  0.3934  0.7111
   9023SM   H6F12127   6.152   2.021   3.273 -2.0931  2.1438  1.5591
   9023SM   H6G12128   6.150   1.844   3.343  0.9909 -0.1044 -0.7305
   9023SM   C7F12129   5.995   1.968   3.402  0.2084 -0.1268 -0.1137
   9023SM   H7F12130   5.918   1.889   3.404  1.0929 -1.0225 -0.4196
   9023SM   H7G12131   5.936   2.054   3.363  0.1509 -0.1336 -0.0408
   9023SM   C8F12132   6.058   1.987   3.539  1.0516  0.1604 -0.2118
   9023SM   H8F12133   6.153   2.043   3.528  0.5416  0.7119 -2.2800
   9023SM   H8G12134   6.094   1.891   3.580  1.9923  0.7372  0.3545
   9023SM   C9F12135   5.962   2.049   3.644  0.0771 -0.7384  0.5117
   9023SM   H9F12136   5.880   1.975   3.653  0.0792 -0.7441  0.4868
   9023SM   H9G12137   5.913   2.140   3.603 -1.0221 -1.5305  0.0331
   9023SM  C10F12138   6.025   2.079   3.774 -0.6174  0.0800 -0.3858
   9023SM  H10F12139   6.125   2.126   3.765 -1.0363  1.6864  2.2474
   9023SM  H10G12140   6.047   1.981   3.823  1.3930 -0.3906 -2.0699
   9023SM  C11F12141   5.939   2.159   3.866 -0.0581 -0.2042 -0.2935
   9023SM  H11F12142   5.841   2.111   3.885 -0.3182  0.1389 -0.7486
   9023SM  H11G12143   5.896   2.253   3.826 -1.9339 -0.8368  0.1585
   9023SM  C12F12144   6.013   2.173   4.003  0.0890 -0.4800 -0.3210
   9023SM  H12F12145   6.107   2.231   3.993 -0.8391  1.1535  0.1236
   9023SM  H12G12146   6.037   2.068   4.031 -0.3539 -0.0509  1.7985
   9023SM  C13F12147   5.933   2.230   4.113  0.3096  0.1497 -0.1867
   9023SM  H13F12148   5.837   2.176   4.100  0.8629 -0.7485 -0.6595
   9023SM  H13G12149   5.919   2.338   4.088  2.3235  0.4361 -0.2370
   9023SM  C14F12150   5.989   2.224   4.252  0.0593 -0.7172 -0.3377
   9023SM  H14F12151   6.073   2.297   4.250 -1.6501  1.3268  0.0019
   9023SM  H14G12152   6.027   2.121   4.270 -0.2976 -0.8772 -0.4858
   9023SM  C15F12153   5.892   2.277   4.361  0.1709  1.0325 -0.3012
   9023SM  H15F12154   5.805   2.209   4.379 -0.4882  1.7730 -0.6162
   9023SM  H15G12155   5.845   2.373   4.330  1.4183  1.5357 -0.7076
   9023SM  C16F12156   5.959   2.291   4.500  0.2710  0.3371 -0.4826
   9023SM  H16F12157   6.044   2.361   4.494  0.9498 -0.5076 -0.9150
   9023SM  H16G12158   6.002   2.192   4.528 -1.8384 -0.0389  1.7578
   9023SM  C17F12159   5.874   2.343   4.612  0.3767 -0.3295  0.3430
   9023SM  H17F12160   5.917   2.331   4.714  0.4281  2.5326  0.7456
   9023SM  H17G12161   5.784   2.279   4.618  0.4501 -0.5477 -0.6219
   9023SM  C18F12162   5.846   2.497   4.592 -0.6833  0.5706  0.1362
   9023SM  H18F12163   5.803   2.506   4.489  0.8917  0.3025 -0.5697
   9023SM  H18G12164   5.935   2.562   4.581 -0.6580  0.7967  1.5906
   9023SM  C19F12165   5.742   2.555   4.685 -0.1039  0.2493 -0.3344
   9023SM  H19F12166   5.786   2.549   4.787 -1.8529  0.8859  0.5035
   9023SM  H19G12167   5.646   2.502   4.666 -1.1101  1.5606  0.8966
   9023SM  C20F12168   5.707   2.695   4.649 -0.0462 -0.2871 -0.7030
   9023SM  H20F12169   5.617   2.732   4.702 -0.4520  0.6742 -2.0013
   9023SM  H20G12170   5.706   2.717   4.540 -2.5690 -1.5847 -1.0141
   9023SM  C21F12171   5.816   2.798   4.703  0.9089  0.1362  0.1012
   9023SM  H21F12172   5.916   2.773   4.661 -0.0017  1.4768 -3.2469
   9023SM  H21G12173   5.816   2.791   4.814 -1.0911 -0.9299  0.0825
   9023SM  C22F12174   5.791   2.941   4.661 -0.5720  0.3574 -0.4755
   9023SM  H22F12175   5.852   3.001   4.732 -0.0631  0.2077 -0.7846
   9023SM  H22G12176   5.687   2.972   4.686 -0.7436 -0.3903 -0.2239
   9023SM  C23F12177   5.824   2.976   4.514 -0.4044  0.0418 -0.0379
   9023SM  H23F12178   5.812   3.082   4.483  0.8232 -0.2667 -1.7126
   9023SM  H23G12179   5.759   2.916   4.447  0.3156  0.9853 -1.6435
   9023SM  H23H12180   5.931   2.958   4.493 -1.0212 -1.3127 -2.3157
   9123SM     N12181   6.690   4.466   2.573 -0.3131 -0.0157  0.4675
   9123SM   C1512182   6.555   4.459   2.639 -0.3335 -0.7173 -0.4117
   9123SM  H15A12183   6.555   4.536   2.715 -0.2524 -0.8700 -0.2538
   9123SM  H15B12184   6.522   4.363   2.675  0.3364 -0.0698  2.1344
   9123SM  H15C12185   6.479   4.486   2.567 -1.2481 -0.3403  0.6637
   9123SM   C1412186   6.684   4.384   2.447 -0.4775  0.2973 -0.2401
   9123SM  H14A12187   6.622   4.427   2.370  0.2761  1.0495 -0.4539
   9123SM  H14B12188   6.644   4.285   2.456  1.0710 -0.6112 -2.3921
   9123SM  H14C12189   6.784   4.368   2.409 -0.7275  2.0634 -1.8569
   9123SM   C1312190   6.722   4.605   2.532  0.3093  0.3646 -0.6425
   9123SM  H13A12191   6.818   4.599   2.482  0.7476 -3.1168  0.3666
   9123SM  H13B12192   6.736   4.656   2.626 -1.6194 -1.6818  0.8601
   9123SM  H13C12193   6.653   4.648   2.461 -1.0584 -0.7760 -0.0361
   9123SM   C1212194   6.800   4.417   2.668  0.4381  0.1388  0.0129
   9123SM  H12A12195   6.896   4.436   2.622  0.2796 -0.2665 -0.4947
   9123SM  H12B12196   6.779   4.314   2.692 -3.2708  0.9334  0.8480
   9123SM   C1112197   6.817   4.498   2.801 -0.3026 -1.1170 -0.6160
   9123SM  H11A12198   6.899   4.444   2.853  0.6091  1.0907  0.3359
   9123SM  H11B12199   6.732   4.500   2.872  1.3311 -1.1324  1.4157
   9123SM     P12200   6.940   4.728   2.857  0.3729  0.2841 -0.0080
   9123SM   O1312201   7.075   4.674   2.869  0.7558 -0.8804  0.6407
   9123SM   O1412202   6.924   4.864   2.801 -0.2993 -0.4295  0.2470
   9123SM   O1112203   6.872   4.719   3.002 -0.0585 -0.4925 -0.0419
   9123SM   O1212204   6.849   4.634   2.781  0.4391 -0.4479 -0.0598
   9123SM   C1S12205   6.897   4.608   3.085  0.2430 -0.4131 -0.3474
   9123SM   H1S12206   6.998   4.564   3.074  1.0446  1.3592 -0.4892
   9123SM   H1T12207   6.825   4.525   3.068 -0.8803 -0.0757  2.2237
   9123SM    NF12208   6.918   4.517   3.306  0.6378  0.0269 -0.2647
   9123SM   HNF12209   6.846   4.453   3.333  0.9024 -0.0835  0.2059
   9123SM   C2S12210   6.883   4.643   3.240 -0.3530  0.2701 -0.0553
   9123SM   H2S12211   6.959   4.722   3.260  1.6065 -1.9144  1.7883
   9123SM   C3S12212   6.739   4.702   3.263 -0.0214 -0.1075  0.1657
   9123SM   H3S12213   6.665   4.623   3.238 -0.7318  0.7314 -0.4309
   9123SM    O312214   6.692   4.813   3.173  0.5421 -0.0391 -0.1054
   9123SM   HO312215   6.759   4.817   3.104  2.3609 -0.2018  1.5440
   9123SM   C4S12216   6.718   4.740   3.411 -0.3331  0.2257 -0.1843
   9123SM   H4S12217   6.687   4.655   3.474  2.3559 -1.5242 -1.0371
   9123SM   C5S12218   6.752   4.861   3.465  0.2671 -0.0908  0.4537
   9123SM   H5S12219   6.781   4.951   3.410  1.6260  0.6053  2.1894
   9123SM   C6S12220   6.756   4.883   3.615  0.0057  0.4547 -0.3216
   9123SM   H6S12221   6.676   4.957   3.640 -0.5796 -0.6694  1.3204
   9123SM   H6T12222   6.852   4.926   3.650  0.1194 -0.0924  0.0537
   9123SM   C7S12223   6.737   4.743   3.702 -0.2723 -0.2622 -0.3564
   9123SM   H7S12224   6.820   4.672   3.685  1.4106  1.8219 -1.2005
   9123SM   H7T12225   6.642   4.696   3.670  0.5299 -1.2297 -1.3728
   9123SM   C8S12226   6.742   4.781   3.852 -0.2091  0.2683  0.9909
   9123SM   H8S12227   6.831   4.842   3.877 -1.2500  1.8893  0.8728
   9123SM   H8T12228   6.738   4.684   3.907  1.2263 -0.7661 -0.6379
   9123SM   C9S12229   6.609   4.836   3.900  0.3860  0.5591 -0.4493
   9123SM   H9S12230   6.584   4.934   3.855 -0.9720  1.2532  1.6586
   9123SM   H9T12231   6.630   4.855   4.007 -1.8524  1.8019 -0.1692
   9123SM  C10S12232   6.486   4.740   3.900  0.3252  0.7580 -0.9921
   9123SM  H10S12233   6.505   4.639   3.941 -0.3716  1.7257  1.9608
   9123SM  H10T12234   6.434   4.728   3.802 -2.4378 -2.0257  0.6261
   9123SM  C11S12235   6.368   4.797   3.982 -0.0483  0.2454 -0.4743
   9123SM  H11S12236   6.266   4.769   3.946 -0.9881  0.4356  1.8749
   9123SM  H11T12237   6.378   4.907   3.988  0.2257  0.2017 -0.1097
   9123SM  C12S12238   6.385   4.760   4.129 -0.3170 -0.5269 -0.5810
   9123SM  H12S12239   6.476   4.809   4.172 -1.4823  2.6510 -1.4427
   9123SM  H12T12240   6.396   4.650   4.133 -1.2188 -0.6963 -2.0981
   9123SM  C13S12241   6.272   4.799   4.217  0.6044 -0.0443 -0.5193
   9123SM  H13S12242   6.170   4.759   4.199 -1.7578  3.9160  2.4114
   9123SM  H13T12243   6.249   4.907   4.222 -0.3549 -0.2671  0.8396
   9123SM  C14S12244   6.295   4.759   4.366  0.7006 -0.1613 -0.1204
   9123SM  H14S12245   6.403   4.777   4.384  0.4711 -0.4601  1.7477
   9123SM  H14T12246   6.287   4.648   4.370 -1.6358 -0.0089  2.2717
   9123SM  C15S12247   6.201   4.831   4.466 -0.1726 -0.4529  0.1137
   9123SM  H15S12248   6.099   4.787   4.457 -0.8307  1.2676 -1.6001
   9123SM  H15T12249   6.191   4.940   4.444 -0.5470 -0.3500  0.7532
   9123SM  C16S12250   6.252   4.810   4.610  0.1235 -0.0464  0.3295
   9123SM  H16S12251   6.359   4.837   4.622  0.0354  3.2117 -3.7713
   9123SM  H16T12252   6.237   4.702   4.628  1.9840 -0.1095  1.9315
   9123SM  C17S12253   6.188   4.890   4.725  0.1455 -0.1920 -0.4704
   9123SM  H17S12254   6.231   4.991   4.708  0.5958 -0.5226 -1.4393
   9123SM  H17T12255   6.225   4.854   4.823 -0.3946  0.5215  0.0003
   9123SM  C18S12256   6.034   4.892   4.719 -0.5427  0.4620 -0.1346
   9123SM  H18S12257   6.006   4.784   4.715  1.8392 -0.2148 -0.8595
   9123SM  H18T12258   5.983   4.936   4.631 -1.3977  0.1452  0.1976
   9123SM  H18U12259   5.996   4.927   4.817  1.6104  2.5125  0.0533
   9123SM   C1F12260   7.043   4.476   3.327  0.6934 -0.5221 -0.0417
   9123SM    OF12261   7.143   4.525   3.280 -0.3676  0.1871  0.3364
   9123SM   C2F12262   7.059   4.366   3.429 -0.1885  0.2921  0.4226
   9123SM   H2F12263   7.168   4.344   3.431  0.1103  1.5572 -0.7594
   9123SM   H2G12264   7.014   4.275   3.384  3.1593 -1.5409  0.4046
   9123SM   C3F12265   7.009   4.395   3.576  0.4584 -0.2459  0.0405
   9123SM   H3F12266   6.901   4.418   3.570  0.4195 -0.5420 -0.4139
   9123SM   H3G12267   7.050   4.492   3.611 -2.0915  1.1252 -0.5702
   9123SM   C4F12268   7.041   4.276   3.667  0.3466 -0.0390 -0.4012
   9123SM   H4F12269   7.136   4.231   3.633  0.9806  1.0905 -0.1631
   9123SM   H4G12270   6.967   4.193   3.654 -0.2084  0.5022 -0.7580
   9123SM   C5F12271   7.042   4.312   3.813  0.0285 -0.2427 -0.8765
   9123SM   H5F12272   7.041   4.219   3.873 -0.8315 -0.5419 -1.3248
   9123SM   H5G12273   6.952   4.373   3.838 -1.8312 -2.2759 -2.1939
   9123SM   C6F12274   7.168   4.406   3.853  0.5636 -0.0204  0.7252
   9123SM   H6F12275   7.161   4.495   3.786 -1.6190 -1.6421 -1.3985
   9123SM   H6G12276   7.264   4.358   3.827  0.6030  1.0359 -1.3195
   9123SM   C7F12277   7.172   4.433   4.004  0.0890 -0.0258  0.0118
   9123SM   H7F12278   7.086   4.498   4.032  0.2585  0.1858  0.0491
   9123SM   H7G12279   7.263   4.496   4.013 -0.7836  1.7473 -2.4894
   9123SM   C8F12280   7.175   4.304   4.098  0.2576  0.2538 -0.3706
   9123SM   H8F12281   7.237   4.229   4.044  0.1784 -0.0122 -0.0867
   9123SM   H8G12282   7.081   4.247   4.104  0.7788 -0.8229 -1.7307
   9123SM   C9F12283   7.227   4.338   4.238  0.4202 -0.5660 -0.6922
   9123SM   H9F12284   7.165   4.408   4.298 -0.2353 -1.2083 -0.6037
   9123SM   H9G12285   7.324   4.388   4.220  0.4373  0.2145  1.3463
   9123SM  C10F12286   7.260   4.213   4.308  0.6137  0.9022 -1.1386
   9123SM  H10F12287   7.311   4.145   4.236 -1.9099 -0.7176 -1.5260
   9123SM  H10G12288   7.165   4.166   4.343 -0.0067  2.5193 -0.5524
   9123SM  C11F12289   7.338   4.244   4.438  0.4293 -0.3000  0.6256
   9123SM  H11F12290   7.290   4.328   4.492  0.1102 -0.6475  0.8914
   9123SM  H11G12291   7.440   4.279   4.408 -0.2251  0.5654 -0.6662
   9123SM  C12F12292   7.344   4.127   4.539 -0.7112 -0.0227 -0.3447
   9123SM  H12F12293   7.241   4.095   4.568 -2.5886  2.0040 -4.0096
   9123SM  H12G12294   7.401   4.160   4.628 -0.1294 -1.6822 -0.0577
   9123SM  C13F12295   7.430   4.011   4.483  1.1112  0.1481 -0.0562
   9123SM  H13F12296   7.524   4.050   4.439  2.0191 -0.0432  1.6012
   9123SM  H13G12297   7.371   3.949   4.412  0.1698 -2.4902  2.7822
   9123SM  C14F12298   7.463   3.914   4.595  0.0898  0.6576  0.3331
   9123SM  H14F12299   7.446   3.970   4.689 -1.1747  0.2929  0.3388
   9123SM  H14G12300   7.571   3.890   4.583 -0.8161 -2.9538 -2.5650
   9123SM  C15F12301   7.390   3.778   4.591  0.1384  0.3469 -0.8417
   9123SM  H15F12302   7.422   3.713   4.674 -2.9926  1.5933  1.5409
   9123SM  H15G12303   7.409   3.726   4.495 -1.6197  0.9131 -1.5384
   9123SM  C16F12304   7.243   3.789   4.626 -0.2011 -0.2187  0.0840
   9123SM  H16F12305   7.182   3.827   4.541 -3.2756 -0.4354  2.0515
   9123SM  H16G12306   7.234   3.852   4.717  1.8231  1.7537 -0.9786
   9123SM  C17F12307   7.174   3.647   4.646 -0.2717 -0.0812 -0.7468
   9123SM  H17F12308   7.224   3.585   4.723 -2.9488 -0.7554  0.5953
   9123SM  H17G12309   7.186   3.590   4.552 -2.6823 -0.7526 -0.7122
   9123SM  C18F12310   7.025   3.654   4.681 -0.4536  0.3654  0.0903
   9123SM  H18F12311   6.980   3.553   4.665 -1.1072  0.6866 -0.1271
   9123SM  H18G12312   6.967   3.711   4.605 -2.4322 -0.0964  1.1736
   9123SM  C19F12313   6.991   3.714   4.816  0.1892 -0.0574 -0.6805
   9123SM  H19F12314   6.880   3.717   4.815  0.1561 -0.9035 -1.6495
   9123SM  H19G12315   7.040   3.813   4.827 -2.1031  0.8826  2.4844
   9123SM  C20F12316   7.030   3.626   4.941 -0.4121  0.3095  0.6724
   9123SM  H20F12317   7.141   3.639   4.945 -0.0177 -2.5535  0.7469
   9123SM  H20G12318   7.019   3.520   4.912 -0.3003 -0.4120  3.0519
   9123SM  C21F12319   6.960   3.655   5.072  0.0743  0.4088 -0.8426
   9123SM  H21F12320   6.964   3.561   5.131 -2.8095  1.4789  1.2595
   9123SM  H21G12321   6.855   3.687   5.058  0.5897  3.7773  1.7379
   9123SM  C22F12322   7.035   3.760   5.153  0.2640 -0.0592 -0.4616
   9123SM  H22F12323   7.033   3.857   5.100 -0.4292 -0.1726 -0.6572
   9123SM  H22G12324   7.136   3.725   5.182  0.3949 -0.9614 -1.8957
   9123SM  C23F12325   6.967   3.778   5.291 -0.2170 -0.7818  0.9712
   9123SM  H23F12326   7.017   3.858   5.349 -0.2084 -0.8331  1.0353
   9123SM  H23G12327   6.979   3.680   5.343  0.8335 -2.2819 -1.8538
   9123SM  H23H12328   6.859   3.788   5.270 -0.0451 -0.8267  0.0452
   9223SM     N12329   4.823   1.365   2.416 -0.1896  0.3872  0.1597
   9223SM   C1512330   4.887   1.453   2.317  0.1503  0.5615  0.7164
   9223SM  H15A12331   4.838   1.548   2.322 -0.1417  0.3679  1.8902
   9223SM  H15B12332   4.886   1.410   2.218 -0.8934 -0.2888  1.0777
   9223SM  H15C12333   4.992   1.466   2.341  0.1412 -0.8097  1.5996
   9223SM   C1412334   4.679   1.378   2.411 -0.4991  0.1887 -0.7994
   9223SM  H14A12335   4.635   1.476   2.423 -2.9401 -0.5329 -2.8724
   9223SM  H14B12336   4.632   1.330   2.495 -0.4645  0.9680 -0.3194
   9223SM  H14C12337   4.646   1.331   2.319 -1.6520 -4.4126  1.6528
   9223SM   C1312338   4.856   1.222   2.377 -0.2430 -0.3881 -0.2085
   9223SM  H13A12339   4.804   1.187   2.289  1.3407  0.3793 -1.4998
   9223SM  H13B12340   4.823   1.159   2.459  2.4525 -3.0384 -0.9863
   9223SM  H13C12341   4.961   1.209   2.358  0.3099 -0.6280  2.5978
   9223SM   C1212342   4.874   1.402   2.558 -0.6202  0.5493 -0.4442
   9223SM  H12A12343   4.801   1.371   2.631  0.4389  0.9653  0.8370
   9223SM  H12B12344   4.885   1.509   2.557  1.9062  0.4072  1.5434
   9223SM   C1112345   5.011   1.340   2.615  0.2975  0.0436  0.4534
   9223SM  H11A12346   5.006   1.229   2.607 -1.9260  0.1621 -0.4735
   9223SM  H11B12347   5.012   1.364   2.724  4.5221  0.1289  0.5480
   9223SM     P12348   5.177   1.527   2.538 -0.0157 -0.2367  0.4509
   9223SM   O1312349   5.313   1.514   2.481  0.1123  0.2214 -0.4868
   9223SM   O1412350   5.090   1.619   2.468 -0.4928  0.3683 -0.6629
   9223SM   O1112351   5.187   1.569   2.689  0.2472 -0.1739  0.4465
   9223SM   O1212352   5.128   1.379   2.544  0.1209  0.4460 -0.0360
   9223SM   C1S12353   5.098   1.665   2.744 -0.1374  0.2308 -0.0571
   9223SM   H1S12354   4.997   1.660   2.698 -0.1864  0.7149 -0.0058
   9223SM   H1T12355   5.132   1.766   2.712  0.0719 -0.0412 -0.7280
   9223SM    NF12356   4.996   1.743   2.948  0.0949 -0.1812  0.3122
   9223SM   HNF12357   5.032   1.822   2.996  0.2933  0.3651 -0.6898
   9223SM   C2S12358   5.088   1.648   2.895 -0.6768  0.5168 -0.2176
   9223SM   H2S12359   5.044   1.548   2.914  0.6332 -0.1605 -0.6189
   9223SM   C3S12360   5.225   1.640   2.963 -0.4703 -0.6428  0.2425
   9223SM   H3S12361   5.284   1.727   2.927 -0.8063 -0.8769 -0.9006
   9223SM    O312362   5.306   1.533   2.922  0.4539 -0.5510  0.2886
   9223SM   HO312363   5.264   1.503   2.841  0.0174  0.6326  0.0583
   9223SM   C4S12364   5.228   1.652   3.117 -0.0796 -0.1371  0.3692
   9223SM   H4S12365   5.155   1.592   3.174  0.9354 -1.4676  0.3445
   9223SM   C5S12366   5.312   1.735   3.193  0.4804 -0.2845  0.0489
   9223SM   H5S12367   5.389   1.793   3.140  0.0455  0.2396 -0.0178
   9223SM   C6S12368   5.297   1.746   3.343 -0.1909  0.4866  0.4779
   9223SM   H6S12369   5.209   1.808   3.371 -0.7067 -0.9673  2.2501
   9223SM   H6T12370   5.394   1.779   3.385  0.9761 -1.9432 -0.1177
   9223SM   C7S12371   5.287   1.610   3.413  0.0448 -0.5993 -0.1711
   9223SM   H7S12372   5.363   1.544   3.366 -0.5827 -0.0843 -2.0193
   9223SM   H7T12373   5.185   1.567   3.397 -0.4192 -0.2518  1.6732
   9223SM   C8S12374   5.310   1.629   3.559 -0.7612  0.5915  0.3085
   9223SM   H8S12375   5.236   1.700   3.601 -0.0662  1.1839  0.5495
   9223SM   H8T12376   5.410   1.672   3.581  0.7694 -1.3773 -2.2761
   9223SM   C9S12377   5.291   1.493   3.630 -0.3573 -0.0944 -0.0147
   9223SM   H9S12378   5.355   1.427   3.568  0.7507 -0.5007  1.4893
   9223SM   H9T12379   5.186   1.457   3.636 -0.8983  1.4778  0.7132
   9223SM  C10S12380   5.350   1.476   3.774  0.5454 -0.2450  0.4611
   9223SM  H10S12381   5.460   1.489   3.767  0.4618  0.3914  0.3121
   9223SM  H10T12382   5.324   1.376   3.815  0.6413  0.1225  1.4238
   9223SM  C11S12383   5.279   1.577   3.868  0.0490 -0.2473 -0.0826
   9223SM  H11S12384   5.172   1.580   3.838  0.2921  0.8884 -0.9061
   9223SM  H11T12385   5.328   1.673   3.841 -0.4820  0.3415  0.9918
   9223SM  C12S12386   5.290   1.545   4.016  0.2120 -0.6019 -0.0192
   9223SM  H12S12387   5.205   1.474   4.030  0.6022 -0.8511  1.1864
   9223SM  H12T12388   5.268   1.631   4.083  0.2243  0.3438 -1.2134
   9223SM  C13S12389   5.419   1.479   4.067  0.2382  1.0276  0.0868
   9223SM  H13S12390   5.502   1.547   4.039  0.2362  2.3444  2.9360
   9223SM  H13T12391   5.420   1.385   4.008  0.0706  0.1854  1.3837
   9223SM  C14S12392   5.431   1.451   4.219 -0.3908  0.0058 -0.3933
   9223SM  H14S12393   5.362   1.368   4.247 -0.0513 -0.5934 -1.2965
   9223SM  H14T12394   5.406   1.544   4.276  1.5273  2.0956 -2.7367
   9223SM  C15S12395   5.566   1.395   4.251 -0.3214  0.5208  0.5575
   9223SM  H15S12396   5.650   1.455   4.211  0.9091 -1.9706 -0.8159
   9223SM  H15T12397   5.573   1.299   4.194  0.7206  0.2384  1.1419
   9223SM  C16S12398   5.588   1.380   4.399 -0.4371 -0.7436  0.3945
   9223SM  H16S12399   5.497   1.335   4.444 -2.0271 -0.6813 -2.5124
   9223SM  H16T12400   5.614   1.479   4.442  1.3462 -0.1803 -1.7669
   9223SM  C17S12401   5.706   1.290   4.432 -0.3593  0.3247 -0.5370
   9223SM  H17S12402   5.802   1.323   4.389 -0.3689  1.2670  0.1427
   9223SM  H17T12403   5.672   1.190   4.397  2.7961 -1.1334  0.2662
   9223SM  C18S12404   5.724   1.279   4.588  0.4957  0.9722  0.2248
   9223SM  H18S12405   5.722   1.381   4.632 -2.3229  0.2339  2.0867
   9223SM  H18T12406   5.811   1.214   4.612 -0.3411 -1.1004 -1.9364
   9223SM  H18U12407   5.638   1.231   4.640  1.5649 -0.5000  0.6911
   9223SM   C1F12408   4.867   1.742   2.926 -0.5594 -0.4400 -0.2015
   9223SM    OF12409   4.824   1.641   2.872  0.7137 -0.6617  0.0755
   9223SM   C2F12410   4.772   1.856   2.967  0.4191 -0.0298 -0.5173
   9223SM   H2F12411   4.737   1.908   2.876 -1.4132 -0.6274 -0.2108
   9223SM   H2G12412   4.834   1.924   3.028  2.3170 -2.0305 -0.0649
   9223SM   C3F12413   4.642   1.801   3.042  0.3529  0.0281  0.3019
   9223SM   H3F12414   4.588   1.728   2.978  1.0752 -0.7628  0.5818
   9223SM   H3G12415   4.571   1.886   3.057  1.7306  1.0398  1.4407
   9223SM   C4F12416   4.666   1.752   3.192  1.0428  0.2450  0.2761
   9223SM   H4F12417   4.716   1.654   3.180 -1.1880 -0.7378 -1.9049
   9223SM   H4G12418   4.567   1.732   3.237  0.4527 -0.6589 -1.3346
   9223SM   C5F12419   4.760   1.854   3.266  0.2820  0.2509 -0.5686
   9223SM   H5F12420   4.728   1.956   3.234  1.3790  0.8388  0.1494
   9223SM   H5G12421   4.865   1.832   3.237  0.2088  0.8677 -1.3706
   9223SM   C6F12422   4.735   1.852   3.415 -0.1546 -0.2420  0.0970
   9223SM   H6F12423   4.625   1.859   3.431  0.0625 -0.3154  1.7966
   9223SM   H6G12424   4.783   1.943   3.456  0.3843 -0.9505  1.1083
   9223SM   C7F12425   4.777   1.720   3.481 -0.1890  0.0583  0.4523
   9223SM   H7F12426   4.878   1.686   3.450 -0.1947 -0.5395  1.0862
   9223SM   H7G12427   4.709   1.639   3.450  0.7998 -0.1910 -1.2135
   9223SM   C8F12428   4.766   1.730   3.631  0.3650  0.3279 -0.2987
   9223SM   H8F12429   4.661   1.757   3.654  0.6883  0.9822  0.4918
   9223SM   H8G12430   4.825   1.822   3.651 -1.8351  1.7463 -0.0070
   9223SM   C9F12431   4.809   1.599   3.705  0.6255  0.0747  0.2067
   9223SM   H9F12432   4.910   1.572   3.667  0.1936 -2.5034  0.7022
   9223SM   H9G12433   4.741   1.515   3.680  1.6075 -1.0352  1.1158
   9223SM  C10F12434   4.825   1.617   3.860  0.2466 -1.0512 -0.1227
   9223SM  H10F12435   4.728   1.643   3.907  0.8857 -0.9733  1.1837
   9223SM  H10G12436   4.891   1.703   3.883 -0.4138 -0.9062  1.2996
   9223SM  C11F12437   4.884   1.489   3.927 -0.6507  0.2362  0.1185
   9223SM  H11F12438   4.960   1.444   3.860 -1.5064 -1.1435  0.0205
   9223SM  H11G12439   4.805   1.411   3.935  0.9628 -1.3895  1.0295
   9223SM  C12F12440   4.934   1.528   4.067 -0.1056  0.8141 -0.2314
   9223SM  H12F12441   4.876   1.610   4.114 -0.4144  0.0940  0.6565
   9223SM  H12G12442   5.039   1.564   4.069  0.1453  0.0987  1.9966
   9223SM  C13F12443   4.946   1.401   4.163  0.3478 -0.1625  0.6626
   9223SM  H13F12444   4.987   1.317   4.103  0.1743 -0.2005  0.5982
   9223SM  H13G12445   4.847   1.366   4.198  0.5243  0.6181  2.0259
   9223SM  C14F12446   5.038   1.439   4.283  0.3319  0.8910  0.2319
   9223SM  H14F12447   4.997   1.530   4.333 -1.0555 -0.4325  1.6048
   9223SM  H14G12448   5.131   1.478   4.235  0.4470  0.4448  0.0850
   9223SM  C15F12449   5.079   1.335   4.394  0.0166  0.3501 -0.1619
   9223SM  H15F12450   5.113   1.246   4.337  1.5661  0.8852 -0.1237
   9223SM  H15G12451   4.989   1.309   4.454  0.6021 -2.6276 -0.4308
   9223SM  C16F12452   5.188   1.393   4.490 -0.3067  0.0751  0.0403
   9223SM  H16F12453   5.141   1.464   4.562  0.5180 -1.0550  1.7497
   9223SM  H16G12454   5.262   1.460   4.442 -0.8118  0.1828 -0.6051
   9223SM  C17F12455   5.257   1.288   4.576  0.0930  0.6541 -0.0171
   9223SM  H17F12456   5.322   1.227   4.510  0.3431  0.9518 -0.0426
   9223SM  H17G12457   5.188   1.218   4.628  2.0198 -1.2161  0.1346
   9223SM  C18F12458   5.349   1.355   4.686 -0.2521 -1.0209  0.8484
   9223SM  H18F12459   5.288   1.434   4.735 -1.5450 -0.7471 -1.0863
   9223SM  H18G12460   5.441   1.392   4.636  0.6361 -1.9698  1.6999
   9223SM  C19F12461   5.393   1.245   4.783 -0.2084 -0.5654 -0.6345
   9223SM  H19F12462   5.450   1.169   4.725  2.0825 -1.2400  2.2669
   9223SM  H19G12463   5.305   1.197   4.829  0.3993 -1.1205 -0.0300
   9223SM  C20F12464   5.470   1.309   4.898  0.1259  0.0562  0.0065
   9223SM  H20F12465   5.443   1.410   4.934 -1.6067 -1.4737  3.5297
   9223SM  H20G12466   5.579   1.311   4.874  0.1824  0.8909  0.2974
   9223SM  C21F12467   5.460   1.229   5.029 -0.1751 -0.1102  0.0279
   9223SM  H21F12468   5.473   1.120   5.008 -0.5394 -0.1819  0.1666
   9223SM  H21G12469   5.351   1.233   5.053  0.1863  1.8354  1.5733
   9223SM  C22F12470   5.542   1.284   5.148 -0.7551  0.5287 -0.2740
   9223SM  H22F12471   5.514   1.237   5.245  0.8173 -2.1408 -1.0086
   9223SM  H22G12472   5.541   1.395   5.147 -0.9678  0.5320  0.1804
   9223SM  C23F12473   5.692   1.255   5.136  1.3714 -0.2942  0.8094
   9223SM  H23F12474   5.710   1.146   5.151 -1.9344 -0.9657  0.6597
   9223SM  H23G12475   5.749   1.320   5.205 -0.5884  1.2524  1.0705
   9223SM  H23H12476   5.731   1.284   5.036 -0.2680  1.9220  0.7448
   9323SM     N12477   6.605   5.227   2.272  0.7435 -0.8578  0.2457
   9323SM   C1512478   6.465   5.260   2.323  0.0563  0.2301  0.3080
   9323SM  H15A12479   6.387   5.206   2.271 -0.3878  1.4085 -0.2773
   9323SM  H15B12480   6.448   5.366   2.310  0.3128  0.1711 -0.5620
   9323SM  H15C12481   6.470   5.235   2.428  0.6614 -1.5833 -0.1136
   9323SM   C1412482   6.604   5.248   2.124 -0.8776  0.0943 -0.1761
   9323SM  H14A12483   6.556   5.159   2.085 -0.8291 -0.2900  0.6052
   9323SM  H14B12484   6.706   5.254   2.089 -0.8725 -1.2747 -0.4762
   9323SM  H14C12485   6.562   5.343   2.095 -0.9285 -0.2409 -1.2333
   9323SM   C1312486   6.708   5.314   2.327 -0.0388 -0.0979  0.9600
   9323SM  H13A12487   6.668   5.413   2.309 -1.4474 -0.9199 -0.7207
   9323SM  H13B12488   6.808   5.307   2.287  0.4719 -1.1718  2.3243
   9323SM  H13C12489   6.718   5.279   2.429  1.5501 -0.4475  0.7101
   9323SM   C1212490   6.638   5.079   2.294  0.0017 -0.3061  0.0131
   9323SM  H12A12491   6.737   5.061   2.254  0.8591  4.4306 -0.4743
   9323SM  H12B12492   6.561   5.022   2.244 -0.5991 -2.0089  2.6638
   9323SM   C1112493   6.639   5.032   2.442  0.1541  0.4991 -0.4018
   9323SM  H11A12494   6.729   5.062   2.499  0.2268 -0.1147 -0.1857
   9323SM  H11B12495   6.657   4.924   2.425 -4.2316 -0.4252 -0.2702
   9323SM     P12496   6.401   4.959   2.531 -0.6009 -0.1134  0.3686
   9323SM   O1312497   6.274   5.008   2.595 -0.3740  0.1717  0.2900
   9323SM   O1412498   6.381   4.893   2.402 -0.2261  0.4427 -0.2309
   9323SM   O1112499   6.461   4.852   2.634  0.0210 -0.0360  0.2801
   9323SM   O1212500   6.518   5.064   2.513 -0.1691 -0.8405 -0.1344
   9323SM   C1S12501   6.544   4.889   2.741 -0.2943  0.3309 -0.2415
   9323SM   H1S12502   6.586   4.992   2.733  1.6798 -0.4588 -0.7929
   9323SM   H1T12503   6.633   4.823   2.746 -0.7224 -0.5672 -2.9438
   9323SM    NF12504   6.527   4.945   2.991  0.5981  1.4425  0.4689
   9323SM   HNF12505   6.581   4.891   3.054  2.1701  1.5577 -0.7121
   9323SM   C2S12506   6.466   4.874   2.877 -0.6161  0.3423  1.0455
   9323SM   H2S12507   6.372   4.923   2.845  0.6035  1.0899 -1.6837
   9323SM   C3S12508   6.438   4.724   2.910 -0.5356  0.5344 -0.1444
   9323SM   H3S12509   6.536   4.679   2.936 -2.4160 -3.9989 -0.0745
   9323SM    O312510   6.388   4.642   2.807 -0.4700 -0.2348  0.0627
   9323SM   HO312511   6.375   4.704   2.735 -1.0127 -0.2343  0.1595
   9323SM   C4S12512   6.356   4.699   3.039  0.8809  0.3454 -0.0884
   9323SM   H4S12513   6.259   4.749   3.027  0.9881  0.4152 -0.7317
   9323SM   C5S12514   6.388   4.626   3.151  0.6598  0.5960  0.2348
   9323SM   H5S12515   6.486   4.576   3.149  0.8738  1.0469 -1.3948
   9323SM   C6S12516   6.302   4.605   3.275  0.1115  0.2564  0.2077
   9323SM   H6S12517   6.358   4.652   3.360 -0.8943  3.1436 -0.5899
   9323SM   H6T12518   6.284   4.498   3.297  1.3011 -0.0292 -0.1747
   9323SM   C7S12519   6.159   4.665   3.279  0.4777 -0.0449  0.1004
   9323SM   H7S12520   6.096   4.634   3.193  0.5474  0.7723 -0.2486
   9323SM   H7T12521   6.161   4.776   3.274  1.3214 -0.1029 -1.4577
   9323SM   C8S12522   6.086   4.614   3.402  0.4983 -0.2242  0.1884
   9323SM   H8S12523   6.089   4.503   3.410 -1.2322 -0.3170 -0.0483
   9323SM   H8T12524   5.981   4.652   3.403  1.1029  1.5471  0.7546
   9323SM   C9S12525   6.147   4.674   3.537  0.7653 -0.0324  0.2848
   9323SM   H9S12526   6.116   4.781   3.538 -0.4526 -0.2438 -2.8552
   9323SM   H9T12527   6.258   4.672   3.548  0.8217  1.7745  0.3253
   9323SM  C10S12528   6.090   4.613   3.667  0.3349 -1.2213 -0.0305
   9323SM  H10S12529   5.984   4.644   3.685  0.3523  0.1997 -2.0235
   9323SM  H10T12530   6.151   4.648   3.752 -1.2714 -1.4800  1.2894
   9323SM  C11S12531   6.110   4.465   3.688 -0.4741  0.3807 -0.4586
   9323SM  H11S12532   6.216   4.441   3.669 -0.4365 -0.7206  0.9688
   9323SM  H11T12533   6.057   4.414   3.605  0.3249 -0.6294 -0.3672
   9323SM  C12S12534   6.080   4.426   3.830 -0.0502  0.0302  0.2171
   9323SM  H12S12535   6.076   4.315   3.835  1.4696 -0.0066  1.2117
   9323SM  H12T12536   5.989   4.470   3.877  1.5819  1.3328  2.3211
   9323SM  C13S12537   6.203   4.467   3.926 -0.2894 -0.5737 -0.2819
   9323SM  H13S12538   6.200   4.578   3.938 -1.1467 -0.5543 -0.6394
   9323SM  H13T12539   6.301   4.442   3.879  0.7314  1.4015  0.6631
   9323SM  C14S12540   6.207   4.410   4.073 -0.6937 -0.3406  0.3009
   9323SM  H14S12541   6.302   4.450   4.114  0.1488 -0.8103 -1.1165
   9323SM  H14T12542   6.238   4.303   4.065  1.3856  0.1516  1.3289
   9323SM  C15S12543   6.083   4.437   4.154  0.0805  0.0735 -0.4150
   9323SM  H15S12544   6.078   4.546   4.176  0.5941 -0.4096  2.6233
   9323SM  H15T12545   5.988   4.417   4.099  0.3108  0.0956 -0.8219
   9323SM  C16S12546   6.089   4.364   4.290  0.1143 -0.0538 -0.4360
   9323SM  H16S12547   6.166   4.411   4.356 -1.0277 -0.3013  1.1344
   9323SM  H16T12548   6.115   4.257   4.281 -0.0172 -0.2852  1.4578
   9323SM  C17S12549   5.955   4.365   4.367  0.4308  0.6120  0.4215
   9323SM  H17S12550   5.940   4.289   4.446  0.7115  1.5228  1.3781
   9323SM  H17T12551   5.876   4.335   4.296  2.0196 -1.8504 -0.4265
   9323SM  C18S12552   5.925   4.504   4.433  0.3095 -0.2410  0.5528
   9323SM  H18S12553   5.834   4.502   4.496 -0.3868  2.1029 -0.2648
   9323SM  H18T12554   5.903   4.570   4.345  0.4590  0.0098  0.7012
   9323SM  H18U12555   6.015   4.543   4.484  0.5609  0.2276 -0.2245
   9323SM   C1F12556   6.514   5.075   3.003 -0.6282  0.4873  0.2301
   9323SM    OF12557   6.466   5.144   2.913 -0.1035 -0.6493 -0.2356
   9323SM   C2F12558   6.582   5.136   3.124  0.2382 -0.4451 -0.3962
   9323SM   H2F12559   6.674   5.189   3.093 -0.2421  1.5691  1.3231
   9323SM   H2G12560   6.610   5.054   3.194 -0.0282 -0.2962 -0.1107
   9323SM   C3F12561   6.488   5.241   3.194 -0.1213  0.3344 -0.0469
   9323SM   H3F12562   6.443   5.322   3.132 -0.9284 -2.1306 -2.9505
   9323SM   H3G12563   6.555   5.286   3.270  0.6529 -0.9283  0.0520
   9323SM   C4F12564   6.360   5.172   3.246 -0.5689  0.1236 -0.3930
   9323SM   H4F12565   6.304   5.140   3.156 -0.6434  0.6620 -0.5377
   9323SM   H4G12566   6.296   5.253   3.288 -1.9546 -0.3398 -1.5395
   9323SM   C5F12567   6.370   5.064   3.353  0.4081 -0.9413 -0.2692
   9323SM   H5F12568   6.443   4.994   3.306  2.2962  1.7783 -1.7056
   9323SM   H5G12569   6.275   5.010   3.374 -0.2637 -0.3667 -1.6969
   9323SM   C6F12570   6.441   5.117   3.482 -0.0338 -0.1736  0.2533
   9323SM   H6F12571   6.519   5.192   3.460  1.8930 -1.8888  0.9771
   9323SM   H6G12572   6.496   5.034   3.531 -0.6340 -0.2848  0.7538
   9323SM   C7F12573   6.348   5.193   3.578 -0.1069 -0.4724  0.3633
   9323SM   H7F12574   6.281   5.117   3.624 -1.3010  0.7363  0.6491
   9323SM   H7G12575   6.291   5.266   3.517 -1.3894 -2.3387 -0.7649
   9323SM   C8F12576   6.420   5.255   3.701 -0.1488  0.2384  1.1000
   9323SM   H8F12577   6.487   5.331   3.657 -1.6233 -0.1542 -2.1711
   9323SM   H8G12578   6.469   5.167   3.749 -0.1131  0.0269  0.6800
   9323SM   C9F12579   6.315   5.320   3.799  0.1704 -0.2013 -0.1815
   9323SM   H9F12580   6.237   5.242   3.809  0.3399 -0.1907  1.5647
   9323SM   H9G12581   6.264   5.406   3.750  0.3567  1.5599  2.4858
   9323SM  C10F12582   6.368   5.368   3.936  0.1154 -1.0930 -0.1484
   9323SM  H10F12583   6.424   5.293   3.996 -1.3450 -1.3965  0.8883
   9323SM  H10G12584   6.279   5.400   3.993 -0.3163  0.7806 -1.7781
   9323SM  C11F12585   6.461   5.497   3.945 -0.1981 -0.7350 -0.0613
   9323SM  H11F12586   6.560   5.459   3.912 -0.1693 -0.7208  0.0109
   9323SM  H11G12587   6.473   5.538   4.047 -0.9792 -0.5183 -0.0457
   9323SM  C12F12588   6.434   5.618   3.854  0.1946 -0.5628 -0.1371
   9323SM  H12F12589   6.327   5.645   3.863  0.2336 -0.2826 -0.5011
   9323SM  H12G12590   6.456   5.592   3.748 -0.5754 -0.7328 -0.2588
   9323SM  C13F12591   6.520   5.742   3.870 -0.9615 -0.4153  0.0472
   9323SM  H13F12592   6.625   5.707   3.863 -0.2786  1.2154  1.4566
   9323SM  H13G12593   6.504   5.789   3.970 -0.6986  0.0230 -0.1114
   9323SM  C14F12594   6.479   5.844   3.760 -0.0307 -1.1870  1.2944
   9323SM  H14F12595   6.378   5.887   3.778  1.0298  3.9607 -2.6371
   9323SM  H14G12596   6.470   5.796   3.660 -1.3303  0.3902  0.6114
   9323SM  C15F12597   6.573   5.965   3.746  0.1448  0.4184 -0.0816
   9323SM  H15F12598   6.672   5.934   3.788 -0.8316 -0.8218  1.4174
   9323SM  H15G12599   6.536   6.050   3.807  2.7019  0.7953  1.0900
   9323SM  C16F12600   6.581   6.015   3.599  0.1733 -0.0337  0.3709
   9323SM  H16F12601   6.480   6.047   3.565  1.0031  0.3989 -1.8818
   9323SM  H16G12602   6.632   5.940   3.534  2.6326  2.6874 -1.0861
   9323SM  C17F12603   6.680   6.130   3.596 -0.0201 -0.8495  0.1131
   9323SM  H17F12604   6.775   6.087   3.633  0.6679  0.6674  0.1849
   9323SM  H17G12605   6.649   6.210   3.667  0.9895 -0.2793 -0.0627
   9323SM  C18F12606   6.722   6.183   3.446  1.4560 -0.3453  0.1758
   9323SM  H18F12607   6.798   6.264   3.448  0.1348  1.0154 -1.3081
   9323SM  H18G12608   6.621   6.204   3.403  0.8471 -2.1680  0.6111
   9323SM  C19F12609   6.766   6.080   3.350  0.1931 -0.0300 -0.2215
   9323SM  H19F12610   6.797   6.125   3.254 -0.8642  0.7373 -0.2126
   9323SM  H19G12611   6.676   6.018   3.327 -1.9518  2.0057  2.0624
   9323SM  C20F12612   6.889   6.003   3.402  0.7013  0.6220  0.9695
   9323SM  H20F12613   6.859   5.920   3.469 -3.1470  1.6495  0.7675
   9323SM  H20G12614   6.958   6.071   3.456  2.4377  0.5449 -1.0461
   9323SM  C21F12615   6.973   5.938   3.290 -0.1288  0.0558  0.3082
   9323SM  H21F12616   7.035   6.018   3.243 -0.8070 -1.4723 -3.5954
   9323SM  H21G12617   6.900   5.906   3.212  1.7494 -3.7955 -0.0788
   9323SM  C22F12618   7.048   5.813   3.335  0.3941 -0.1627  0.2258
   9323SM  H22F12619   6.984   5.733   3.377 -0.1973  0.7178  1.0621
   9323SM  H22G12620   7.125   5.835   3.413  2.1734 -0.8257 -1.2637
   9323SM  C23F12621   7.115   5.747   3.215 -0.1943 -0.3616 -0.6180
   9323SM  H23F12622   7.169   5.655   3.246 -0.7306 -0.3065  0.5580
   9323SM  H23G12623   7.180   5.823   3.166 -0.1385 -0.3421 -0.5167
   9323SM  H23H12624   7.035   5.726   3.141  0.7245  1.4683 -2.2058
   9423SM     N12625   5.530   6.187   2.499  0.4313  0.3252 -0.2970
   9423SM   C1512626   5.565   6.271   2.616  0.4783 -0.3553 -0.0434
   9423SM  H15A12627   5.476   6.298   2.671  0.6246  0.1596 -0.0530
   9423SM  H15B12628   5.608   6.367   2.591  0.9914 -0.4080  0.6137
   9423SM  H15C12629   5.640   6.224   2.677  0.4040 -0.9348 -0.3908
   9423SM   C1412630   5.664   6.152   2.430 -0.2902 -0.8134  0.5588
   9423SM  H14A12631   5.729   6.100   2.498  0.0690 -0.7646  0.2530
   9423SM  H14B12632   5.705   6.245   2.392 -1.4094  1.1069  3.6094
   9423SM  H14C12633   5.640   6.094   2.343 -0.0851  1.4934 -1.1376
   9423SM   C1312634   5.480   6.056   2.548 -0.7139  1.0568  0.3203
   9423SM  H13A12635   5.397   6.069   2.617  0.0662  0.0699  1.5055
   9423SM  H13B12636   5.555   6.000   2.602  0.1829 -0.2452 -2.1271
   9423SM  H13C12637   5.462   6.001   2.457  3.3240 -0.8211  0.4397
   9423SM   C1212638   5.436   6.260   2.399  0.0343  0.3632  0.2780
   9423SM  H12A12639   5.332   6.263   2.428 -0.6722  0.8439 -2.1414
   9423SM  H12B12640   5.425   6.207   2.306  0.4133  1.8754 -0.6600
   9423SM   C1112641   5.464   6.405   2.356 -0.6496 -0.5757 -0.0994
   9423SM  H11A12642   5.460   6.471   2.445  0.6546  0.3881 -0.7290
   9423SM  H11B12643   5.382   6.432   2.286 -0.0039  2.4121  0.2031
   9423SM     P12644   5.693   6.523   2.329 -0.0614 -0.0589 -0.3232
   9423SM   O1312645   5.826   6.467   2.325 -0.9760 -0.1011 -0.2186
   9423SM   O1412646   5.665   6.645   2.249 -0.3235  0.5532 -0.3617
   9423SM   O1112647   5.664   6.556   2.481 -0.4348  0.8978  0.1748
   9423SM   O1212648   5.593   6.415   2.285 -0.4620  0.5804 -0.1680
   9423SM   C1S12649   5.681   6.692   2.526 -0.3576 -0.1774  0.4000
   9423SM   H1S12650   5.626   6.765   2.464  0.1307 -0.6363 -0.5879
   9423SM   H1T12651   5.789   6.722   2.527  0.0116 -1.4183  1.7155
   9423SM    NF12652   5.595   6.835   2.715  0.1049 -0.3641  0.6202
   9423SM   HNF12653   5.648   6.897   2.773  1.0773 -0.8149  0.2344
   9423SM   C2S12654   5.639   6.701   2.677  0.5601  0.3024 -0.7325
   9423SM   H2S12655   5.550   6.636   2.688  0.2617  1.0016  1.4152
   9423SM   C3S12656   5.739   6.638   2.766 -0.1238 -0.4728  0.4689
   9423SM   H3S12657   5.840   6.683   2.761 -0.9237  1.4043  0.5106
   9423SM    O312658   5.763   6.498   2.729 -0.4304  0.5466 -0.4521
   9423SM   HO312659   5.741   6.497   2.635 -0.9338  0.3110 -0.3399
   9423SM   C4S12660   5.691   6.640   2.915 -0.4109 -0.6294  0.0411
   9423SM   H4S12661   5.720   6.735   2.963  1.9432 -2.5264  2.7479
   9423SM   C5S12662   5.631   6.545   2.987  0.6917  0.2473 -0.6138
   9423SM   H5S12663   5.623   6.442   2.948  2.6641  0.4617 -1.7605
   9423SM   C6S12664   5.580   6.579   3.134 -0.1451 -0.2280  0.2881
   9423SM   H6S12665   5.470   6.570   3.141 -0.1311  0.6203  3.1265
   9423SM   H6T12666   5.593   6.685   3.166  0.2236 -0.3937  0.6978
   9423SM   C7S12667   5.653   6.495   3.239  0.0963  0.2459 -0.1577
   9423SM   H7S12668   5.760   6.524   3.240  0.0268  0.5045  0.0402
   9423SM   H7T12669   5.640   6.387   3.216 -1.0377  0.2168  0.5254
   9423SM   C8S12670   5.595   6.520   3.383 -0.7713  0.1131  0.1308
   9423SM   H8S12671   5.488   6.490   3.384 -0.4524 -1.1099  1.4941
   9423SM   H8T12672   5.609   6.623   3.421 -1.4333  0.2751 -0.0586
   9423SM   C9S12673   5.655   6.429   3.487  0.6138  0.0417  0.6552
   9423SM   H9S12674   5.667   6.324   3.451  3.5512  1.6286 -3.8407
   9423SM   H9T12675   5.574   6.425   3.563  1.5507 -0.2398  1.6623
   9423SM  C10S12676   5.789   6.471   3.539  0.2694 -0.7333 -0.2322
   9423SM  H10S12677   5.771   6.576   3.569 -2.2608 -0.7019 -1.5850
   9423SM  H10T12678   5.868   6.474   3.461 -0.7477 -0.1909 -1.2722
   9423SM  C11S12679   5.831   6.374   3.653 -0.3504  0.0544  0.1260
   9423SM  H11S12680   5.854   6.277   3.604  1.9131  1.8487 -2.7363
   9423SM  H11T12681   5.754   6.350   3.730 -0.4612  0.8289  0.2683
   9423SM  C12S12682   5.963   6.415   3.721  0.0298  0.7711  0.0351
   9423SM  H12S12683   5.976   6.341   3.804 -0.9549  1.6548  1.0106
   9423SM  H12T12684   5.950   6.508   3.781 -0.4161  0.2505  0.7781
   9423SM  C13S12685   6.082   6.417   3.623  0.2994 -0.3530 -0.3655
   9423SM  H13S12686   6.067   6.507   3.559 -0.1194 -1.2525 -1.5693
   9423SM  H13T12687   6.087   6.322   3.566  2.2034  0.0790 -0.9821
   9423SM  C14S12688   6.211   6.446   3.698  0.6378  0.0621  0.0650
   9423SM  H14S12689   6.235   6.371   3.777  1.8720  1.5391  1.1428
   9423SM  H14T12690   6.201   6.543   3.751 -1.1074  0.2457 -0.5081
   9423SM  C15S12691   6.332   6.450   3.604 -0.0419 -0.5014  0.2793
   9423SM  H15S12692   6.306   6.512   3.516 -0.1781  0.8243  1.2199
   9423SM  H15T12693   6.352   6.346   3.572 -2.8692 -0.6950 -1.1907
   9423SM  C16S12694   6.462   6.499   3.672  0.7346 -0.5425 -0.4321
   9423SM  H16S12695   6.542   6.478   3.597 -0.3053  0.0448 -1.7352
   9423SM  H16T12696   6.470   6.435   3.763  1.2379 -0.0125 -0.0950
   9423SM  C17S12697   6.453   6.654   3.697 -0.5837 -0.5896  0.1888
   9423SM  H17S12698   6.360   6.674   3.755  1.1007  0.4113  2.7092
   9423SM  H17T12699   6.450   6.702   3.597 -1.7139  1.3478  1.0983
   9423SM  C18S12700   6.579   6.713   3.767  0.0681 -0.1884 -0.1269
   9423SM  H18S12701   6.670   6.707   3.703 -0.1996 -0.1411 -0.5159
   9423SM  H18T12702   6.595   6.670   3.869  3.6615  1.4192  0.1343
   9423SM  H18U12703   6.568   6.823   3.774 -0.0438 -0.0607 -1.8327
   9423SM   C1F12704   5.478   6.884   2.678  0.1053  0.0514  0.8046
   9423SM    OF12705   5.407   6.826   2.593  0.2771  0.2657  0.1029
   9423SM   C2F12706   5.433   7.017   2.728  0.0489 -0.5127  0.5332
   9423SM   H2F12707   5.432   7.076   2.634  2.0361  2.1669  2.0572
   9423SM   H2G12708   5.508   7.069   2.791 -0.2764  0.3274  0.2438
   9423SM   C3F12709   5.298   7.029   2.800  0.0622  0.2102 -0.4507
   9423SM   H3F12710   5.206   7.014   2.739 -0.5773  0.5647  0.4025
   9423SM   H3G12711   5.272   7.133   2.828 -1.8303 -0.1704 -0.6658
   9423SM   C4F12712   5.285   6.955   2.938 -0.3587 -0.5540  0.3790
   9423SM   H4F12713   5.263   6.849   2.912 -0.9873 -0.0447 -1.3205
   9423SM   H4G12714   5.194   6.997   2.986 -1.8876 -1.0947 -1.8762
   9423SM   C5F12715   5.402   6.997   3.026 -0.5438  0.1346  0.1897
   9423SM   H5F12716   5.389   7.105   3.047 -0.1509  0.2617 -0.2065
   9423SM   H5G12717   5.502   6.977   2.982 -1.1146  1.3553 -1.8211
   9423SM   C6F12718   5.397   6.915   3.164 -0.2889 -0.3728 -0.3291
   9423SM   H6F12719   5.384   6.810   3.132  1.3101  0.0926 -2.8324
   9423SM   H6G12720   5.303   6.951   3.210  0.3625  0.3921  0.4467
   9423SM   C7F12721   5.515   6.954   3.258  0.2111  0.4595 -0.3082
   9423SM   H7F12722   5.515   7.064   3.277  1.5089  0.0884  2.3736
   9423SM   H7G12723   5.614   6.919   3.221 -0.9251 -1.4754 -1.6713
   9423SM   C8F12724   5.495   6.905   3.404  0.7528  0.1724 -0.3655
   9423SM   H8F12725   5.499   6.796   3.425 -1.7383  0.8027  4.9449
   9423SM   H8G12726   5.388   6.921   3.428  0.7516 -1.8348  1.2252
   9423SM   C9F12727   5.596   6.976   3.502  0.3314  0.0326  0.4955
   9423SM   H9F12728   5.585   7.086   3.490 -1.5757 -0.0145  1.4881
   9423SM   H9G12729   5.693   6.943   3.458  0.8055  0.9298  0.8329
   9423SM  C10F12730   5.582   6.929   3.641  0.0155  0.1950 -1.3973
   9423SM  H10F12731   5.621   6.826   3.651  1.2834  0.7305 -0.4207
   9423SM  H10G12732   5.477   6.928   3.676  0.4809  2.6818  0.3512
   9423SM  C11F12733   5.639   7.013   3.759 -0.2673  0.0056 -0.4325
   9423SM  H11F12734   5.587   7.112   3.760  1.2036  0.8105  1.1211
   9423SM  H11G12735   5.749   7.019   3.749 -0.1067 -2.5093 -0.5756
   9423SM  C12F12736   5.621   6.942   3.893  0.0483 -0.1145  0.8455
   9423SM  H12F12737   5.703   6.868   3.908  0.3875 -0.0570 -0.6231
   9423SM  H12G12738   5.527   6.885   3.882 -0.5602  0.9785  0.1859
   9423SM  C13F12739   5.616   7.027   4.018 -1.0719  0.6677 -0.2747
   9423SM  H13F12740   5.553   7.119   4.012 -1.9448  0.4171  3.0886
   9423SM  H13G12741   5.711   7.075   4.049 -0.9667 -0.1598  0.7524
   9423SM  C14F12742   5.559   6.949   4.132 -0.2532  0.7066 -0.4423
   9423SM  H14F12743   5.625   6.861   4.145 -1.0310  0.0268 -1.0133
   9423SM  H14G12744   5.466   6.895   4.105  0.7295 -1.7928  0.8505
   9423SM  C15F12745   5.558   7.020   4.263  0.1191 -0.3185  0.4508
   9423SM  H15F12746   5.508   7.117   4.242  0.3995 -0.4342 -0.8510
   9423SM  H15G12747   5.662   7.037   4.299  0.2949 -0.7030  0.1377
   9423SM  C16F12748   5.482   6.954   4.379  0.1414  0.0875 -0.1858
   9423SM  H16F12749   5.554   6.887   4.431  0.4407  0.8433  0.4083
   9423SM  H16G12750   5.408   6.882   4.339  1.8555 -1.8303 -0.0897
   9423SM  C17F12751   5.394   7.050   4.465  0.4426 -0.4026  0.3809
   9423SM  H17F12752   5.316   7.094   4.400  0.9164  2.8626  1.7939
   9423SM  H17G12753   5.440   7.140   4.511  0.4783  0.9000 -2.0256
   9423SM  C18F12754   5.334   6.982   4.592  0.0241 -0.5248 -0.6205
   9423SM  H18F12755   5.419   6.941   4.651 -1.1055 -0.6579  0.9836
   9423SM  H18G12756   5.267   6.894   4.582 -0.2889 -1.1704  4.3518
   9423SM  C19F12757   5.256   7.078   4.696 -0.3119 -0.2607  0.2013
   9423SM  H19F12758   5.233   7.007   4.778  0.0906 -2.5098 -1.5458
   9423SM  H19G12759   5.158   7.098   4.646  0.8350 -0.2209 -2.2098
   9423SM  C20F12760   5.328   7.193   4.755 -0.3213 -0.2661  0.1894
   9423SM  H20F12761   5.351   7.272   4.680  1.1899  0.4167  1.3181
   9423SM  H20G12762   5.416   7.149   4.807 -0.1513 -0.4106 -0.2125
   9423SM  C21F12763   5.235   7.262   4.858 -0.4066 -0.7029  0.0371
   9423SM  H21F12764   5.229   7.198   4.949  0.0697  0.2992  0.7943
   9423SM  H21G12765   5.131   7.275   4.822 -0.6744  1.9624  1.5539
   9423SM  C22F12766   5.286   7.401   4.891 -0.2620 -0.3820 -0.3042
   9423SM  H22F12767   5.209   7.449   4.955  0.4379 -1.3594  1.3583
   9423SM  H22G12768   5.301   7.468   4.804 -1.0367  1.0234  0.6095
   9423SM  C23F12769   5.414   7.397   4.971  0.0540 -0.1601 -0.3434
   9423SM  H23F12770   5.483   7.320   4.931  1.1839  1.3686 -1.4520
   9423SM  H23G12771   5.401   7.379   5.080 -0.7556 -1.9330 -0.6973
   9423SM  H23H12772   5.468   7.493   4.955 -2.1426  1.4686  1.3406
   9523SM     N12773   1.817   1.286   2.225  0.5845  0.0069  0.1096
   9523SM   C1512774   1.792   1.161   2.157  0.3749  0.3186  0.1755
   9523SM  H15A12775   1.726   1.168   2.073  1.4816 -3.1475 -1.1650
   9523SM  H15B12776   1.743   1.094   2.227  0.4381  2.0964  2.0146
   9523SM  H15C12777   1.881   1.104   2.134 -1.1334 -2.0283 -0.2240
   9523SM   C1412778   1.680   1.347   2.248  0.0259 -0.8911  0.6669
   9523SM  H14A12779   1.642   1.404   2.165  3.2347  3.0926  1.6111
   9523SM  H14B12780   1.689   1.424   2.323 -0.5036 -1.0400  0.8844
   9523SM  H14C12781   1.613   1.268   2.281 -2.6973  0.8632 -0.3544
   9523SM   C1312782   1.883   1.253   2.351  0.3391 -0.7455 -0.2808
   9523SM  H13A12783   1.922   1.347   2.386 -1.5197  0.0900 -0.3263
   9523SM  H13B12784   1.973   1.196   2.335 -0.8840 -2.7756 -0.2957
   9523SM  H13C12785   1.820   1.205   2.424 -1.3137  1.0093 -0.4881
   9523SM   C1212786   1.916   1.367   2.146 -0.1952  0.1205  0.3800
   9523SM  H12A12787   1.887   1.365   2.042 -0.7248 -0.5770  0.5388
   9523SM  H12B12788   2.018   1.332   2.144  1.0944  3.4540  1.2816
   9523SM   C1112789   1.940   1.512   2.193 -0.5909 -0.1009  0.0909
   9523SM  H11A12790   1.842   1.564   2.193 -0.0879  0.8950 -0.7843
   9523SM  H11B12791   2.020   1.552   2.127 -0.5281  0.8360  0.7179
   9523SM     P12792   2.035   1.647   2.387  0.1537  0.1671 -0.3713
   9523SM   O1312793   2.150   1.642   2.481 -0.0305 -0.1275  0.0872
   9523SM   O1412794   2.044   1.750   2.285 -0.0912 -0.3801  0.6154
   9523SM   O1112795   1.908   1.690   2.474  0.3892  0.1155  0.6297
   9523SM   O1212796   1.994   1.513   2.324 -0.7356  0.2853  0.3959
   9523SM   C1S12797   1.861   1.595   2.571  0.0951  0.0402  0.6742
   9523SM   H1S12798   1.945   1.530   2.604  1.0181  0.4038 -0.8407
   9523SM   H1T12799   1.776   1.539   2.526 -2.1625  3.3418  0.5333
   9523SM    NF12800   1.772   1.570   2.802 -0.1382 -0.0906 -0.1088
   9523SM   HNF12801   1.686   1.522   2.813  1.3102 -2.5856  1.2944
   9523SM   C2S12802   1.793   1.662   2.688  1.1998  0.5231 -0.0770
   9523SM   H2S12803   1.858   1.749   2.712 -2.1029  2.8796  1.0280
   9523SM   C3S12804   1.658   1.721   2.632  0.3378  0.2504  1.2338
   9523SM   H3S12805   1.586   1.644   2.598 -1.4724  2.9327 -1.4557
   9523SM    O312806   1.666   1.786   2.503 -0.3093  0.4694  0.5409
   9523SM   HO312807   1.749   1.759   2.464 -0.6986  1.1182 -0.7942
   9523SM   C4S12808   1.586   1.808   2.728 -0.8078 -0.7508 -0.3490
   9523SM   H4S12809   1.522   1.754   2.799  0.7845 -1.3234  0.6988
   9523SM   C5S12810   1.584   1.943   2.740  0.1851 -0.2242  0.1233
   9523SM   H5S12811   1.633   2.009   2.667  2.6950  0.3899  2.2271
   9523SM   C6S12812   1.512   2.019   2.850  0.6532 -0.6125  0.1696
   9523SM   H6S12813   1.417   1.966   2.874  0.0967  0.2423 -0.1010
   9523SM   H6T12814   1.485   2.123   2.823 -0.8606 -0.9432  0.3402
   9523SM   C7S12815   1.599   2.026   2.976 -0.2472  0.6683 -1.1142
   9523SM   H7S12816   1.689   2.082   2.943 -0.5607  1.8067 -0.1039
   9523SM   H7T12817   1.635   1.922   2.994  1.4514  1.2655 -0.8746
   9523SM   C8S12818   1.548   2.097   3.100  0.0183 -0.2648  0.3244
   9523SM   H8S12819   1.447   2.076   3.141  0.8278  1.6356  3.6664
   9523SM   H8T12820   1.540   2.204   3.071  1.8494 -0.2319 -0.2090
   9523SM   C9S12821   1.645   2.083   3.222 -0.3898 -0.5682 -0.5631
   9523SM   H9S12822   1.744   2.126   3.194  0.2415 -0.4310  1.7261
   9523SM   H9T12823   1.662   1.975   3.237  1.6614 -0.2747 -0.4280
   9523SM  C10S12824   1.608   2.151   3.355 -1.1251  0.3628  0.1126
   9523SM  H10S12825   1.591   2.259   3.338 -1.1952  0.3491  0.0952
   9523SM  H10T12826   1.696   2.143   3.422 -2.5309 -0.5743  1.9390
   9523SM  C11S12827   1.496   2.082   3.429 -0.2213  0.4607  0.3018
   9523SM  H11S12828   1.507   1.972   3.433  1.1213  0.5471 -0.3586
   9523SM  H11T12829   1.404   2.112   3.375 -0.7006  1.1925  1.4716
   9523SM  C12S12830   1.470   2.147   3.570 -0.6247 -0.4333 -0.0560
   9523SM  H12S12831   1.375   2.104   3.610 -1.2218  1.2647  0.4618
   9523SM  H12T12832   1.470   2.258   3.560  2.5121 -0.4692 -1.7204
   9523SM  C13S12833   1.571   2.107   3.682 -0.4421  0.1349 -0.8088
   9523SM  H13S12834   1.667   2.156   3.654 -0.2042  0.9810  1.3373
   9523SM  H13T12835   1.572   1.996   3.678  1.3514  0.1259 -0.5995
   9523SM  C14S12836   1.525   2.143   3.822  0.4488  0.2990 -0.3957
   9523SM  H14S12837   1.432   2.083   3.829 -0.1717  1.2106 -0.6882
   9523SM  H14T12838   1.511   2.251   3.841  2.2275  0.6726 -1.0143
   9523SM  C15S12839   1.630   2.104   3.926  0.5822  0.1364  0.8165
   9523SM  H15S12840   1.728   2.142   3.890  0.7777  0.5472  1.7574
   9523SM  H15T12841   1.639   1.994   3.924 -2.4787 -0.2238  1.7401
   9523SM  C16S12842   1.596   2.157   4.067  0.2177 -0.0623 -1.1142
   9523SM  H16S12843   1.574   2.264   4.049  0.7774  0.3744  0.5842
   9523SM  H16T12844   1.688   2.133   4.126 -0.5648 -1.0039 -0.2306
   9523SM  C17S12845   1.474   2.087   4.132  0.2108  0.3283 -0.0817
   9523SM  H17S12846   1.498   1.979   4.145  1.6237  0.6644  0.2519
   9523SM  H17T12847   1.385   2.093   4.065  0.3303 -0.9361 -0.3743
   9523SM  C18S12848   1.443   2.149   4.268  0.0951  0.1623 -0.3304
   9523SM  H18S12849   1.362   2.090   4.316 -0.7646  0.6830 -1.1063
   9523SM  H18T12850   1.415   2.256   4.262  2.3913  0.8776  0.8095
   9523SM  H18U12851   1.535   2.141   4.329 -0.3326  0.4080  0.3585
   9523SM   C1F12852   1.878   1.521   2.866 -0.1359 -0.1488 -0.7233
   9523SM    OF12853   1.986   1.583   2.872  0.2304  0.2931  1.1704
   9523SM   C2F12854   1.853   1.387   2.929 -0.2875 -0.2790 -0.1501
   9523SM   H2F12855   1.918   1.308   2.885 -0.9723 -0.7366 -0.3644
   9523SM   H2G12856   1.748   1.358   2.907 -0.4711  0.1421  0.1633
   9523SM   C3F12857   1.880   1.378   3.081  0.0402 -0.1733 -0.8179
   9523SM   H3F12858   1.807   1.443   3.133  0.7792  0.1264 -0.1205
   9523SM   H3G12859   1.977   1.426   3.107 -0.3864 -0.8522  2.4731
   9523SM   C4F12860   1.867   1.243   3.137 -0.1435 -0.4593 -0.0918
   9523SM   H4F12861   1.948   1.186   3.088 -0.9141 -3.2890  1.6459
   9523SM   H4G12862   1.771   1.196   3.104 -0.6557  1.2049 -1.0485
   9523SM   C5F12863   1.865   1.247   3.291 -0.2071  0.4103 -0.1638
   9523SM   H5F12864   1.852   1.145   3.335  0.7027  0.1738 -0.4312
   9523SM   H5G12865   1.775   1.303   3.325  0.2042  0.4846  0.8185
   9523SM   C6F12866   1.989   1.311   3.362  0.0999  0.6961  0.8877
   9523SM   H6F12867   2.000   1.414   3.322  1.3385  0.6393  1.0536
   9523SM   H6G12868   2.073   1.252   3.320  0.6174  2.2691 -0.4060
   9523SM   C7F12869   1.990   1.321   3.513  0.1619 -0.7355 -0.9436
   9523SM   H7F12870   2.080   1.370   3.555 -0.5192  0.1927 -0.5334
   9523SM   H7G12871   1.993   1.215   3.545 -0.0630 -0.1147  1.2785
   9523SM   C8F12872   1.872   1.388   3.572  0.4398  0.0183 -0.6151
   9523SM   H8F12873   1.778   1.341   3.535  1.0312 -1.7840  0.0799
   9523SM   H8G12874   1.873   1.492   3.532  1.5032  0.8537  1.4342
   9523SM   C9F12875   1.876   1.385   3.728  0.3217  0.5318 -1.1204
   9523SM   H9F12876   1.947   1.459   3.771 -2.4626  0.9429  3.3873
   9523SM   H9G12877   1.906   1.282   3.757 -1.7059  0.3786  0.6677
   9523SM  C10F12878   1.737   1.413   3.793 -0.0899  0.0228 -0.3687
   9523SM  H10F12879   1.659   1.338   3.771  0.1947 -1.4221  2.8782
   9523SM  H10G12880   1.697   1.504   3.743 -1.9291 -1.1793 -1.1714
   9523SM  C11F12881   1.763   1.439   3.946 -0.5106  0.1271  0.5268
   9523SM  H11F12882   1.674   1.489   3.992 -0.7602 -1.2440  1.5867
   9523SM  H11G12883   1.863   1.483   3.964 -0.5452  0.3267  0.2510
   9523SM  C12F12884   1.769   1.310   4.022  0.1919  0.1703 -0.3681
   9523SM  H12F12885   1.824   1.333   4.115  0.0889  0.7812 -0.4540
   9523SM  H12G12886   1.830   1.238   3.963  0.3438  0.7552 -0.9322
   9523SM  C13F12887   1.635   1.251   4.070  0.5666  0.0815  0.2068
   9523SM  H13F12888   1.556   1.235   3.994  0.9018  0.0590 -0.1407
   9523SM  H13G12889   1.591   1.323   4.142 -2.1698  0.8686 -2.0752
   9523SM  C14F12890   1.652   1.114   4.143 -0.1297 -0.0816  0.1500
   9523SM  H14F12891   1.705   1.035   4.086  1.5216  1.4299 -0.5041
   9523SM  H14G12892   1.552   1.074   4.172 -0.1126 -0.0582  0.2431
   9523SM  C15F12893   1.737   1.134   4.271 -0.4725  0.4500  0.4683
   9523SM  H15F12894   1.699   1.213   4.339  0.7141 -0.3655  2.1745
   9523SM  H15G12895   1.841   1.155   4.235  0.2277 -1.7524  1.0596
   9523SM  C16F12896   1.750   1.006   4.353 -1.0200  0.1138  0.4027
   9523SM  H16F12897   1.758   0.920   4.283 -1.2211  0.8436 -0.5313
   9523SM  H16G12898   1.659   0.977   4.410 -1.1831 -0.3883 -0.1052
   9523SM  C17F12899   1.886   0.986   4.432  0.3041 -0.5805  0.3434
   9523SM  H17F12900   1.894   1.073   4.502 -1.1737 -0.6651  0.6394
   9523SM  H17G12901   1.975   1.003   4.366  0.5881  0.0763  0.8768
   9523SM  C18F12902   1.894   0.873   4.528  0.1668  0.0850 -0.9607
   9523SM  H18F12903   1.895   0.780   4.467 -2.7928 -0.2374 -0.6805
   9523SM  H18G12904   1.809   0.874   4.599  2.2831  1.2976  1.7105
   9523SM  C19F12905   2.031   0.874   4.610 -0.2704 -0.1094 -0.0602
   9523SM  H19F12906   2.059   0.973   4.652  1.1867 -0.6564  0.3384
   9523SM  H19G12907   2.110   0.844   4.537 -0.4819 -1.1200  0.1098
   9523SM  C20F12908   2.019   0.761   4.715 -0.2139 -0.6023  0.1155
   9523SM  H20F12909   1.993   0.663   4.669 -0.8278 -0.4125  0.0471
   9523SM  H20G12910   1.940   0.780   4.791 -0.2991 -2.3559  0.5128
   9523SM  C21F12911   2.142   0.712   4.797  0.3583  0.2171  0.3015
   9523SM  H21F12912   2.192   0.789   4.860  2.9039  0.6512 -2.0340
   9523SM  H21G12913   2.214   0.662   4.729  1.5000 -0.0706  1.6774
   9523SM  C22F12914   2.099   0.606   4.903 -0.6751  0.6365 -1.0223
   9523SM  H22F12915   2.020   0.542   4.859 -1.7017  1.2822 -0.1625
   9523SM  H22G12916   2.053   0.650   4.993 -0.4609 -0.2961 -0.4440
   9523SM  C23F12917   2.223   0.521   4.943  0.2541 -0.4664 -0.3660
   9523SM  H23F12918   2.295   0.499   4.862  0.7436  3.0903 -1.0210
   9523SM  H23G12919   2.200   0.418   4.980  1.0969 -0.7204 -0.5297
   9523SM  H23H12920   2.283   0.564   5.026  0.3588 -2.4912  0.6782
   9623SM     N12921   3.818   0.404   2.059 -0.2295 -0.1012 -0.0179
   9623SM   C1512922   3.879   0.311   2.162 -0.1651 -0.2564 -0.0029
   9623SM  H15A12923   3.934   0.229   2.118 -0.7561 -0.6788  0.0312
   9623SM  H15B12924   3.794   0.263   2.209 -2.1553  0.6808 -2.4031
   9623SM  H15C12925   3.940   0.366   2.231 -0.6588 -2.0837  2.0180
   9623SM   C1412926   3.927   0.443   1.959  0.0422  0.1664  0.5006
   9623SM  H14A12927   3.884   0.500   1.879 -0.5676 -0.4910  0.3494
   9623SM  H14B12928   3.970   0.356   1.912 -0.1450  0.1921  0.2784
   9623SM  H14C12929   4.015   0.481   2.008 -0.2723 -1.0464  2.0945
   9623SM   C1312930   3.707   0.343   1.983 -0.6222  0.6586  0.0485
   9623SM  H13A12931   3.657   0.274   2.049 -0.4369 -0.1512 -0.6244
   9623SM  H13B12932   3.749   0.295   1.895  1.1807  0.8181  0.7673
   9623SM  H13C12933   3.642   0.420   1.945  1.2009  1.8388 -0.8047
   9623SM   C1212934   3.773   0.530   2.127 -0.4815 -0.0387  0.0571
   9623SM  H12A12935   3.743   0.604   2.054  0.2965 -0.6766 -0.9380
   9623SM  H12B12936   3.858   0.576   2.175  0.4863 -1.9817  0.2651
   9623SM   C1112937   3.669   0.512   2.243 -0.0967 -0.1144  0.2206
   9623SM  H11A12938   3.722   0.469   2.331  0.7538 -0.3059 -0.3681
   9623SM  H11B12939   3.603   0.430   2.209  1.3262 -0.5161 -1.7398
   9623SM     P12940   3.456   0.645   2.213  0.1829  0.1024 -0.0197
   9623SM   O1312941   3.441   0.779   2.147  0.5203  0.4321 -0.2259
   9623SM   O1412942   3.408   0.519   2.143  0.4790  0.3268 -0.9216
   9623SM   O1112943   3.388   0.652   2.352 -0.1881  0.1746 -0.0572
   9623SM   O1212944   3.611   0.635   2.256 -0.0097 -0.5456 -0.0432
   9623SM   C1S12945   3.417   0.567   2.462  0.1414  0.1520 -0.1384
   9623SM   H1S12946   3.488   0.481   2.455  0.1021 -0.0101  1.2737
   9623SM   H1T12947   3.322   0.513   2.482  0.1100  0.3388  0.2120
   9623SM    NF12948   3.466   0.579   2.713  0.2983  0.8467 -0.5722
   9623SM   HNF12949   3.397   0.596   2.783  0.1023 -0.8987 -0.2854
   9623SM   C2S12950   3.458   0.652   2.585 -0.0832  0.6559 -0.2592
   9623SM   H2S12951   3.566   0.671   2.568 -0.2401  1.5879 -0.2563
   9623SM   C3S12952   3.394   0.801   2.590  0.5088 -0.3605  0.4498
   9623SM   H3S12953   3.284   0.800   2.571  0.5552 -1.5959  0.1348
   9623SM    O312954   3.444   0.877   2.483 -0.1951  0.1243 -0.2414
   9623SM   HO312955   3.483   0.820   2.417 -1.5238 -0.0540 -0.9074
   9623SM   C4S12956   3.433   0.871   2.710 -0.7153  0.2968  0.5313
   9623SM   H4S12957   3.542   0.889   2.710 -0.1443 -2.4770  2.2094
   9623SM   C5S12958   3.364   0.908   2.822 -0.1195 -0.2387  0.2938
   9623SM   H5S12959   3.256   0.885   2.815 -0.0933  0.2276 -2.8273
   9623SM   C6S12960   3.421   0.987   2.935 -0.5884  0.1550  0.4701
   9623SM   H6S12961   3.346   1.064   2.964 -1.3067 -0.2601 -0.2330
   9623SM   H6T12962   3.504   1.050   2.897 -0.8644  0.4221  0.3082
   9623SM   C7S12963   3.477   0.918   3.058 -0.3115  0.7588  0.6908
   9623SM   H7S12964   3.387   0.866   3.097 -0.0782 -1.6582 -1.7034
   9623SM   H7T12965   3.523   0.988   3.131  0.5176  2.0557 -0.9992
   9623SM   C8S12966   3.588   0.815   3.021  0.4935  0.8127 -0.0179
   9623SM   H8S12967   3.682   0.858   2.979  0.9839  0.8747  1.1078
   9623SM   H8T12968   3.550   0.746   2.942  1.2518  0.5548 -0.1685
   9623SM   C9S12969   3.635   0.714   3.130 -0.1357 -0.2934 -0.5370
   9623SM   H9S12970   3.699   0.643   3.074 -0.8891 -1.4025 -0.0294
   9623SM   H9T12971   3.549   0.659   3.174 -0.6361 -1.9322 -3.3450
   9623SM  C10S12972   3.703   0.773   3.257 -0.3166 -0.0506 -0.3062
   9623SM  H10S12973   3.627   0.845   3.293 -1.0350 -2.1257  2.6417
   9623SM  H10T12974   3.791   0.832   3.223 -1.2086  1.2705 -0.4217
   9623SM  C11S12975   3.747   0.663   3.359  0.0928 -0.4163 -0.3402
   9623SM  H11S12976   3.834   0.610   3.313  1.2119  0.6055  0.5186
   9623SM  H11T12977   3.669   0.586   3.376  1.7974 -1.4613  4.1325
   9623SM  C12S12978   3.779   0.713   3.499  0.5240  0.0665 -0.9194
   9623SM  H12S12979   3.765   0.627   3.567 -0.1700  0.4978 -0.5122
   9623SM  H12T12980   3.688   0.771   3.524  0.2278 -1.2325  1.2775
   9623SM  C13S12981   3.905   0.803   3.503  0.6391 -0.0966  0.6968
   9623SM  H13S12982   3.873   0.881   3.430 -3.0645 -0.7423  1.4403
   9623SM  H13T12983   3.985   0.736   3.464  2.1079  1.5814  0.6851
   9623SM  C14S12984   3.921   0.878   3.639 -0.3845 -0.0968  0.1251
   9623SM  H14S12985   3.964   0.803   3.709  1.3709  0.6236 -0.1364
   9623SM  H14T12986   3.830   0.916   3.690 -0.3730  1.5469 -1.0066
   9623SM  C15S12987   4.023   0.995   3.631 -0.1133  0.2015  0.3140
   9623SM  H15S12988   3.981   1.076   3.568 -0.1253 -1.0919 -1.4455
   9623SM  H15T12989   4.113   0.960   3.576 -0.2295 -0.7546  0.6971
   9623SM  C16S12990   4.057   1.062   3.761 -0.5391  0.2852 -0.7183
   9623SM  H16S12991   3.968   1.120   3.795  0.2857  1.2949 -0.2182
   9623SM  H16T12992   4.123   1.150   3.748 -1.0224  0.9573  1.0593
   9623SM  C17S12993   4.118   0.974   3.867 -0.1107  0.0394 -0.4819
   9623SM  H17S12994   4.221   0.939   3.846 -0.4853 -1.1762 -0.3952
   9623SM  H17T12995   4.057   0.882   3.880  2.8102 -1.6966  3.2520
   9623SM  C18S12996   4.137   1.045   4.006  0.7063 -0.0771  0.4145
   9623SM  H18S12997   4.211   0.984   4.062  0.6433  0.1423  0.7405
   9623SM  H18T12998   4.038   1.047   4.057  0.4069 -0.3801 -0.1360
   9623SM  H18U12999   4.172   1.149   3.991 -0.8895  0.1713 -2.3104
   9623SM   C1F13000   3.523   0.457   2.725  0.2995 -0.2182  0.6338
   9623SM    OF13001   3.608   0.418   2.647 -0.1635  0.4203  0.5313
   9623SM   C2F13002   3.484   0.372   2.843 -0.1060  0.3447  0.2264
   9623SM   H2F13003   3.400   0.304   2.818 -0.0716  0.5380 -0.4286
   9623SM   H2G13004   3.445   0.429   2.930 -1.9135  1.1519 -1.0564
   9623SM   C3F13005   3.591   0.268   2.885 -0.1203 -0.3097 -0.1756
   9623SM   H3F13006   3.664   0.327   2.944  1.4154 -2.7358  0.5469
   9623SM   H3G13007   3.637   0.232   2.791 -0.1002  0.7978 -0.5921
   9623SM   C4F13008   3.531   0.141   2.946 -0.1536 -0.0337  0.6328
   9623SM   H4F13009   3.611   0.068   2.971 -0.7984 -0.3334  1.9049
   9623SM   H4G13010   3.473   0.085   2.869  1.5328 -0.2212 -0.5585
   9623SM   C5F13011   3.448   0.170   3.074  0.3147  0.1039 -0.8643
   9623SM   H5F13012   3.389   0.078   3.092  1.2205 -0.5261 -1.0339
   9623SM   H5G13013   3.370   0.245   3.049 -1.3154 -1.1263  0.3930
   9623SM   C6F13014   3.524   0.228   3.193 -0.1703  0.5335  0.8445
   9623SM   H6F13015   3.562   0.328   3.164 -1.4096  1.0932  1.0782
   9623SM   H6G13016   3.610   0.161   3.217 -0.3710 -0.0034  0.0883
   9623SM   C7F13017   3.436   0.241   3.324 -0.2989 -0.5785  0.1302
   9623SM   H7F13018   3.400   0.137   3.340  0.0096 -0.8260 -0.6978
   9623SM   H7G13019   3.361   0.322   3.314  0.5290  0.6836  3.1722
   9623SM   C8F13020   3.535   0.276   3.435 -0.0210  0.5411 -0.6399
   9623SM   H8F13021   3.577   0.369   3.393  0.5579  0.9334  0.7651
   9623SM   H8G13022   3.618   0.202   3.443  2.3560  3.1650  0.5758
   9623SM   C9F13023   3.466   0.296   3.573 -0.4199  0.2071  0.1218
   9623SM   H9F13024   3.402   0.211   3.604  1.6131 -1.9323 -1.1832
   9623SM   H9G13025   3.402   0.385   3.559 -1.4414 -0.8199 -2.3645
   9623SM  C10F13026   3.562   0.327   3.691 -0.3089  0.7489  0.1860
   9623SM  H10F13027   3.611   0.424   3.669 -1.5761  1.4113  0.1811
   9623SM  H10G13028   3.637   0.246   3.699 -1.4134 -0.3654 -0.3420
   9623SM  C11F13029   3.509   0.364   3.826  0.1367  0.4187  0.2859
   9623SM  H11F13030   3.433   0.289   3.857  1.1930 -0.7062  0.2350
   9623SM  H11G13031   3.458   0.462   3.820  1.2179  1.0407  0.9189
   9623SM  C12F13032   3.620   0.343   3.943 -0.1849  0.2428 -0.5019
   9623SM  H12F13033   3.702   0.415   3.923  0.6840 -0.6415 -0.2026
   9623SM  H12G13034   3.670   0.244   3.947 -1.0857 -0.2399 -0.9174
   9623SM  C13F13035   3.572   0.382   4.081 -0.1802 -0.2042 -0.2060
   9623SM  H13F13036   3.496   0.312   4.122  2.4774 -0.9934  3.9988
   9623SM  H13G13037   3.531   0.485   4.075 -0.0702  0.1579  3.3957
   9623SM  C14F13038   3.681   0.389   4.194  0.2607  0.0415  0.2037
   9623SM  H14F13039   3.764   0.454   4.159  0.1738  0.8548  1.4296
   9623SM  H14G13040   3.722   0.286   4.201 -0.9621 -0.4229  1.0409
   9623SM  C15F13041   3.637   0.443   4.325  0.9384 -0.1130  0.1755
   9623SM  H15F13042   3.558   0.370   4.354  1.7042 -0.8902  0.3519
   9623SM  H15G13043   3.595   0.546   4.314 -1.5749 -1.0485  0.3473
   9623SM  C16F13044   3.746   0.437   4.435  0.0840 -0.0956 -0.2130
   9623SM  H16F13045   3.815   0.522   4.416  0.7658 -0.3680  0.9111
   9623SM  H16G13046   3.806   0.344   4.423  1.9546  1.2413 -1.7839
   9623SM  C17F13047   3.702   0.445   4.581 -0.2596  0.1453 -0.3512
   9623SM  H17F13048   3.624   0.371   4.608  1.0289 -1.6125 -1.2008
   9623SM  H17G13049   3.663   0.546   4.602 -1.5169 -0.3924  0.0099
   9623SM  C18F13050   3.813   0.429   4.687 -0.5609  0.6608 -0.2434
   9623SM  H18F13051   3.789   0.454   4.793 -0.8598 -1.3833  0.2217
   9623SM  H18G13052   3.894   0.502   4.670  0.7995 -0.4022  1.3606
   9623SM  C19F13053   3.884   0.292   4.680  0.8469  0.1653  0.0736
   9623SM  H19F13054   3.960   0.280   4.760  1.2031  2.0745  0.0796
   9623SM  H19G13055   3.931   0.278   4.580 -0.0585 -0.7660 -0.2435
   9623SM  C20F13056   3.782   0.174   4.682 -0.4902 -0.2713 -0.1537
   9623SM  H20F13057   3.699   0.190   4.609  1.0524 -0.2037 -1.9834
   9623SM  H20G13058   3.735   0.165   4.782  1.7676 -0.3241  0.9443
   9623SM  C21F13059   3.852   0.042   4.649 -0.1677 -0.4203  0.9371
   9623SM  H21F13060   3.912   0.010   4.737 -1.1118 -0.0516  1.7385
   9623SM  H21G13061   3.906   0.042   4.552 -1.6408 -1.5688  0.0663
   9623SM  C22F13062   3.739  -0.062   4.635 -0.2253 -0.2731  0.5696
   9623SM  H22F13063   3.675  -0.047   4.725 -2.0420  2.1029 -0.9758
   9623SM  H22G13064   3.781  -0.164   4.629 -1.0481 -0.5808 -0.1634
   9623SM  C23F13065   3.641  -0.047   4.513 -1.1041  0.5775 -0.4586
   9623SM  H23F13066   3.696  -0.013   4.423 -0.5400 -0.4155 -0.5044
   9623SM  H23G13067   3.559   0.026   4.528 -2.9611 -1.1778 -1.5720
   9623SM  H23H13068   3.599  -0.145   4.482  2.5220 -0.8759 -1.3035
   9723SM     N13069   4.900   0.126   2.549  0.0590  0.6810  0.4754
   9723SM   C1513070   4.849   0.091   2.412 -0.6831 -0.7425 -0.0631
   9723SM  H15A13071   4.894   0.001   2.372  0.4670  0.0728 -0.6684
   9723SM  H15B13072   4.886   0.166   2.343 -1.8293  0.1167  0.2190
   9723SM  H15C13073   4.741   0.087   2.416 -0.9141  2.8413  1.7426
   9723SM   C1413074   4.891   0.004   2.630 -0.1792 -0.2582 -0.0118
   9723SM  H14A13075   4.791  -0.037   2.628  0.5520 -2.1468 -0.1133
   9723SM  H14B13076   4.923   0.017   2.732 -0.3428  0.4691 -0.0469
   9723SM  H14C13077   4.951  -0.069   2.577 -2.7635 -1.9361 -0.8041
   9723SM   C1313078   5.033   0.163   2.516 -0.1622 -0.3151  0.6368
   9723SM  H13A13079   5.100   0.084   2.485  1.2380  0.5686  1.2830
   9723SM  H13B13080   5.089   0.209   2.596  1.7777  0.0619 -0.8691
   9723SM  H13C13081   5.021   0.236   2.438  0.2153 -0.6005  0.3109
   9723SM   C1213082   4.821   0.235   2.618 -0.2050 -0.5002  0.4192
   9723SM  H12A13083   4.828   0.330   2.567  0.3777 -0.6780  0.1599
   9723SM  H12B13084   4.868   0.256   2.712  0.5620  2.4232 -0.5316
   9723SM   C1113085   4.670   0.212   2.652 -0.4185  0.1936  0.6179
   9723SM  H11A13086   4.644   0.309   2.698  0.0805  0.5741  0.1170
   9723SM  H11B13087   4.656   0.127   2.722 -0.9561 -0.8735 -0.7366
   9723SM     P13088   4.538   0.319   2.456  0.2008 -0.0343  0.3091
   9723SM   O1313089   4.663   0.405   2.447 -0.6094  0.1116 -0.1807
   9723SM   O1413090   4.470   0.285   2.330  0.1737 -0.0429  0.0690
   9723SM   O1113091   4.434   0.374   2.557  0.1772 -0.5949 -0.2108
   9723SM   O1213092   4.585   0.190   2.535 -0.4568  0.1422  0.4925
   9723SM   C1S13093   4.325   0.297   2.606  0.3198  0.4391 -0.2110
   9723SM   H1S13094   4.331   0.191   2.572 -1.5531  0.1928  0.1249
   9723SM   H1T13095   4.234   0.352   2.575  0.3535  0.1811 -0.7647
   9723SM    NF13096   4.217   0.210   2.810  0.5972 -0.1743 -0.5522
   9723SM   HNF13097   4.139   0.266   2.838  0.3218 -0.2239 -1.2149
   9723SM   C2S13098   4.335   0.277   2.765  0.1974 -0.5436  0.4077
   9723SM   H2S13099   4.416   0.204   2.786 -0.9480 -2.8913 -2.5454
   9723SM   C3S13100   4.364   0.402   2.846 -0.8961 -0.5357 -0.0128
   9723SM   H3S13101   4.273   0.465   2.839 -0.7517 -0.1231  1.4982
   9723SM    O313102   4.480   0.473   2.799  0.2737  0.0450 -0.3522
   9723SM   HO313103   4.489   0.430   2.714 -0.0162 -4.5533  1.6596
   9723SM   C4S13104   4.395   0.366   2.988 -0.6928  0.2901  0.2124
   9723SM   H4S13105   4.472   0.288   2.986  0.1387  1.0306  1.4352
   9723SM   C5S13106   4.337   0.406   3.102  0.1403 -0.1246  0.0405
   9723SM   H5S13107   4.258   0.483   3.104 -2.0480 -2.2448 -0.2276
   9723SM   C6S13108   4.385   0.349   3.231  0.0507  0.5189 -0.7513
   9723SM   H6S13109   4.425   0.247   3.217 -1.7000 -0.1676 -0.9678
   9723SM   H6T13110   4.308   0.342   3.312  0.9942  0.3737  0.1592
   9723SM   C7S13111   4.495   0.433   3.288  0.0601 -0.5395 -0.0085
   9723SM   H7S13112   4.457   0.538   3.289  0.0115 -0.5415 -0.7108
   9723SM   H7T13113   4.583   0.434   3.220  0.8718 -0.5123  1.0100
   9723SM   C8S13114   4.533   0.395   3.428  0.3795  0.1464  0.3674
   9723SM   H8S13115   4.442   0.373   3.488  1.5113 -3.5643  0.9506
   9723SM   H8T13116   4.587   0.482   3.473  1.0512  1.1350 -2.1463
   9723SM   C9S13117   4.626   0.271   3.428  0.5940  0.0745 -0.2630
   9723SM   H9S13118   4.674   0.274   3.327  0.3267  3.3388 -0.3930
   9723SM   H9T13119   4.578   0.172   3.435  0.7383  0.0217  0.0051
   9723SM  C10S13120   4.734   0.287   3.535  0.3375 -0.4019  0.2582
   9723SM  H10S13121   4.686   0.310   3.633 -0.2816 -2.1460  0.3987
   9723SM  H10T13122   4.797   0.369   3.496  1.0175 -1.3287 -0.6511
   9723SM  C11S13123   4.837   0.182   3.570 -0.1444 -0.3274  0.0556
   9723SM  H11S13124   4.890   0.156   3.476 -1.1269 -0.0602 -0.5883
   9723SM  H11T13125   4.792   0.086   3.604  0.3699 -1.5078 -2.3796
   9723SM  C12S13126   4.928   0.240   3.682 -0.3471  0.6681  0.1944
   9723SM  H12S13127   4.872   0.291   3.762 -0.2440  0.3964  0.4416
   9723SM  H12T13128   4.990   0.317   3.632 -0.2544 -0.6506 -1.8437
   9723SM  C13S13129   5.017   0.129   3.742  0.2667 -0.3350  0.0868
   9723SM  H13S13130   5.081   0.083   3.664 -1.5574 -2.0642 -0.4590
   9723SM  H13T13131   4.945   0.058   3.787  0.1336  0.1896  0.7165
   9723SM  C14S13132   5.104   0.181   3.858  0.0098  0.3985 -0.5423
   9723SM  H14S13133   5.039   0.240   3.927 -0.2974  3.3380 -3.1279
   9723SM  H14T13134   5.180   0.250   3.816  1.8914 -1.8177 -1.0104
   9723SM  C15S13135   5.172   0.073   3.945 -0.2314  0.5425 -0.2021
   9723SM  H15S13136   5.231   0.006   3.879  2.3588  1.2943  1.2043
   9723SM  H15T13137   5.110   0.005   4.007  0.5067 -1.8937 -1.9602
   9723SM  C16S13138   5.264   0.143   4.054  0.0384 -0.4280 -0.2096
   9723SM  H16S13139   5.202   0.223   4.101  0.2882 -0.0061 -0.5891
   9723SM  H16T13140   5.347   0.190   3.998 -0.0190 -0.9080 -0.6958
   9723SM  C17S13141   5.318   0.046   4.157  0.0933 -0.8146 -0.1861
   9723SM  H17S13142   5.387  -0.025   4.106  0.2253  0.3047 -1.6526
   9723SM  H17T13143   5.227   0.006   4.207  0.2812 -0.2596  0.6286
   9723SM  C18S13144   5.384   0.114   4.279  0.2526 -0.9052 -0.4086
   9723SM  H18S13145   5.468   0.177   4.243  0.6222 -0.3559  1.3093
   9723SM  H18T13146   5.402   0.042   4.362 -0.3835 -0.0315  0.5296
   9723SM  H18U13147   5.309   0.185   4.322  0.6836 -1.2168  0.8998
   9723SM   C1F13148   4.200   0.080   2.801  0.6350  0.8945  0.0559
   9723SM    OF13149   4.276   0.015   2.733  0.5535 -0.4556  0.2293
   9723SM   C2F13150   4.088   0.015   2.865 -0.2580  0.4251 -0.6738
   9723SM   H2F13151   4.051  -0.073   2.809 -0.1968 -0.2553  0.3352
   9723SM   H2G13152   4.006   0.089   2.882  1.7572  2.4562  0.8851
   9723SM   C3F13153   4.127  -0.045   2.998  0.8656  0.6933  0.4861
   9723SM   H3F13154   4.178   0.026   3.066  1.1935  1.0959 -0.1641
   9723SM   H3G13155   4.205  -0.123   2.984 -0.1024 -0.0215 -1.2032
   9723SM   C4F13156   4.008  -0.117   3.071  0.2090  0.1715  0.2207
   9723SM   H4F13157   3.936  -0.160   2.999 -2.3017  3.2729  0.6308
   9723SM   H4G13158   3.960  -0.046   3.142  0.0748 -0.7734  1.0954
   9723SM   C5F13159   4.043  -0.238   3.161  0.1516  0.4861 -0.4551
   9723SM   H5F13160   4.152  -0.236   3.186 -0.0224  3.3117  0.4688
   9723SM   H5G13161   4.016  -0.338   3.120  2.4099 -0.4733  0.2326
   9723SM   C6F13162   3.974  -0.231   3.305 -0.6543 -0.0275  0.4104
   9723SM   H6F13163   3.869  -0.194   3.306 -0.0253  1.8407  0.4496
   9723SM   H6G13164   4.039  -0.157   3.357 -1.7424 -0.2520  2.1569
   9723SM   C7F13165   3.993  -0.367   3.367 -0.6795 -0.2084  0.0072
   9723SM   H7F13166   4.096  -0.410   3.368 -1.2560 -1.7048 -1.3554
   9723SM   H7G13167   3.925  -0.433   3.310 -1.4405 -0.9134  1.6555
   9723SM   C8F13168   3.942  -0.388   3.506  0.2874  0.1574 -0.0218
   9723SM   H8F13169   3.931  -0.499   3.516  0.5565  0.1039 -0.2834
   9723SM   H8G13170   3.839  -0.348   3.511  0.4598  0.6440 -0.3139
   9723SM   C9F13171   4.045  -0.329   3.599 -0.0668 -0.1539 -0.0305
   9723SM   H9F13172   4.061  -0.220   3.583 -1.2125  0.0172 -0.0774
   9723SM   H9G13173   4.139  -0.380   3.570  1.8489  3.6487 -1.0953
   9723SM  C10F13174   4.016  -0.353   3.746 -0.6805 -1.2795  0.1896
   9723SM  H10F13175   3.980  -0.458   3.756 -1.0115 -0.9768  3.4968
   9723SM  H10G13176   3.939  -0.279   3.776  0.6964 -0.2056  1.1746
   9723SM  C11F13177   4.134  -0.353   3.854  0.2900 -0.3670  0.4292
   9723SM  H11F13178   4.190  -0.259   3.832  0.3778 -0.3114  0.8752
   9723SM  H11G13179   4.208  -0.430   3.823 -1.2388 -2.1979  1.1858
   9723SM  C12F13180   4.087  -0.365   3.996 -0.4594  0.7784 -0.4550
   9723SM  H12F13181   4.036  -0.462   4.013  0.1499  0.4751 -0.3372
   9723SM  H12G13182   4.014  -0.287   4.027 -1.8134 -0.0439 -1.4747
   9723SM  C13F13183   4.210  -0.351   4.100 -0.7498 -0.3241 -0.0465
   9723SM  H13F13184   4.157  -0.336   4.196 -2.1457  2.4304 -1.1555
   9723SM  H13G13185   4.273  -0.261   4.089 -1.3553  0.1392  0.2199
   9723SM  C14F13186   4.294  -0.477   4.095 -0.4582 -0.0830 -0.2515
   9723SM  H14F13187   4.352  -0.461   4.002 -1.3108 -0.5832 -0.8794
   9723SM  H14G13188   4.229  -0.566   4.083  1.6157 -1.5219 -1.3328
   9723SM  C15F13189   4.391  -0.495   4.214 -0.1266  0.2776 -0.2945
   9723SM  H15F13190   4.447  -0.587   4.190 -0.0535  0.3505 -0.4072
   9723SM  H15G13191   4.324  -0.513   4.301  0.5494 -0.2867  0.1133
   9723SM  C16F13192   4.494  -0.387   4.247 -0.2939 -1.0046 -0.0615
   9723SM  H16F13193   4.437  -0.302   4.290  1.4772 -0.7962  2.0401
   9723SM  H16G13194   4.529  -0.353   4.148 -1.8146 -1.0239 -0.6294
   9723SM  C17F13195   4.599  -0.444   4.344 -0.4356 -0.0053 -0.3782
   9723SM  H17F13196   4.668  -0.367   4.384  0.5164 -0.4093 -1.2136
   9723SM  H17G13197   4.653  -0.523   4.288 -0.8215 -0.2119 -0.4625
   9723SM  C18F13198   4.547  -0.507   4.476 -0.0846  0.0419  0.2567
   9723SM  H18F13199   4.473  -0.587   4.456 -1.2745  1.1762 -0.0300
   9723SM  H18G13200   4.500  -0.425   4.534  1.6933 -0.7635  3.0578
   9723SM  C19F13201   4.649  -0.586   4.558 -1.3640 -0.1260 -0.8283
   9723SM  H19F13202   4.680  -0.675   4.498  1.5146  0.4336 -0.3256
   9723SM  H19G13203   4.596  -0.631   4.644 -1.6978 -1.3778 -1.6670
   9723SM  C20F13204   4.773  -0.503   4.614  0.0930  0.3147  0.2984
   9723SM  H20F13205   4.729  -0.434   4.689 -1.0459 -0.5743  0.4865
   9723SM  H20G13206   4.808  -0.432   4.536 -0.7286 -0.5597 -0.9154
   9723SM  C21F13207   4.878  -0.603   4.672 -0.2817 -0.0619 -1.0454
   9723SM  H21F13208   4.950  -0.643   4.598  1.2539  0.6888 -0.0086
   9723SM  H21G13209   4.821  -0.694   4.699  0.3119  0.3882  2.0311
   9723SM  C22F13210   4.952  -0.539   4.795  0.4740 -0.4685  0.6801
   9723SM  H22F13211   4.879  -0.491   4.864 -0.0714  0.2385 -0.3490
   9723SM  H22G13212   5.007  -0.453   4.751  2.6257 -0.9376  2.3290
   9723SM  C23F13213   5.050  -0.627   4.864 -0.3879  0.6351  0.2337
   9723SM  H23F13214   5.008  -0.720   4.907 -0.7750 -0.1505 -1.7261
   9723SM  H23G13215   5.132  -0.570   4.914  1.9106 -0.5739 -1.8707
   9723SM  H23H13216   5.122  -0.668   4.789  1.4835  2.7967  0.7182
   9823SM     N13217   6.773   0.482   2.393  0.0391  0.1551 -1.2678
   9823SM   C1513218   6.855   0.453   2.520 -0.0946 -0.4431  0.4924
   9823SM  H15A13219   6.943   0.395   2.494  0.1752 -0.0995  0.6206
   9823SM  H15B13220   6.799   0.395   2.592 -4.1843  1.7629 -0.6258
   9823SM  H15C13221   6.884   0.546   2.567 -0.3897 -1.0939  2.0228
   9823SM   C1413222   6.852   0.562   2.306 -0.6608 -0.6514 -0.6101
   9823SM  H14A13223   6.798   0.595   2.219  0.8709 -0.0733 -1.3797
   9823SM  H14B13224   6.947   0.517   2.281 -0.2378  0.2996 -0.7829
   9823SM  H14C13225   6.886   0.650   2.360 -0.7144 -1.7841  1.3944
   9823SM   C1313226   6.742   0.351   2.326  0.2065  0.2707  0.1998
   9823SM  H13A13227   6.697   0.372   2.231 -0.1878 -0.9082  0.1196
   9823SM  H13B13228   6.668   0.300   2.385 -0.2416  0.6433 -0.0381
   9823SM  H13C13229   6.833   0.294   2.316  0.8463  0.8673  2.0538
   9823SM   C1213230   6.636   0.540   2.415  0.3196 -0.1289  0.0293
   9823SM  H12A13231   6.585   0.483   2.492  2.4466  0.1667  1.7518
   9823SM  H12B13232   6.584   0.540   2.321  0.1074  1.1614  0.1295
   9823SM   C1113233   6.630   0.677   2.482  0.3304  0.0186 -0.0261
   9823SM  H11A13234   6.526   0.716   2.488  1.1643  2.8028 -1.5483
   9823SM  H11B13235   6.672   0.750   2.409 -0.8412  0.1689 -0.5814
   9823SM     P13236   6.636   0.613   2.746 -0.3201  0.0420  0.1334
   9823SM   O1313237   6.551   0.709   2.821  0.0607  0.8949 -0.1275
   9823SM   O1413238   6.577   0.478   2.708 -0.0501  0.1470  0.7264
   9823SM   O1113239   6.776   0.588   2.827 -0.5143  0.2487  0.4956
   9823SM   O1213240   6.688   0.685   2.613  0.4742 -0.1364 -0.6566
   9823SM   C1S13241   6.837   0.679   2.919 -0.4023  0.1942 -0.3976
   9823SM   H1S13242   6.814   0.785   2.894  2.1926  0.9734  0.1426
   9823SM   H1T13243   6.947   0.662   2.915 -0.1458  1.6944 -0.4362
   9823SM    NF13244   6.849   0.757   3.159 -1.0163  0.0095 -0.7710
   9823SM   HNF13245   6.938   0.745   3.204 -1.8887 -1.5704  0.6474
   9823SM   C2S13246   6.806   0.652   3.069  0.4602  1.2897  0.3837
   9823SM   H2S13247   6.695   0.645   3.065  0.6007 -1.0666 -0.7829
   9823SM   C3S13248   6.866   0.513   3.103  0.8700 -0.4221  0.5979
   9823SM   H3S13249   6.976   0.518   3.086  0.6685  0.4506 -0.6219
   9823SM    O313250   6.817   0.412   3.011  0.5810  0.0190 -0.7069
   9823SM   HO313251   6.786   0.466   2.937  0.3758 -1.9540 -2.1562
   9823SM   C4S13252   6.847   0.468   3.237 -0.0692 -0.3500 -0.5010
   9823SM   H4S13253   6.933   0.486   3.303 -1.8484  1.8061  1.4122
   9823SM   C5S13254   6.736   0.401   3.280 -0.0463  0.4536  0.0474
   9823SM   H5S13255   6.647   0.403   3.217  0.8593  0.1615 -1.2799
   9823SM   C6S13256   6.717   0.338   3.416  0.2433 -0.0882 -0.0127
   9823SM   H6S13257   6.693   0.231   3.398  0.5938 -0.1477 -0.1463
   9823SM   H6T13258   6.646   0.392   3.482  0.5851  1.0880 -0.5788
   9823SM   C7S13259   6.849   0.338   3.496  0.3251  0.3861  0.7962
   9823SM   H7S13260   6.850   0.437   3.545 -0.4793 -0.1651  1.9605
   9823SM   H7T13261   6.945   0.325   3.442 -0.8920  0.0052 -1.4466
   9823SM   C8S13262   6.840   0.225   3.604 -0.3879 -0.5149 -0.5455
   9823SM   H8S13263   6.760   0.243   3.678 -0.4731  2.1776 -1.2025
   9823SM   H8T13264   6.936   0.236   3.659 -0.1444 -0.0269 -1.0525
   9823SM   C9S13265   6.854   0.071   3.564  0.4755  0.5775  0.3584
   9823SM   H9S13266   6.899   0.070   3.463  2.7272  2.8838  1.2261
   9823SM   H9T13267   6.754   0.024   3.566  0.2408  1.0850  0.9098
   9823SM  C10S13268   6.942  -0.024   3.640 -0.1390  0.0478 -0.0306
   9823SM  H10S13269   6.917  -0.004   3.746 -4.2982  1.6000 -1.0765
   9823SM  H10T13270   7.049  -0.010   3.615 -0.0740  0.0751  0.2678
   9823SM  C11S13271   6.917  -0.176   3.623 -0.2971  0.1756 -0.3128
   9823SM  H11S13272   6.958  -0.193   3.521 -0.5723 -1.5083 -0.1699
   9823SM  H11T13273   6.813  -0.214   3.627  1.1643 -4.3431  1.5970
   9823SM  C12S13274   6.988  -0.271   3.722 -0.0284 -0.3274  0.6141
   9823SM  H12S13275   7.080  -0.227   3.766 -0.6536  1.0208  0.5982
   9823SM  H12T13276   7.028  -0.360   3.667 -0.0919  1.2821 -2.2100
   9823SM  C13S13277   6.902  -0.303   3.837  0.0307  0.2077  0.0780
   9823SM  H13S13278   6.822  -0.368   3.796  1.1088 -0.2319 -1.4089
   9823SM  H13T13279   6.853  -0.208   3.868 -0.7729  0.7648 -2.6493
   9823SM  C14S13280   6.972  -0.359   3.960 -0.1359 -0.0773  0.2681
   9823SM  H14S13281   7.018  -0.271   4.010  0.0706 -0.9742  1.7048
   9823SM  H14T13282   7.054  -0.425   3.923 -1.9193 -2.9657  1.1421
   9823SM  C15S13283   6.872  -0.434   4.047  0.4316 -0.2212 -0.2247
   9823SM  H15S13284   6.926  -0.506   4.113 -0.6424 -1.1236 -0.2949
   9823SM  H15T13285   6.797  -0.490   3.986  0.3133 -0.9905  0.6036
   9823SM  C16S13286   6.798  -0.352   4.151  0.0476  0.5054 -0.2688
   9823SM  H16S13287   6.752  -0.261   4.108  0.3519  1.9282  2.2220
   9823SM  H16T13288   6.876  -0.324   4.225  0.3647 -1.7247  0.3347
   9823SM  C17S13289   6.690  -0.437   4.222 -0.4067 -0.1321 -0.3272
   9823SM  H17S13290   6.736  -0.525   4.272 -3.2053 -1.6740 -0.2876
   9823SM  H17T13291   6.619  -0.477   4.147 -1.5512  0.3180  0.4854
   9823SM  C18S13292   6.605  -0.351   4.323  0.1825 -0.4679  0.1251
   9823SM  H18S13293   6.508  -0.402   4.336 -0.1531  0.3060  0.6969
   9823SM  H18T13294   6.589  -0.251   4.277 -2.8413 -0.5147  0.8782
   9823SM  H18U13295   6.655  -0.347   4.422  0.0864 -0.2897  0.1666
   9823SM   C1F13296   6.790   0.879   3.172  0.1347  0.1617 -0.1616
   9823SM    OF13297   6.690   0.898   3.106  0.2590  0.4321  0.0550
   9823SM   C2F13298   6.865   0.971   3.258  0.3273  0.0582  0.0573
   9823SM   H2F13299   6.974   0.972   3.234 -0.0552  0.5238 -1.8167
   9823SM   H2G13300   6.859   0.920   3.356  0.1708 -1.2957 -0.6353
   9823SM   C3F13301   6.811   1.111   3.258  1.0606  0.3066  0.6106
   9823SM   H3F13302   6.701   1.113   3.270  0.7016 -1.3421 -1.7544
   9823SM   H3G13303   6.838   1.158   3.161 -0.5991  0.4942  0.2127
   9823SM   C4F13304   6.891   1.189   3.367 -0.6237  0.3480  0.0408
   9823SM   H4F13305   6.882   1.296   3.339 -0.2439  0.8536  1.7152
   9823SM   H4G13306   6.995   1.153   3.358 -1.4274 -1.7407 -1.8656
   9823SM   C5F13307   6.826   1.154   3.512 -0.8347 -0.3217  0.0857
   9823SM   H5F13308   6.830   1.044   3.527  0.1806 -0.2841  0.1772
   9823SM   H5G13309   6.718   1.175   3.495 -1.0266 -1.1923  0.1659
   9823SM   C6F13310   6.899   1.221   3.633  0.0568  0.0242  0.3242
   9823SM   H6F13311   6.900   1.330   3.611  0.0783 -0.5910 -3.2846
   9823SM   H6G13312   7.006   1.191   3.635  0.7985  2.3515 -0.6002
   9823SM   C7F13313   6.824   1.181   3.760  0.3569 -0.1469 -1.1721
   9823SM   H7F13314   6.834   1.072   3.777 -0.7376 -0.2292 -0.9480
   9823SM   H7G13315   6.715   1.192   3.740  0.0967 -0.7523 -0.1579
   9823SM   C8F13316   6.866   1.257   3.887 -0.0709 -0.3258 -0.3702
   9823SM   H8F13317   6.864   1.367   3.872  1.1217 -0.5596 -2.7317
   9823SM   H8G13318   6.973   1.235   3.911  0.0245 -0.6457 -1.0760
   9823SM   C9F13319   6.792   1.221   4.020  0.3691  0.0658 -0.1759
   9823SM   H9F13320   6.682   1.235   4.006 -0.0519  0.3912  2.7835
   9823SM   H9G13321   6.807   1.299   4.098  0.8396  1.7232 -1.8509
   9823SM  C10F13322   6.830   1.081   4.080 -1.0480 -0.0782 -0.1109
   9823SM  H10F13323   6.939   1.072   4.101 -0.8557 -2.2450 -1.6425
   9823SM  H10G13324   6.821   0.997   4.008  0.1686 -0.7648  0.5103
   9823SM  C11F13325   6.740   1.053   4.197  0.1572  0.4201  1.1803
   9823SM  H11F13326   6.640   1.020   4.164  0.3788 -1.8687  2.6165
   9823SM  H11G13327   6.715   1.141   4.260 -0.7077 -0.1857  1.6971
   9823SM  C12F13328   6.786   0.950   4.296  0.7935 -0.6397 -0.1717
   9823SM  H12F13329   6.699   0.930   4.362 -0.2075  2.9512 -0.2078
   9823SM  H12G13330   6.870   0.983   4.362  1.2611 -1.8303 -0.1389
   9823SM  C13F13331   6.835   0.818   4.232  0.6527 -0.5892  0.8909
   9823SM  H13F13332   6.932   0.833   4.180  0.3733 -1.2308  0.1743
   9823SM  H13G13333   6.764   0.781   4.155  4.0472 -3.0893 -1.3026
   9823SM  C14F13334   6.854   0.708   4.332 -0.8055  0.0149 -0.6460
   9823SM  H14F13335   6.830   0.619   4.270 -0.8239  0.4763 -1.3090
   9823SM  H14G13336   6.779   0.718   4.413  0.5227  0.6708  0.5590
   9823SM  C15F13337   6.998   0.713   4.390 -0.3193  0.1368 -0.1243
   9823SM  H15F13338   7.028   0.817   4.417 -0.3924 -0.0818  0.8564
   9823SM  H15G13339   7.076   0.684   4.317  0.7767  0.8882  0.7127
   9823SM  C16F13340   7.028   0.638   4.526 -0.0822  0.7292 -0.1230
   9823SM  H16F13341   6.998   0.533   4.507  1.3524  0.7308 -2.9686
   9823SM  H16G13342   6.965   0.684   4.605  0.0064  2.2021 -0.8658
   9823SM  C17F13343   7.178   0.646   4.565 -0.2074  0.3536  0.1917
   9823SM  H17F13344   7.189   0.743   4.618 -1.5925  0.8552 -0.3728
   9823SM  H17G13345   7.244   0.627   4.477 -1.3064  0.9199 -0.7878
   9823SM  C18F13346   7.214   0.536   4.669  0.2367  0.0672 -0.6171
   9823SM  H18F13347   7.172   0.440   4.634  2.8784 -1.2877 -0.3233
   9823SM  H18G13348   7.165   0.570   4.763 -0.3850 -0.6088 -0.6882
   9823SM  C19F13349   7.371   0.527   4.673 -0.5389  0.5755  0.5157
   9823SM  H19F13350   7.411   0.558   4.573 -0.9792  0.8586  0.4270
   9823SM  H19G13351   7.410   0.424   4.686  0.1030  0.8532  0.8367
   9823SM  C20F13352   7.445   0.619   4.781 -0.1071 -0.1139 -0.3008
   9823SM  H20F13353   7.426   0.721   4.741 -0.8605 -1.0738 -2.5466
   9823SM  H20G13354   7.554   0.598   4.766 -0.4753 -2.0760 -0.4526
   9823SM  C21F13355   7.403   0.589   4.926 -0.4346  0.7900  0.1018
   9823SM  H21F13356   7.294   0.606   4.940 -0.4661  1.1351 -0.5565
   9823SM  H21G13357   7.459   0.670   4.977 -0.4748  1.1416 -0.4041
   9823SM  C22F13358   7.429   0.442   4.960 -0.0860 -0.6551 -0.0047
   9823SM  H22F13359   7.525   0.418   4.909 -0.0133  0.9838 -0.6939
   9823SM  H22G13360   7.356   0.384   4.900 -2.0339  1.1995  0.4597
   9823SM  C23F13361   7.424   0.410   5.106  0.4775  0.6595  0.2825
   9823SM  H23F13362   7.412   0.303   5.132 -2.2315  0.3577 -1.7586
   9823SM  H23G13363   7.328   0.451   5.146  0.5016  2.4700 -1.3914
   9823SM  H23H13364   7.505   0.464   5.160  2.2351 -0.8560 -0.7465
   9923SM     N13365   0.387   6.449   2.121 -0.0794  0.7490  0.5405
   9923SM   C1513366   0.283   6.494   2.018  0.2487 -0.5450  0.4207
   9923SM  H15A13367   0.326   6.543   1.931  1.1495  1.7645  2.0530
   9923SM  H15B13368   0.205   6.550   2.067 -0.5014 -1.0599 -0.1515
   9923SM  H15C13369   0.232   6.406   1.981  0.2127 -0.4897  0.3386
   9923SM   C1413370   0.327   6.365   2.226 -0.1648 -0.8520  0.1728
   9923SM  H14A13371   0.405   6.336   2.294 -0.3945 -1.0191  0.3701
   9923SM  H14B13372   0.296   6.268   2.187  0.9131 -1.3720  0.5709
   9923SM  H14C13373   0.252   6.416   2.285  0.3948  2.1156 -1.4956
   9923SM   C1313374   0.481   6.355   2.051 -0.1995  0.6926 -0.3258
   9923SM  H13A13375   0.426   6.285   1.990 -3.2579  2.1001  0.5956
   9923SM  H13B13376   0.529   6.298   2.129 -1.6529 -0.2538 -0.0895
   9923SM  H13C13377   0.545   6.402   1.978  1.1060 -1.0634 -0.3816
   9923SM   C1213378   0.473   6.567   2.171  0.0066 -0.6862  0.0444
   9923SM  H12A13379   0.406   6.648   2.194 -0.5499 -1.5048  1.3862
   9923SM  H12B13380   0.531   6.596   2.084  0.1243 -2.0236 -0.3392
   9923SM   C1113381   0.562   6.550   2.294 -0.1386 -0.8695 -0.1541
   9923SM  H11A13382   0.615   6.646   2.314 -3.2330  0.6332  1.5217
   9923SM  H11B13383   0.638   6.470   2.282  0.7989 -0.4234  2.1765
   9923SM     P13384   0.537   6.412   2.514 -0.0517  0.0318  0.0327
   9923SM   O1313385   0.471   6.449   2.637  0.1762 -0.5171  0.0919
   9923SM   O1413386   0.507   6.283   2.455  0.3515  0.0858 -0.8521
   9923SM   O1113387   0.697   6.424   2.524 -0.2120  0.5678 -0.1819
   9923SM   O1213388   0.494   6.524   2.414  0.0238 -0.0253 -0.5644
   9923SM   C1S13389   0.759   6.544   2.566  1.3370 -0.2027 -0.7455
   9923SM   H1S13390   0.708   6.636   2.530 -1.0730 -1.4254 -0.7326
   9923SM   H1T13391   0.866   6.547   2.540  1.6565 -1.6259  0.2579
   9923SM    NF13392   0.794   6.687   2.767 -0.4448 -0.1874  0.2692
   9923SM   HNF13393   0.881   6.712   2.808 -0.0647  2.2507 -1.7832
   9923SM   C2S13394   0.752   6.552   2.725  0.0117  0.3161 -0.0599
   9923SM   H2S13395   0.645   6.537   2.754  0.1721  0.2989  0.5379
   9923SM   C3S13396   0.835   6.433   2.790  0.3959 -0.4720 -0.1837
   9923SM   H3S13397   0.942   6.435   2.758  0.4660 -0.9837  0.0048
   9923SM    O313398   0.789   6.310   2.743  0.0060 -0.0793  0.4543
   9923SM   HO313399   0.756   6.323   2.654 -1.2019 -0.0788  0.8841
   9923SM   C4S13400   0.822   6.431   2.937  0.1252  0.0720  0.0723
   9923SM   H4S13401   0.724   6.402   2.978 -1.7720  0.8294 -3.5411
   9923SM   C5S13402   0.920   6.456   3.026  0.0796 -0.7083 -0.0972
   9923SM   H5S13403   1.014   6.498   2.987 -0.1982 -0.0984 -0.1279
   9923SM   C6S13404   0.910   6.440   3.172  0.5920 -0.3773 -0.0480
   9923SM   H6S13405   0.808   6.403   3.196 -0.5151  1.0251 -2.2598
   9923SM   H6T13406   0.906   6.540   3.220 -0.9743 -1.0162  1.2346
   9923SM   C7S13407   1.012   6.346   3.230 -0.5426 -0.1611  0.0550
   9923SM   H7S13408   1.106   6.404   3.224 -1.1693  0.8623 -0.1464
   9923SM   H7T13409   1.019   6.250   3.173  2.0176  0.3628 -0.6283
   9923SM   C8S13410   0.995   6.305   3.380  0.5775 -0.4186  0.5758
   9923SM   H8S13411   1.083   6.246   3.412 -0.5474 -0.7077  3.4921
   9923SM   H8T13412   0.900   6.247   3.385  0.6584 -0.4848  1.6767
   9923SM   C9S13413   0.994   6.429   3.475 -0.7219 -0.2529  0.4676
   9923SM   H9S13414   0.989   6.386   3.577  0.4834  0.0395  0.6735
   9923SM   H9T13415   0.910   6.495   3.444 -1.4727 -1.1633  0.5096
   9923SM  C10S13416   1.126   6.508   3.469 -0.5037  1.0310  0.1550
   9923SM  H10S13417   1.123   6.583   3.387  1.1465  1.9861  0.9256
   9923SM  H10T13418   1.202   6.433   3.438 -2.8269 -1.4026 -0.0671
   9923SM  C11S13419   1.168   6.583   3.596 -0.2473  0.3425  0.0614
   9923SM  H11S13420   1.192   6.506   3.673 -3.5622  1.5601  2.5965
   9923SM  H11T13421   1.092   6.655   3.634 -1.8878 -0.3346 -1.7800
   9923SM  C12S13422   1.291   6.681   3.563 -0.2890 -0.0430 -0.1619
   9923SM  H12S13423   1.256   6.756   3.489 -0.2579  1.7885  1.5900
   9923SM  H12T13424   1.369   6.612   3.525 -0.3529 -0.7153  0.8643
   9923SM  C13S13425   1.335   6.745   3.699  0.0901 -0.3082 -0.0649
   9923SM  H13S13426   1.364   6.654   3.756 -1.2454  0.7012  2.3833
   9923SM  H13T13427   1.249   6.796   3.748 -0.1156 -1.0764  0.4031
   9923SM  C14S13428   1.454   6.838   3.700  0.4420 -0.0785  0.0484
   9923SM  H14S13429   1.433   6.934   3.649  1.4176 -0.0950 -0.3974
   9923SM  H14T13430   1.554   6.803   3.668  0.6571  0.1123  0.4958
   9923SM  C15S13431   1.506   6.878   3.841 -0.4462 -0.5939  0.1708
   9923SM  H15S13432   1.598   6.939   3.840  1.8821 -3.8531 -0.1752
   9923SM  H15T13433   1.529   6.787   3.901  0.0067  0.4054  1.5385
   9923SM  C16S13434   1.396   6.942   3.926 -0.4375  0.2917 -0.8348
   9923SM  H16S13435   1.315   6.868   3.936 -1.6152  1.2237 -2.9339
   9923SM  H16T13436   1.346   7.022   3.868  2.2294  1.5023 -1.6257
   9923SM  C17S13437   1.455   6.990   4.060 -0.5525 -0.3197 -0.2680
   9923SM  H17S13438   1.477   7.098   4.046  1.5975 -0.9107 -2.0469
   9923SM  H17T13439   1.544   6.926   4.081 -1.1881 -1.3834 -0.7509
   9923SM  C18S13440   1.369   6.967   4.184  0.3870 -0.0481 -0.9316
   9923SM  H18S13441   1.351   6.860   4.210  0.8595  0.1732  0.3732
   9923SM  H18T13442   1.271   7.016   4.164  0.7549  1.0101 -0.2526
   9923SM  H18U13443   1.406   7.017   4.276  1.1694 -1.7544 -0.2717
   9923SM   C1F13444   0.719   6.797   2.732 -0.5363 -0.5564 -0.0685
   9923SM    OF13445   0.602   6.795   2.691 -0.7659 -0.1083 -0.2673
   9923SM   C2F13446   0.788   6.934   2.761 -0.2415 -0.1480  0.1925
   9923SM   H2F13447   0.842   6.972   2.672  0.7704 -0.2851  0.7333
   9923SM   H2G13448   0.867   6.911   2.836  0.0898  1.7235  0.4703
   9923SM   C3F13449   0.696   7.034   2.826 -0.0326  0.2931 -0.6339
   9923SM   H3F13450   0.607   7.046   2.761  0.2767 -2.1656 -1.6179
   9923SM   H3G13451   0.742   7.135   2.824  1.6742 -0.4120  0.5445
   9923SM   C4F13452   0.651   7.017   2.973  0.2846 -0.4001  0.0681
   9923SM   H4F13453   0.743   7.031   3.034  2.1839  1.1067 -2.8955
   9923SM   H4G13454   0.616   6.913   2.993 -0.5389 -0.3635 -1.0909
   9923SM   C5F13455   0.537   7.107   3.005 -0.3401  0.1094  0.5211
   9923SM   H5F13456   0.459   7.109   2.925  0.5126  0.5665 -0.3211
   9923SM   H5G13457   0.583   7.208   2.997 -0.2229  0.0373  0.2634
   9923SM   C6F13458   0.469   7.083   3.134  0.5632  0.5027  0.3452
   9923SM   H6F13459   0.550   7.087   3.211  0.3816  1.5976  0.4964
   9923SM   H6G13460   0.422   6.983   3.139  0.1209  0.7483  4.1970
   9923SM   C7F13461   0.371   7.193   3.160  0.4892 -0.5615  0.4768
   9923SM   H7F13462   0.272   7.154   3.193  0.5414 -1.6909 -0.5974
   9923SM   H7G13463   0.353   7.252   3.068  1.3825 -0.3902  0.4108
   9923SM   C8F13464   0.418   7.288   3.278  0.7909 -0.5854  0.6545
   9923SM   H8F13465   0.510   7.335   3.236  1.6994 -1.9385  1.0692
   9923SM   H8G13466   0.443   7.230   3.369 -0.6434 -1.2018  0.6811
   9923SM   C9F13467   0.307   7.394   3.292  0.1743 -0.4755 -0.0533
   9923SM   H9F13468   0.230   7.346   3.356  1.9998 -1.1273  1.7668
   9923SM   H9G13469   0.268   7.421   3.192  0.4936 -0.4422 -0.1678
   9923SM  C10F13470   0.330   7.528   3.364  0.4536  0.1541 -0.4693
   9923SM  H10F13471   0.238   7.589   3.372  0.3223  0.0401 -1.0865
   9923SM  H10G13472   0.402   7.585   3.301  0.6209  0.8747  0.3574
   9923SM  C11F13473   0.395   7.501   3.507 -0.0986  0.4566  0.1233
   9923SM  H11F13474   0.419   7.604   3.543 -0.4520  0.6664 -0.2351
   9923SM  H11G13475   0.497   7.463   3.484  0.4077  1.1928  1.0376
   9923SM  C12F13476   0.321   7.417   3.612 -0.4028 -0.4530  0.1424
   9923SM  H12F13477   0.329   7.307   3.597  0.1233 -0.7514  2.3569
   9923SM  H12G13478   0.212   7.437   3.600 -0.2821 -0.1891 -0.5877
   9923SM  C13F13479   0.364   7.448   3.762 -0.3822 -0.2040  0.0158
   9923SM  H13F13480   0.352   7.557   3.779 -2.7636  0.0707 -2.6540
   9923SM  H13G13481   0.475   7.442   3.761 -0.3125  0.8170  0.2107
   9923SM  C14F13482   0.298   7.356   3.867 -0.2815  0.4503 -0.5023
   9923SM  H14F13483   0.300   7.257   3.817  1.9704 -0.2245  0.7447
   9923SM  H14G13484   0.189   7.374   3.878 -0.2234  0.3085  0.3741
   9923SM  C15F13485   0.384   7.358   3.995 -0.5023 -0.0457  0.9028
   9923SM  H15F13486   0.373   7.459   4.040  0.0479  0.9763 -1.1109
   9923SM  H15G13487   0.488   7.355   3.957 -0.8258  1.6621 -0.2214
   9923SM  C16F13488   0.358   7.251   4.099 -0.7601  0.5402  0.5921
   9923SM  H16F13489   0.425   7.249   4.188 -2.6084  2.8058  2.1523
   9923SM  H16G13490   0.349   7.147   4.060 -0.2506  0.2498  1.2239
   9923SM  C17F13491   0.211   7.284   4.149  0.2258  0.5133 -0.8988
   9923SM  H17F13492   0.145   7.289   4.060  1.4923  1.3430 -1.8310
   9923SM  H17G13493   0.213   7.386   4.195 -2.8035  0.9929 -1.5715
   9923SM  C18F13494   0.158   7.174   4.251  0.0410  0.2257 -0.1120
   9923SM  H18F13495   0.218   7.181   4.344  0.0901  0.8577 -0.1874
   9923SM  H18G13496   0.176   7.070   4.217 -1.1724  0.1373 -0.5179
   9923SM  C19F13497   0.011   7.202   4.293 -0.1940 -0.0345  0.0323
   9923SM  H19F13498  -0.043   7.222   4.198  3.2273  1.4334 -1.7776
   9923SM  H19G13499   0.028   7.300   4.343 -0.0710  1.3316 -2.5148
   9923SM  C20F13500  -0.049   7.082   4.360  0.3256 -0.4249 -0.2310
   9923SM  H20F13501   0.018   7.059   4.446  0.6117  0.3130 -0.2518
   9923SM  H20G13502  -0.049   6.989   4.299  0.3869 -1.7301  1.6538
   9923SM  C21F13503  -0.199   7.110   4.409 -0.0936  0.3424  0.0113
   9923SM  H21F13504  -0.260   7.153   4.326  1.4568  0.3805 -1.1587
   9923SM  H21G13505  -0.197   7.187   4.489 -1.8727 -1.2404  1.6772
   9923SM  C22F13506  -0.272   6.992   4.475  0.0396  0.0078 -0.6776
   9923SM  H22F13507  -0.352   7.016   4.548 -1.6831 -4.1883 -0.8892
   9923SM  H22G13508  -0.196   6.934   4.532 -0.3973 -0.6923 -0.7904
   9923SM  C23F13509  -0.334   6.890   4.380  0.4183 -0.3636 -0.4150
   9923SM  H23F13510  -0.402   6.824   4.436 -2.5630  2.4703 -0.3628
   9923SM  H23G13511  -0.259   6.828   4.326  3.0352  0.8865  1.5611
   9923SM  H23H13512  -0.396   6.932   4.297 -2.8975 -2.0967  1.0136
  10023SM     N13513   0.145   7.347   2.555 -0.1157  0.0398  0.4794
  10023SM   C1513514   0.206   7.450   2.460  0.5369  0.3802  0.0944
  10023SM  H15A13515   0.210   7.545   2.512  2.7866 -0.2558  1.2392
  10023SM  H15B13516   0.138   7.469   2.379  1.8099  0.3877 -1.0073
  10023SM  H15C13517   0.303   7.422   2.422  0.7581 -0.5300  1.2655
  10023SM   C1413518   0.014   7.400   2.601  0.1689 -0.0226  0.1273
  10023SM  H14A13519  -0.030   7.328   2.668 -2.1177  1.3821  0.2135
  10023SM  H14B13520  -0.058   7.404   2.520 -2.4521  2.0407  2.3889
  10023SM  H14C13521   0.028   7.497   2.647 -1.3195 -0.6240  1.9511
  10023SM   C1313522   0.122   7.219   2.476  0.0481 -0.0239 -0.0566
  10023SM  H13A13523   0.095   7.134   2.537 -1.4893  0.9240  0.6501
  10023SM  H13B13524   0.214   7.189   2.429 -0.3366 -1.8899  0.2883
  10023SM  H13C13525   0.040   7.226   2.405 -0.7719 -1.6867  0.6906
  10023SM   C1213526   0.243   7.319   2.674 -0.0132  0.1578  0.0235
  10023SM  H12A13527   0.181   7.265   2.745 -3.2078  4.4082  0.8412
  10023SM  H12B13528   0.273   7.408   2.726  2.0139 -1.3247  1.5608
  10023SM   C1113529   0.369   7.237   2.657 -0.1707  0.0499  0.7763
  10023SM  H11A13530   0.336   7.133   2.635  0.4114  0.3002 -1.5463
  10023SM  H11B13531   0.437   7.228   2.744  5.3139  3.3381 -2.6016
  10023SM     P13532   0.552   7.390   2.548 -0.4801 -0.1579 -0.3828
  10023SM   O1313533   0.676   7.325   2.489  0.2177  0.0192 -0.0508
  10023SM   O1413534   0.513   7.515   2.490  0.5467  0.1765 -0.1177
  10023SM   O1113535   0.581   7.404   2.701  0.1213 -0.1277 -0.3079
  10023SM   O1213536   0.439   7.278   2.542 -0.1682 -0.4927  0.1163
  10023SM   C1S13537   0.540   7.524   2.767 -0.4727  0.5785 -0.0856
  10023SM   H1S13538   0.430   7.520   2.778 -0.3887 -0.6090  0.5405
  10023SM   H1T13539   0.567   7.623   2.725  0.5811  0.4627  0.2690
  10023SM    NF13540   0.542   7.654   2.997  0.0554  0.6241 -0.0033
  10023SM   HNF13541   0.613   7.695   3.053  0.8803 -0.3920 -0.2505
  10023SM   C2S13542   0.595   7.536   2.919 -0.3589  0.3755  0.7492
  10023SM   H2S13543   0.539   7.449   2.961  0.2339 -0.9234 -1.0515
  10023SM   C3S13544   0.753   7.509   2.932  0.4452  0.4063 -0.6045
  10023SM   H3S13545   0.800   7.604   2.899  0.9891 -0.1191 -1.3770
  10023SM    O313546   0.809   7.418   2.832  0.1638 -0.6693 -0.6117
  10023SM   HO313547   0.729   7.410   2.780 -1.0297 -0.9047  1.1911
  10023SM   C4S13548   0.792   7.477   3.070 -0.2847  0.1491  0.0655
  10023SM   H4S13549   0.818   7.565   3.132  2.1694  0.1514 -0.8687
  10023SM   C5S13550   0.805   7.357   3.132  0.5093 -0.0896 -0.2612
  10023SM   H5S13551   0.776   7.267   3.075 -1.4524  0.3674 -0.0592
  10023SM   C6S13552   0.860   7.319   3.265 -0.1389 -0.3704 -0.3716
  10023SM   H6S13553   0.967   7.293   3.258  0.3955  0.6321  2.5197
  10023SM   H6T13554   0.806   7.229   3.304 -0.6990 -0.0174 -0.3156
  10023SM   C7S13555   0.865   7.421   3.374  0.3382 -0.2252 -0.2110
  10023SM   H7S13556   0.771   7.431   3.433  0.5725 -0.3573  0.1892
  10023SM   H7T13557   0.877   7.526   3.341  4.0019 -0.3881  0.2805
  10023SM   C8S13558   0.961   7.386   3.484  0.0945  1.0348  0.4199
  10023SM   H8S13559   1.067   7.394   3.450  0.9038 -2.6640  1.6368
  10023SM   H8T13560   0.951   7.279   3.510  0.3582  0.7195 -0.7143
  10023SM   C9S13561   0.938   7.467   3.608  0.0726  0.0377 -0.0564
  10023SM   H9S13562   0.832   7.449   3.637 -0.4160  0.5536 -1.4116
  10023SM   H9T13563   0.944   7.577   3.590  0.1015  0.6435  3.1060
  10023SM  C10S13564   1.041   7.450   3.718  0.6104  0.9063  0.6669
  10023SM  H10S13565   1.139   7.492   3.688 -0.4944  3.4942  0.3937
  10023SM  H10T13566   1.061   7.343   3.735 -0.2037  0.4746 -0.8434
  10023SM  C11S13567   1.001   7.528   3.847 -0.9629  0.1907  0.2045
  10023SM  H11S13568   0.916   7.479   3.899 -0.7021 -1.6243 -0.9807
  10023SM  H11T13569   0.984   7.635   3.823  1.0565  0.5166  0.0261
  10023SM  C12S13570   1.121   7.522   3.947  0.2201  0.3919  0.6822
  10023SM  H12S13571   1.205   7.580   3.902  0.9735 -1.3907 -0.3026
  10023SM  H12T13572   1.153   7.416   3.955 -1.2612 -0.2052 -0.9038
  10023SM  C13S13573   1.089   7.573   4.090  0.6036 -0.3731 -0.6248
  10023SM  H13S13574   1.017   7.509   4.145  1.3186 -0.9476 -0.3481
  10023SM  H13T13575   1.053   7.678   4.078  0.9546 -0.1090  0.5071
  10023SM  C14S13576   1.215   7.600   4.176  0.8527 -0.4924  0.3782
  10023SM  H14S13577   1.271   7.504   4.170  0.9177 -0.4498  0.3060
  10023SM  H14T13578   1.188   7.603   4.284  1.6521 -3.3215  0.7501
  10023SM  C15S13579   1.287   7.740   4.140 -0.5141 -0.4210  0.7885
  10023SM  H15S13580   1.217   7.823   4.160 -1.0964 -0.3967 -1.0763
  10023SM  H15T13581   1.308   7.739   4.030 -0.2231 -0.7647  0.8458
  10023SM  C16S13582   1.422   7.753   4.207  0.6590 -0.4906  0.2400
  10023SM  H16S13583   1.473   7.655   4.193 -0.5806 -1.2237  0.7196
  10023SM  H16T13584   1.402   7.764   4.316  0.1135  0.3031  0.0645
  10023SM  C17S13585   1.493   7.879   4.164 -0.7658 -0.1351  0.3815
  10023SM  H17S13586   1.581   7.891   4.231  0.2063 -2.6104 -0.3546
  10023SM  H17T13587   1.425   7.965   4.182  1.8087  1.7079  2.2571
  10023SM  C18S13588   1.548   7.878   4.020  0.3858 -0.2274 -0.0584
  10023SM  H18S13589   1.458   7.872   3.955 -0.6264  0.0785  1.2726
  10023SM  H18T13590   1.608   7.785   4.014  0.4033 -0.3998  2.0387
  10023SM  H18U13591   1.613   7.965   4.003 -0.6358  0.5224 -0.2457
  10023SM   C1F13592   0.416   7.682   2.994  0.5972  0.1077 -0.5365
  10023SM    OF13593   0.329   7.595   2.966 -0.6173 -0.4523  0.0410
  10023SM   C2F13594   0.377   7.818   3.044  0.5981  0.4321  0.6222
  10023SM   H2F13595   0.400   7.898   2.969 -2.9700  1.2582  0.2085
  10023SM   H2G13596   0.425   7.831   3.143 -0.8955  0.6638  1.3515
  10023SM   C3F13597   0.225   7.820   3.090  0.0316 -1.2452  0.1088
  10023SM   H3F13598   0.216   7.727   3.151  2.4970 -1.4085  0.3309
  10023SM   H3G13599   0.155   7.810   3.004  1.7259  1.3441 -1.7117
  10023SM   C4F13600   0.188   7.945   3.179  0.0244  0.3578  0.4316
  10023SM   H4F13601   0.079   7.954   3.198 -0.3607 -1.6686 -0.6152
  10023SM   H4G13602   0.213   8.032   3.114  0.9834  2.1304  2.9870
  10023SM   C5F13603   0.275   7.968   3.300 -0.0321  0.6121 -0.0460
  10023SM   H5F13604   0.266   8.076   3.324  0.8410  0.7894 -0.5037
  10023SM   H5G13605   0.384   7.951   3.285 -0.2422 -0.6184 -0.2947
  10023SM   C6F13606   0.229   7.895   3.420 -0.3060  0.2487 -0.9123
  10023SM   H6F13607   0.238   7.786   3.400 -0.6555 -0.2781  1.5440
  10023SM   H6G13608   0.126   7.913   3.455  0.2093 -2.8266  2.8760
  10023SM   C7F13609   0.308   7.931   3.551 -0.6586  0.3772  0.0141
  10023SM   H7F13610   0.322   8.040   3.566 -0.6527  0.3314  0.3427
  10023SM   H7G13611   0.414   7.899   3.539 -0.5036  0.8486  0.1018
  10023SM   C8F13612   0.251   7.873   3.674 -0.2038  0.3399  0.3492
  10023SM   H8F13613   0.263   7.763   3.671 -2.4580  0.0200  1.0927
  10023SM   H8G13614   0.142   7.887   3.664 -0.2469 -1.3024 -2.5973
  10023SM   C9F13615   0.308   7.932   3.802  0.0527  0.6211  0.7563
  10023SM   H9F13616   0.328   8.040   3.783 -0.1455  0.9541  2.3191
  10023SM   H9G13617   0.408   7.886   3.815 -0.4138 -1.4676 -2.0936
  10023SM  C10F13618   0.239   7.911   3.938  0.1052 -0.5278  0.0411
  10023SM  H10F13619   0.144   7.968   3.947 -0.1882 -1.2035  1.3619
  10023SM  H10G13620   0.310   7.953   4.013  0.8378 -2.2062  0.3243
  10023SM  C11F13621   0.224   7.758   3.968 -0.9935 -0.1443 -0.0693
  10023SM  H11F13622   0.322   7.717   3.935 -1.0033  0.3672 -0.7533
  10023SM  H11G13623   0.147   7.716   3.899 -1.7510 -0.6892  1.0748
  10023SM  C12F13624   0.206   7.708   4.117 -0.0777  0.0804 -0.0527
  10023SM  H12F13625   0.277   7.743   4.196  0.3772 -1.0849  0.0648
  10023SM  H12G13626   0.208   7.597   4.113  3.5775 -0.0726  1.8169
  10023SM  C13F13627   0.064   7.757   4.154  0.6010 -0.4763 -0.1715
  10023SM  H13F13628  -0.007   7.728   4.074  1.3442 -3.1985  0.0475
  10023SM  H13G13629   0.061   7.868   4.151  0.2507 -0.4924 -0.4904
  10023SM  C14F13630  -0.013   7.715   4.285  0.2556 -0.0726  0.4484
  10023SM  H14F13631   0.034   7.756   4.377 -1.4966 -1.2324  1.9348
  10023SM  H14G13632  -0.023   7.606   4.304  1.8305 -0.1445  1.0037
  10023SM  C15F13633  -0.147   7.782   4.284 -0.4317  0.0488 -0.0316
  10023SM  H15F13634  -0.129   7.891   4.275  1.9179 -0.2221  0.7723
  10023SM  H15G13635  -0.191   7.752   4.382  1.4860 -2.4982  0.1296
  10023SM  C16F13636  -0.245   7.753   4.163  0.3583  0.4279  0.1113
  10023SM  H16F13637  -0.241   7.646   4.134  1.4355 -0.3754  2.9091
  10023SM  H16G13638  -0.194   7.801   4.076 -2.1490  0.7277 -1.2909
  10023SM  C17F13639  -0.384   7.808   4.190 -0.1195 -0.3026 -0.0617
  10023SM  H17F13640  -0.380   7.919   4.197  3.9322 -0.3958  1.8166
  10023SM  H17G13641  -0.429   7.779   4.287  1.1402  0.6985  0.8447
  10023SM  C18F13642  -0.483   7.771   4.071  0.1244 -0.2039 -0.3074
  10023SM  H18F13643  -0.456   7.832   3.982 -1.4690  0.0140 -0.6779
  10023SM  H18G13644  -0.585   7.801   4.102  1.2257  2.6719  0.9694
  10023SM  C19F13645  -0.490   7.624   4.035 -0.0635 -0.2768 -0.0473
  10023SM  H19F13646  -0.398   7.561   4.042  0.6673  0.8164  0.4943
  10023SM  H19G13647  -0.525   7.613   3.930 -4.2577 -0.4330  1.1959
  10023SM  C20F13648  -0.585   7.550   4.124 -0.2606 -0.3547  0.7551
  10023SM  H20F13649  -0.672   7.516   4.064 -0.0318 -0.8668  0.7116
  10023SM  H20G13650  -0.630   7.629   4.188 -0.7395 -0.1164  0.1372
  10023SM  C21F13651  -0.526   7.439   4.219  0.8377 -0.2507 -0.4355
  10023SM  H21F13652  -0.427   7.473   4.257  0.8898  0.8006 -1.4370
  10023SM  H21G13653  -0.504   7.348   4.159  1.4315 -0.3745 -0.0416
  10023SM  C22F13654  -0.611   7.404   4.346 -0.2381  0.2569 -0.4258
  10023SM  H22F13655  -0.558   7.325   4.402  0.1055 -2.9554 -4.7917
  10023SM  H22G13656  -0.714   7.373   4.316  0.0891  1.0026 -2.5139
  10023SM  C23F13657  -0.626   7.521   4.447 -0.8648  0.3053  0.6227
  10023SM  H23F13658  -0.721   7.508   4.504 -1.3042 -1.6404 -0.4513
  10023SM  H23G13659  -0.637   7.607   4.377  2.3066 -0.2569 -0.7477
  10023SM  H23H13660  -0.535   7.532   4.509 -0.8137 -1.9530  1.0572
  101CHL1    C313661   3.280   3.556   6.508 -0.3158  0.1673 -0.0331
  101CHL1    H313662   3.181   3.601   6.485  1.5359  2.6083 -4.2382
  101CHL1    O313663   3.272   3.474   6.626 -0.2596  0.1117 -0.0750
  101CHL1   H3'13664   3.358   3.432   6.636  0.2740  1.0465 -0.6645
  101CHL1    C413665   3.319   3.467   6.387 -0.3236  0.6756  0.0831
  101CHL1   H4A13666   3.412   3.414   6.417 -0.1498  1.7569  1.5382
  101CHL1   H4B13667   3.237   3.393   6.376 -2.8353  3.3339 -0.5306
  101CHL1    C513668   3.333   3.552   6.262  0.5632  0.9461  0.0205
  101CHL1    C613669   3.269   3.531   6.144 -0.1376  0.4878 -0.3261
  101CHL1    H613670   3.203   3.442   6.138 -0.2775  0.6315 -0.9368
  101CHL1    C713671   3.283   3.597   6.017 -0.7902 -0.4410  0.2811
  101CHL1   H7A13672   3.285   3.530   5.928 -0.9266  1.2779 -1.0607
  101CHL1   H7B13673   3.203   3.673   6.009 -0.1491  0.5220  2.2498
  101CHL1    C813674   3.414   3.682   6.018 -0.2560 -0.8865 -0.0580
  101CHL1    H813675   3.504   3.617   6.014 -0.3265 -0.9269 -1.6082
  101CHL1   C1413676   3.413   3.781   5.900 -0.0256 -0.4129  0.2745
  101CHL1   H1413677   3.323   3.844   5.921  1.0624  0.7634  1.6329
  101CHL1   C1513678   3.394   3.717   5.760  0.2500 -0.3913  0.0104
  101CHL1  H15A13679   3.462   3.630   5.767  0.6461  0.0276  2.6064
  101CHL1  H15B13680   3.289   3.692   5.733 -0.1553  2.3370 -1.3611
  101CHL1   C1613681   3.442   3.824   5.666 -0.2028  0.2752 -0.9432
  101CHL1  H16A13682   3.523   3.772   5.610  0.0676 -0.0394 -0.2799
  101CHL1  H16B13683   3.360   3.854   5.599 -1.1581 -0.7537 -0.2719
  101CHL1   C1713684   3.501   3.946   5.749  0.1486 -0.2145  0.6667
  101CHL1   H1713685   3.413   4.013   5.762 -0.4990 -1.1524  1.2156
  101CHL1   C1313686   3.534   3.878   5.886  0.6189  0.2057 -0.2702
  101CHL1   C1813687   3.674   3.815   5.879  0.2043 -0.2547 -0.1459
  101CHL1  H18A13688   3.705   3.746   5.961 -1.1851 -0.6299  0.0849
  101CHL1  H18B13689   3.683   3.752   5.788  0.9276 -1.2378  0.5773
  101CHL1  H18C13690   3.740   3.904   5.867 -0.0655  0.0039  0.2602
  101CHL1   C1213691   3.532   3.961   6.018 -0.2326  0.3395  0.8494
  101CHL1  H12A13692   3.607   4.043   6.014 -1.2245  1.2333 -0.0598
  101CHL1  H12B13693   3.430   4.004   6.021  0.3149  1.8222 -0.5787
  101CHL1   C1113694   3.547   3.872   6.145 -0.4876  0.3035 -0.2955
  101CHL1  H11A13695   3.649   3.829   6.150 -0.8435 -0.3998  2.1326
  101CHL1  H11B13696   3.531   3.938   6.232  1.4272 -0.9353  1.0709
  101CHL1    C913697   3.430   3.768   6.145 -0.0365 -0.4263 -0.7828
  101CHL1    H913698   3.335   3.825   6.151  0.2062 -0.1454  0.8468
  101CHL1   C1013699   3.429   3.671   6.270  0.0455  1.2896 -0.2044
  101CHL1   C1913700   3.572   3.612   6.283 -0.0355  0.1349  0.6490
  101CHL1  H19A13701   3.592   3.539   6.202 -2.8708 -0.0386  0.0229
  101CHL1  H19B13702   3.650   3.691   6.293 -0.7051  0.8183  0.5453
  101CHL1  H19C13703   3.574   3.549   6.375 -3.1011 -1.8599 -0.5232
  101CHL1    C113704   3.394   3.748   6.400  0.3902 -0.0516  1.1181
  101CHL1   H1A13705   3.477   3.822   6.408 -0.3342  1.0017 -0.5412
  101CHL1   H1B13706   3.303   3.811   6.387 -1.0737 -2.0257  1.3458
  101CHL1    C213707   3.379   3.678   6.529  1.0107 -0.4277 -0.4974
  101CHL1   H2A13708   3.329   3.740   6.607 -0.7849  0.6958 -2.4570
  101CHL1   H2B13709   3.478   3.644   6.565  1.3070  0.0414 -0.8613
  101CHL1   C2013710   3.600   4.030   5.658 -0.8545 -0.1715 -0.4312
  101CHL1   H2013711   3.684   3.962   5.630  0.4778  0.6501  1.3307
  101CHL1   C2113712   3.667   4.140   5.745 -0.1327  0.3476 -1.0598
  101CHL1  H21A13713   3.740   4.096   5.816 -0.5676  0.2195 -0.6936
  101CHL1  H21B13714   3.585   4.190   5.800  0.7811  0.5320  0.1798
  101CHL1  H21C13715   3.717   4.222   5.689  1.4532  1.2007  1.4267
  101CHL1   C2213716   3.537   4.081   5.526 -0.3715 -0.5515 -0.6659
  101CHL1  H22A13717   3.614   4.148   5.482  1.7706 -1.8879  0.9267
  101CHL1  H22B13718   3.520   3.997   5.455 -0.7412  0.2907 -1.5971
  101CHL1   C2313719   3.408   4.163   5.544 -0.2349  0.4431  0.0470
  101CHL1  H23A13720   3.332   4.087   5.571 -0.2238  0.2714 -0.3990
  101CHL1  H23B13721   3.435   4.235   5.624 -0.0640 -0.6188  0.9515
  101CHL1   C2413722   3.385   4.246   5.421  0.2899 -0.3480  0.0086
  101CHL1  H24A13723   3.329   4.333   5.462  1.6515  0.5840 -0.0308
  101CHL1  H24B13724   3.479   4.278   5.371  0.4029 -1.5154 -0.5585
  101CHL1   C2513725   3.287   4.185   5.313  0.6919  0.3432  0.2836
  101CHL1   H2513726   3.191   4.171   5.368 -0.1110 -1.3036 -1.4585
  101CHL1   C2613727   3.262   4.294   5.211 -0.7865  0.7054 -0.3933
  101CHL1  H26A13728   3.226   4.387   5.260  0.3933  0.6215  0.6650
  101CHL1  H26B13729   3.359   4.311   5.161 -0.1097  0.3885  0.7803
  101CHL1  H26C13730   3.186   4.267   5.135  0.7435  1.0482 -2.1266
  101CHL1   C2713731   3.338   4.059   5.240  0.6220  1.1219  0.1090
  101CHL1  H27A13732   3.287   4.045   5.142 -0.2766  0.8956  0.5954
  101CHL1  H27B13733   3.447   4.061   5.219  0.7148 -0.1175  0.3831
  101CHL1  H27C13734   3.297   3.974   5.298 -2.0727  1.7157 -0.7582
  102CHL1    C313735   2.197   3.391   6.080 -0.4450 -0.5392 -0.1250
  102CHL1    H313736   2.093   3.387   6.040 -0.4014  0.4585 -0.3820
  102CHL1    O313737   2.186   3.384   6.219 -0.3750 -0.2374 -0.8011
  102CHL1   H3'13738   2.222   3.297   6.238 -0.1010  0.1036  0.2684
  102CHL1    C413739   2.283   3.285   6.015 -0.2032  0.4020  0.1850
  102CHL1   H4A13740   2.387   3.296   6.054 -0.6652 -0.9785  1.9564
  102CHL1   H4B13741   2.258   3.181   6.045  0.6122 -0.3780 -1.7382
  102CHL1    C513742   2.280   3.298   5.861  0.7617  0.2624 -0.0366
  102CHL1    C613743   2.238   3.198   5.775 -1.0765 -0.0870 -0.0530
  102CHL1    H613744   2.224   3.098   5.817  4.6556 -0.7456  1.0642
  102CHL1    C713745   2.233   3.205   5.619  0.3713  0.0175  0.1084
  102CHL1   H7A13746   2.276   3.112   5.576  0.6898  0.5556 -0.7512
  102CHL1   H7B13747   2.125   3.217   5.598  0.3972 -2.3007 -1.6489
  102CHL1    C813748   2.325   3.323   5.581 -0.0778  0.0716  0.8525
  102CHL1    H813749   2.430   3.288   5.584 -0.4952 -2.1456 -3.2606
  102CHL1   C1413750   2.307   3.349   5.435  0.3098 -0.8941  0.3761
  102CHL1   H1413751   2.199   3.372   5.418  0.6957 -0.2267 -1.4336
  102CHL1   C1513752   2.336   3.234   5.342  0.1591  0.2842 -0.9249
  102CHL1  H15A13753   2.433   3.190   5.371 -0.1855  0.3686  0.4530
  102CHL1  H15B13754   2.261   3.152   5.338  1.0460 -0.6865  0.7975
  102CHL1   C1613755   2.351   3.295   5.202 -0.3374  0.0101  0.5562
  102CHL1  H16A13756   2.443   3.254   5.155 -2.3045 -2.5852 -1.3372
  102CHL1  H16B13757   2.266   3.264   5.137  0.2566 -0.3767 -0.0400
  102CHL1   C1713758   2.355   3.447   5.218 -0.2648  0.0122 -0.0408
  102CHL1   H1713759   2.251   3.487   5.218 -0.3395 -0.1843  0.0410
  102CHL1   C1313760   2.384   3.466   5.368  0.4981 -0.7904 -0.2249
  102CHL1   C1813761   2.535   3.445   5.409  0.0429  0.1868  0.1448
  102CHL1  H18A13762   2.551   3.431   5.518  2.2689  1.6719  0.0691
  102CHL1  H18B13763   2.584   3.360   5.356  1.0349 -0.2044  1.6457
  102CHL1  H18C13764   2.582   3.540   5.375 -2.2117  0.6488 -1.9644
  102CHL1   C1213765   2.334   3.594   5.434 -0.4508  0.4912 -0.2301
  102CHL1  H12A13766   2.395   3.681   5.402 -0.1499  0.5222  0.3997
  102CHL1  H12B13767   2.233   3.626   5.401 -0.3716  1.0137  0.0178
  102CHL1   C1113768   2.346   3.585   5.590 -0.1499 -0.6700 -0.0017
  102CHL1  H11A13769   2.456   3.591   5.608  0.1134 -2.0913 -0.9905
  102CHL1  H11B13770   2.300   3.678   5.630 -0.4942 -0.4694 -0.8425
  102CHL1    C913771   2.292   3.450   5.659 -0.2884 -0.0604 -0.0141
  102CHL1    H913772   2.182   3.463   5.654 -0.5582 -0.9842  2.4234
  102CHL1   C1013773   2.319   3.438   5.807  0.3308  0.1159 -0.5832
  102CHL1   C1913774   2.468   3.471   5.833 -0.2201 -0.2203  0.2296
  102CHL1  H19A13775   2.500   3.446   5.936 -1.6478 -0.0564  0.7384
  102CHL1  H19B13776   2.530   3.410   5.764 -0.8896 -0.8414  0.1655
  102CHL1  H19C13777   2.492   3.579   5.828  2.7268 -0.8318 -0.2423
  102CHL1    C113778   2.237   3.544   5.883  0.0423 -0.1351  0.5820
  102CHL1   H1A13779   2.281   3.642   5.853  0.9524 -0.7175 -0.0091
  102CHL1   H1B13780   2.135   3.544   5.838  1.1345  0.4231 -2.1197
  102CHL1    C213781   2.241   3.527   6.035 -0.6387  0.8524  0.0711
  102CHL1   H2A13782   2.171   3.601   6.077  1.9741  2.0329  2.7243
  102CHL1   H2B13783   2.340   3.553   6.078 -0.0606 -1.3214  0.2016
  102CHL1   C2013784   2.431   3.524   5.115  0.2657  0.0788  0.3682
  102CHL1   H2013785   2.539   3.500   5.125  0.3419  1.0822  2.7527
  102CHL1   C2113786   2.413   3.676   5.140  0.3731 -0.0910  0.2883
  102CHL1  H21A13787   2.444   3.738   5.053 -2.6359  0.6140 -0.3822
  102CHL1  H21B13788   2.470   3.698   5.233 -0.1011 -3.0861  1.3692
  102CHL1  H21C13789   2.308   3.702   5.165 -0.3199 -1.3963 -1.1204
  102CHL1   C2213790   2.398   3.480   4.969 -0.5203 -0.0137  0.0462
  102CHL1  H22A13791   2.460   3.530   4.892 -0.4113 -0.1511  0.0452
  102CHL1  H22B13792   2.421   3.372   4.957  1.3598  0.4741 -1.1982
  102CHL1   C2313793   2.245   3.492   4.938  0.2473  0.0872 -0.1893
  102CHL1  H23A13794   2.202   3.426   5.016  3.6931 -1.4550  0.5951
  102CHL1  H23B13795   2.217   3.600   4.947  0.1598  0.0746 -0.3153
  102CHL1   C2413796   2.201   3.450   4.799 -0.5278  0.6855  0.3682
  102CHL1  H24A13797   2.092   3.461   4.783 -0.6333 -2.8420 -2.7584
  102CHL1  H24B13798   2.257   3.512   4.726  0.3972 -1.4789 -0.8458
  102CHL1   C2513799   2.234   3.304   4.764 -0.6479  0.8503 -0.1438
  102CHL1   H2513800   2.250   3.242   4.855 -0.4940  1.8109  0.5033
  102CHL1   C2613801   2.118   3.235   4.693 -0.1167 -0.2269  0.3740
  102CHL1  H26A13802   2.088   3.295   4.605 -0.2405 -1.4567 -0.4549
  102CHL1  H26B13803   2.138   3.135   4.649 -1.5734  0.8827 -3.1348
  102CHL1  H26C13804   2.030   3.232   4.761 -1.1436 -1.1674 -0.9527
  102CHL1   C2713805   2.366   3.287   4.680 -0.0675 -0.4399  0.3141
  102CHL1  H27A13806   2.341   3.330   4.581 -0.3023 -1.2148  0.0335
  102CHL1  H27B13807   2.447   3.350   4.724 -1.0393 -0.7075  2.6489
  102CHL1  H27C13808   2.413   3.186   4.671  1.4878  0.3792 -1.5146
  103CHL1    C313809   1.816   2.841   6.197  0.1730  0.6477  0.6754
  103CHL1    H313810   1.846   2.943   6.164  0.2224  0.1063 -0.9981
  103CHL1    O313811   1.767   2.838   6.332 -0.4715  0.4446 -0.2812
  103CHL1   H3'13812   1.777   2.746   6.358  1.5517  0.6644 -0.0946
  103CHL1    C413813   1.722   2.787   6.088 -0.5572  0.4893 -0.0968
  103CHL1   H4A13814   1.693   2.682   6.109  1.8531 -1.2735 -4.2814
  103CHL1   H4B13815   1.628   2.845   6.099 -0.2230  1.0676 -0.2182
  103CHL1    C513816   1.786   2.786   5.950  0.2398 -0.0940 -0.6339
  103CHL1    C613817   1.737   2.862   5.852  0.9379  0.1056 -0.2021
  103CHL1    H613818   1.638   2.908   5.870  1.0873  0.1218  0.6520
  103CHL1    C713819   1.818   2.871   5.723 -0.0761 -0.2863 -0.2180
  103CHL1   H7A13820   1.760   2.907   5.635  0.9798 -1.2915 -1.3538
  103CHL1   H7B13821   1.886   2.955   5.750 -2.7219  1.4255  1.5814
  103CHL1    C813822   1.912   2.751   5.699 -0.4685 -0.4965  0.0212
  103CHL1    H813823   1.843   2.668   5.671 -0.6175 -0.2892 -0.2300
  103CHL1   C1413824   1.998   2.794   5.582 -1.0794  0.4655 -0.6338
  103CHL1   H1413825   2.058   2.884   5.606  1.7877 -1.1524 -1.2182
  103CHL1   C1513826   1.928   2.830   5.447 -1.0148 -0.1143  0.0060
  103CHL1  H15A13827   1.831   2.778   5.436  0.0788 -2.3096  0.1077
  103CHL1  H15B13828   1.916   2.940   5.441 -0.4649 -0.1151 -1.9047
  103CHL1   C1613829   2.027   2.795   5.331  0.9119 -0.3119 -0.2434
  103CHL1  H16A13830   1.979   2.714   5.272  1.1382 -0.6078 -0.0213
  103CHL1  H16B13831   2.053   2.881   5.265 -1.0609 -0.6051 -1.5019
  103CHL1   C1713832   2.154   2.743   5.411 -0.1052 -0.0305 -0.5863
  103CHL1   H1713833   2.216   2.835   5.424 -0.8503  0.6344 -1.5684
  103CHL1   C1313834   2.101   2.689   5.542  0.1920 -0.5565  0.6124
  103CHL1   C1813835   2.029   2.560   5.519 -0.6928 -0.5430 -0.1895
  103CHL1  H18A13836   2.098   2.481   5.483 -0.3223 -0.9807  1.4227
  103CHL1  H18B13837   1.986   2.511   5.609  2.1145  0.3468  1.8022
  103CHL1  H18C13838   1.945   2.563   5.447 -0.2598  2.0869 -0.6985
  103CHL1   C1213839   2.198   2.669   5.666  0.7779  0.5255 -0.0845
  103CHL1  H12A13840   2.272   2.587   5.649 -1.6114 -1.8598  0.2170
  103CHL1  H12B13841   2.262   2.759   5.671  1.6854  0.0197 -1.8189
  103CHL1   C1113842   2.130   2.645   5.800  0.7912  0.0065  0.3988
  103CHL1  H11A13843   2.100   2.538   5.799 -1.0489  0.4937 -0.6904
  103CHL1  H11B13844   2.204   2.659   5.882  0.9227 -0.8641  0.4368
  103CHL1    C913845   2.003   2.734   5.824 -0.4514 -0.6718 -0.4839
  103CHL1    H913846   2.040   2.837   5.841 -3.8532  0.5857 -0.0472
  103CHL1   C1013847   1.919   2.707   5.952  0.3359  0.3878 -0.8048
  103CHL1   C1913848   1.877   2.558   5.960 -1.0350  0.1146 -0.1476
  103CHL1  H19A13849   1.824   2.542   6.057  0.0724 -0.4898  0.3707
  103CHL1  H19B13850   1.808   2.527   5.878 -3.0293  1.4203  0.9347
  103CHL1  H19C13851   1.962   2.487   5.966 -0.6091  0.3792 -2.1955
  103CHL1    C113852   2.015   2.751   6.077  0.2163 -0.5310  0.9973
  103CHL1   H1A13853   2.103   2.684   6.084  0.9888  0.4645  1.1589
  103CHL1   H1B13854   2.047   2.856   6.057 -4.4080  1.3730  2.0979
  103CHL1    C213855   1.940   2.749   6.204 -0.0894 -0.1293  0.0598
  103CHL1   H2A13856   2.006   2.788   6.285  0.4270  0.9212 -0.8379
  103CHL1   H2B13857   1.903   2.650   6.238 -1.1102 -0.2996 -1.4536
  103CHL1   C2013858   2.239   2.654   5.320  0.5594 -0.0999  0.2096
  103CHL1   H2013859   2.188   2.562   5.284  0.8791 -0.1551 -0.1068
  103CHL1   C2113860   2.371   2.600   5.384  0.1786 -0.1816  0.5797
  103CHL1  H21A13861   2.421   2.690   5.424  1.4574  0.0740 -1.4500
  103CHL1  H21B13862   2.439   2.556   5.308 -0.3454  0.0743 -0.0481
  103CHL1  H21C13863   2.363   2.518   5.459  2.6799 -1.6667 -0.6602
  103CHL1   C2213864   2.279   2.718   5.176 -0.0925 -0.4590 -0.4025
  103CHL1  H22A13865   2.339   2.644   5.118  1.7599 -0.1404  1.0132
  103CHL1  H22B13866   2.180   2.726   5.127  0.0366 -2.3335 -1.0446
  103CHL1   C2313867   2.337   2.855   5.194  0.8131 -0.1595 -0.4540
  103CHL1  H23A13868   2.279   2.927   5.257  0.4444  0.3151 -1.3238
  103CHL1  H23B13869   2.432   2.844   5.251 -0.3828  2.4285  2.3441
  103CHL1   C2413870   2.355   2.931   5.060  0.4643 -0.3056 -0.3085
  103CHL1  H24A13871   2.251   2.951   5.026  0.2251 -1.4485 -0.2759
  103CHL1  H24B13872   2.405   3.028   5.082  0.6932 -0.7000  0.9750
  103CHL1   C2513873   2.417   2.865   4.943 -0.1197  0.0372 -0.1344
  103CHL1   H2513874   2.361   2.777   4.905  1.1170 -1.4595  1.3304
  103CHL1   C2613875   2.429   2.952   4.814  0.6240  0.2030  0.3545
  103CHL1  H26A13876   2.471   2.885   4.736 -1.3249 -0.1054 -0.4846
  103CHL1  H26B13877   2.324   2.970   4.783  1.5904  3.0295 -1.6670
  103CHL1  H26C13878   2.478   3.052   4.816  0.0229  0.4952  1.0270
  103CHL1   C2713879   2.563   2.823   4.987  0.1837  0.0027 -0.2738
  103CHL1  H27A13880   2.611   2.782   4.895 -2.1253 -3.3586 -0.1519
  103CHL1  H27B13881   2.615   2.914   5.025 -0.7395  1.0442 -1.4224
  103CHL1  H27C13882   2.564   2.739   5.060 -0.6841 -0.7504 -1.0878
  104CHL1    C313883   5.029   3.278   6.245  0.3275  0.3223 -0.6357
  104CHL1    H313884   4.922   3.309   6.246 -1.2009 -4.1972  0.3496
  104CHL1    O313885   5.089   3.291   6.377  0.2363  0.0393 -0.8782
  104CHL1   H3'13886   5.069   3.209   6.424  2.1173  0.4819  0.7647
  104CHL1    C413887   5.049   3.136   6.195  0.4581  0.0408  0.1294
  104CHL1   H4A13888   5.157   3.108   6.195  0.4876  0.1449  0.6881
  104CHL1   H4B13889   5.005   3.071   6.273  1.4343  0.3920  1.0092
  104CHL1    C513890   4.992   3.117   6.059  0.5270  0.9444  0.5832
  104CHL1    C613891   4.899   3.018   6.037 -0.0731 -0.2187  0.0703
  104CHL1    H613892   4.868   2.954   6.121  0.7168  2.1269  2.2994
  104CHL1    C713893   4.855   2.985   5.903 -0.1914  0.6494  0.5050
  104CHL1   H7A13894   4.859   2.875   5.889  0.9336  0.7916 -0.3734
  104CHL1   H7B13895   4.751   3.024   5.897 -0.0197  1.2009  0.9835
  104CHL1    C813896   4.934   3.041   5.791  0.7139 -0.4859 -0.3502
  104CHL1    H813897   5.022   2.974   5.775 -0.1001 -1.3627 -1.3044
  104CHL1   C1413898   4.848   3.042   5.663  0.6720  0.0894 -0.7458
  104CHL1   H1413899   4.769   3.116   5.686  0.6601  0.7312 -2.6074
  104CHL1   C1513900   4.774   2.915   5.620 -0.1785 -0.0712 -0.1705
  104CHL1  H15A13901   4.850   2.833   5.614 -0.9200 -0.7223 -0.9243
  104CHL1  H15B13902   4.680   2.895   5.675  0.5676 -1.2432  0.7427
  104CHL1   C1613903   4.740   2.940   5.473 -0.0552  0.3065  0.1911
  104CHL1  H16A13904   4.785   2.856   5.417  0.3095  1.5545 -1.4570
  104CHL1  H16B13905   4.629   2.935   5.459 -0.4203 -0.1762  2.7880
  104CHL1   C1713906   4.799   3.077   5.434  0.2343 -0.1778  0.1290
  104CHL1   H1713907   4.711   3.142   5.455  0.1737  0.3757 -1.6401
  104CHL1   C1313908   4.910   3.104   5.533  0.3477  0.1202  0.2633
  104CHL1   C1813909   5.040   3.023   5.501 -0.3739 -0.1145 -0.3794
  104CHL1  H18A13910   5.010   2.923   5.462  1.8196 -1.0001  0.0792
  104CHL1  H18B13911   5.097   3.076   5.422  0.2546  0.0589  0.1818
  104CHL1  H18C13912   5.106   3.019   5.590  2.9947  0.4357 -2.6853
  104CHL1   C1213913   4.931   3.254   5.569 -0.0687  0.2268 -0.2040
  104CHL1  H12A13914   4.970   3.303   5.477 -1.2732  1.9165  0.1351
  104CHL1  H12B13915   4.832   3.304   5.571 -1.1396 -1.7169 -1.5341
  104CHL1   C1113916   5.019   3.267   5.692  0.1681 -0.4595 -0.3187
  104CHL1  H11A13917   5.125   3.234   5.678  1.6513  3.9944 -1.2781
  104CHL1  H11B13918   5.015   3.377   5.707 -2.8384 -0.0026 -3.3117
  104CHL1    C913919   4.970   3.196   5.816 -0.1275  0.7814 -0.2436
  104CHL1    H913920   4.873   3.245   5.836  0.9768  2.1174  2.3519
  104CHL1   C1013921   5.048   3.211   5.952  0.5098 -0.2780  0.1717
  104CHL1   C1913922   5.202   3.180   5.926  0.0876 -0.5039  0.0149
  104CHL1  H19A13923   5.245   3.244   5.845 -2.4704  1.1117 -0.1752
  104CHL1  H19B13924   5.263   3.203   6.016 -0.1564  2.6555 -0.5058
  104CHL1  H19C13925   5.233   3.076   5.903  1.2369 -0.1620 -0.0802
  104CHL1    C113926   5.036   3.356   6.007 -0.1900 -0.3930  0.0771
  104CHL1   H1A13927   5.086   3.414   5.926  0.6121 -0.8529  0.2280
  104CHL1   H1B13928   4.929   3.385   6.013 -0.1938 -0.7570  2.4563
  104CHL1    C213929   5.100   3.373   6.150  0.7406 -0.5501 -0.3280
  104CHL1   H2A13930   5.086   3.475   6.192 -0.5954 -0.6087 -0.6074
  104CHL1   H2B13931   5.209   3.352   6.138  0.9630  0.9655 -1.2132
  104CHL1   C2013932   4.826   3.094   5.283  0.2585  0.3718 -0.7841
  104CHL1   H2013933   4.933   3.086   5.255  0.5895  2.1073 -0.1304
  104CHL1   C2113934   4.805   3.241   5.248 -0.2092  0.5770 -0.5100
  104CHL1  H21A13935   4.873   3.309   5.304  1.5514 -1.8440  0.4539
  104CHL1  H21B13936   4.704   3.275   5.278  0.6363  0.1638  3.2572
  104CHL1  H21C13937   4.823   3.255   5.139 -0.8398 -1.1136 -0.8603
  104CHL1   C2213938   4.747   3.002   5.192  0.8786 -0.2783 -0.3671
  104CHL1  H22A13939   4.767   2.896   5.217  0.9521 -0.0602  0.5456
  104CHL1  H22B13940   4.639   3.010   5.217 -0.1326  0.9276 -4.4015
  104CHL1   C2313941   4.765   3.015   5.042  0.0389  0.5607 -0.1535
  104CHL1  H23A13942   4.729   3.111   5.001  2.7600  0.9667 -1.8435
  104CHL1  H23B13943   4.873   3.007   5.019  0.1796  1.7981  0.0443
  104CHL1   C2413944   4.694   2.896   4.974  0.4925  0.8362 -0.1606
  104CHL1  H24A13945   4.713   2.797   5.021 -2.2794  0.1378 -0.3938
  104CHL1  H24B13946   4.586   2.906   4.995  0.7043 -0.7146  2.0815
  104CHL1   C2513947   4.725   2.879   4.825  0.3292 -0.4190  0.2585
  104CHL1   H2513948   4.654   2.806   4.780 -1.5357 -0.1576  2.5983
  104CHL1   C2613949   4.692   3.008   4.756  0.1307  0.2421 -0.0015
  104CHL1  H26A13950   4.698   3.011   4.645  2.0770 -2.0075 -0.0159
  104CHL1  H26B13951   4.600   3.048   4.806  0.8305 -0.2154  1.7170
  104CHL1  H26C13952   4.761   3.083   4.801 -0.4306  0.8412 -0.1210
  104CHL1   C2713953   4.877   2.834   4.792  0.7920  0.5451  0.4624
  104CHL1  H27A13954   4.948   2.896   4.852 -0.1001  1.4465  0.6174
  104CHL1  H27B13955   4.882   2.730   4.831  0.8248  0.4906  0.3102
  104CHL1  H27C13956   4.912   2.834   4.687 -0.2070 -0.4612  0.1206
  105CHL1    C313957   4.644   3.179   6.383  0.0089 -0.1942  0.3126
  105CHL1    H313958   4.747   3.155   6.351 -0.8290 -0.3975 -2.5057
  105CHL1    O313959   4.667   3.210   6.518  0.3977 -0.3160  0.1719
  105CHL1   H3'13960   4.642   3.126   6.557 -2.3400 -0.5519 -1.7326
  105CHL1    C413961   4.591   3.311   6.327  0.0545  0.4126  1.0528
  105CHL1   H4A13962   4.503   3.340   6.388 -2.6343 -1.7869 -1.4667
  105CHL1   H4B13963   4.659   3.398   6.336 -0.3942  0.8380  0.3846
  105CHL1    C513964   4.556   3.283   6.184  0.5805  0.1219 -0.0472
  105CHL1    C613965   4.619   3.360   6.092  0.4652 -0.4557  0.5725
  105CHL1    H613966   4.682   3.446   6.118  0.0052  0.7549 -2.0772
  105CHL1    C713967   4.591   3.345   5.946  0.5359 -0.6304 -0.0169
  105CHL1   H7A13968   4.584   3.449   5.908  0.3500  0.3124  2.4318
  105CHL1   H7B13969   4.682   3.306   5.896  0.8908  0.8622 -0.5946
  105CHL1    C813970   4.461   3.268   5.916  0.1293  0.5783  0.1832
  105CHL1    H813971   4.379   3.342   5.929 -0.1174  0.9237 -2.6321
  105CHL1   C1413972   4.455   3.221   5.775  0.2769  0.6578  0.3620
  105CHL1   H1413973   4.544   3.155   5.766  2.4448  3.4484 -0.0496
  105CHL1   C1513974   4.483   3.327   5.673 -0.1698 -0.0526  0.1644
  105CHL1  H15A13975   4.436   3.424   5.698  0.7026  0.1749  0.9561
  105CHL1  H15B13976   4.592   3.344   5.657  0.1465  0.3930  2.4444
  105CHL1   C1613977   4.422   3.274   5.542  0.3306  0.7421 -0.6726
  105CHL1  H16A13978   4.342   3.337   5.498 -0.9216  0.7756  1.5515
  105CHL1  H16B13979   4.504   3.265   5.467  0.6859  1.6755 -0.4078
  105CHL1   C1713980   4.365   3.130   5.573 -0.4101  0.5233 -0.3771
  105CHL1   H1713981   4.444   3.052   5.564 -0.9687 -0.0979 -0.0178
  105CHL1   C1313982   4.330   3.145   5.729  0.1990 -0.3011  0.8796
  105CHL1   C1813983   4.212   3.240   5.736  1.0057  1.0409 -0.4566
  105CHL1  H18A13984   4.213   3.273   5.842  1.8300  1.0807 -0.4716
  105CHL1  H18B13985   4.195   3.324   5.665 -1.2443  1.4218  0.4424
  105CHL1  H18C13986   4.113   3.188   5.734  0.0321  2.5951  2.1916
  105CHL1   C1213987   4.305   3.017   5.812 -0.9476  0.3499 -0.4566
  105CHL1  H12A13988   4.210   2.963   5.790  0.0034 -0.3791 -3.2079
  105CHL1  H12B13989   4.382   2.937   5.809 -1.8667 -0.6530  1.1209
  105CHL1   C1113990   4.334   3.050   5.960 -0.5065  0.7768 -0.4408
  105CHL1  H11A13991   4.241   3.096   6.001 -0.8611  2.2104 -2.6810
  105CHL1  H11B13992   4.335   2.956   6.018 -2.3867  1.2893  0.5263
  105CHL1    C913993   4.455   3.141   6.000 -0.0427  0.3299 -0.4791
  105CHL1    H913994   4.550   3.089   5.974  1.9613  1.0367  4.2918
  105CHL1   C1013995   4.458   3.167   6.154  1.0072  0.9464  0.4689
  105CHL1   C1913996   4.324   3.221   6.206 -0.2840  0.0792  0.3604
  105CHL1  H19A13997   4.321   3.222   6.317 -0.8779 -0.1412  0.3525
  105CHL1  H19B13998   4.301   3.321   6.164  0.3116 -0.3906 -1.1771
  105CHL1  H19C13999   4.239   3.152   6.187  0.1775 -0.6134  0.7587
  105CHL1    C114000   4.497   3.039   6.231  0.3107  0.8819 -0.0169
  105CHL1   H1A14001   4.418   2.961   6.233 -0.3454  1.5463  0.1290
  105CHL1   H1B14002   4.579   2.994   6.171 -1.1924 -1.3492 -0.5298
  105CHL1    C214003   4.549   3.060   6.378  0.3347  0.5440  0.4467
  105CHL1   H2A14004   4.604   2.969   6.410 -0.7003 -0.9067 -1.7691
  105CHL1   H2B14005   4.464   3.066   6.449  1.9728 -1.8507  2.8236
  105CHL1   C2014006   4.266   3.080   5.468 -0.1998  0.4009 -0.0255
  105CHL1   H2014007   4.171   3.137   5.468  0.3576  1.4200  1.7479
  105CHL1   C2114008   4.232   2.935   5.502 -0.5279  0.1224 -0.4579
  105CHL1  H21A14009   4.181   2.931   5.601  0.1432  1.0288 -0.0610
  105CHL1  H21B14010   4.322   2.870   5.500  1.3286  2.4366  1.6092
  105CHL1  H21C14011   4.152   2.892   5.438 -1.0910 -2.1577  1.6005
  105CHL1   C2214012   4.328   3.092   5.327 -0.0238  0.3130 -0.9209
  105CHL1  H22A14013   4.388   3.184   5.304  1.5009  0.0173  1.4652
  105CHL1  H22B14014   4.394   3.003   5.321  1.7096  1.3580  0.9699
  105CHL1   C2314015   4.227   3.085   5.213  0.4962  0.8631 -0.6179
  105CHL1  H23A14016   4.167   2.994   5.233  1.5010 -0.0568 -1.6077
  105CHL1  H23B14017   4.151   3.166   5.223  0.7074  0.8223  1.7913
  105CHL1   C2414018   4.287   3.095   5.074  0.1256 -0.7272 -0.3484
  105CHL1  H24A14019   4.347   3.188   5.062 -0.4306 -0.4692 -1.2415
  105CHL1  H24B14020   4.376   3.028   5.066  1.6450  0.9102  1.5050
  105CHL1   C2514021   4.189   3.078   4.959 -0.0081 -0.0149  0.1034
  105CHL1   H2514022   4.140   2.982   4.987 -0.4192  0.1556 -0.0203
  105CHL1   C2614023   4.075   3.183   4.957  0.2928 -0.0384 -0.0214
  105CHL1  H26A14024   4.110   3.273   4.901  0.2631 -1.1685 -1.9612
  105CHL1  H26B14025   3.990   3.137   4.901 -0.3214 -2.1952  2.4745
  105CHL1  H26C14026   4.029   3.207   5.055 -0.9181 -2.4786  0.0718
  105CHL1   C2714027   4.247   3.071   4.821  0.4618  0.9725 -0.2783
  105CHL1  H27A14028   4.318   2.986   4.824 -0.4969  0.1851  0.9442
  105CHL1  H27B14029   4.172   3.047   4.743 -0.0456  2.8788 -0.4342
  105CHL1  H27C14030   4.300   3.165   4.792 -0.7350  1.6923 -0.2091
  106CHL1    C314031   1.165   2.320   6.163 -0.1280  0.9106  0.1346
  106CHL1    H314032   1.248   2.263   6.210 -0.5712 -0.1206 -0.2985
  106CHL1    O314033   1.067   2.337   6.259 -0.4136 -0.2550 -0.4729
  106CHL1   H3'14034   1.099   2.413   6.308  0.8180  0.1023 -1.7625
  106CHL1    C414035   1.221   2.455   6.111 -0.6300  0.0056 -0.7319
  106CHL1   H4A14036   1.127   2.512   6.097 -1.2011 -1.0895 -1.5349
  106CHL1   H4B14037   1.278   2.507   6.191  0.0755 -0.4194 -0.9489
  106CHL1    C514038   1.302   2.449   5.988 -0.5712  0.2988 -0.8385
  106CHL1    C614039   1.424   2.498   5.966  0.4692 -0.2693 -0.5116
  106CHL1    H614040   1.469   2.560   6.046 -0.9951 -2.3020  2.0271
  106CHL1    C714041   1.505   2.486   5.840 -1.1609  0.7778 -1.0311
  106CHL1   H7A14042   1.544   2.589   5.825 -0.3401  0.6657  0.1642
  106CHL1   H7B14043   1.580   2.414   5.881 -2.0179 -0.0903 -0.9569
  106CHL1    C814044   1.426   2.437   5.722  0.5574 -0.0584  0.2453
  106CHL1    H814045   1.367   2.520   5.678  0.7533 -1.1371 -2.2158
  106CHL1   C1414046   1.515   2.401   5.600  0.3275  0.4949  0.0632
  106CHL1   H1414047   1.571   2.311   5.633  1.9676  0.5858 -2.2328
  106CHL1   C1514048   1.627   2.497   5.555  0.4484  0.3923 -0.4237
  106CHL1  H15A14049   1.592   2.602   5.551  0.9205  0.6317  1.0663
  106CHL1  H15B14050   1.716   2.491   5.621  1.2014 -0.8414 -1.5230
  106CHL1   C1614051   1.666   2.435   5.425 -0.3591  0.1018  0.4597
  106CHL1  H16A14052   1.676   2.514   5.348 -1.2531  0.8338  1.0674
  106CHL1  H16B14053   1.759   2.376   5.442 -0.7046 -0.7366 -0.4228
  106CHL1   C1714054   1.556   2.332   5.393  0.0884  0.8364 -0.0798
  106CHL1   H1714055   1.601   2.241   5.437 -1.6607  0.6295  1.3725
  106CHL1   C1314056   1.436   2.367   5.483  0.0635 -0.2683 -0.1219
  106CHL1   C1814057   1.363   2.492   5.426 -0.2573 -0.2136 -0.2122
  106CHL1  H18A14058   1.278   2.518   5.493  1.6965  0.4570  2.1404
  106CHL1  H18B14059   1.437   2.574   5.417 -0.2069 -0.1536  0.6879
  106CHL1  H18C14060   1.324   2.473   5.323  1.6150 -0.4192 -0.9185
  106CHL1   C1214061   1.333   2.255   5.513 -0.7155 -0.1340  0.3813
  106CHL1  H12A14062   1.282   2.228   5.418  1.3586 -2.7254 -0.1044
  106CHL1  H12B14063   1.391   2.163   5.537  1.1360  0.6145 -1.0838
  106CHL1   C1114064   1.249   2.293   5.637  0.9065  0.0036  0.0138
  106CHL1  H11A14065   1.181   2.374   5.602 -0.6848 -1.1590  0.2741
  106CHL1  H11B14066   1.182   2.207   5.658 -0.8265  1.4526  0.7035
  106CHL1    C914067   1.333   2.331   5.761 -0.3431  0.0838  0.4173
  106CHL1    H914068   1.398   2.244   5.785  3.2462  2.1405 -1.0618
  106CHL1   C1014069   1.238   2.358   5.883  0.1721  0.3557  0.6977
  106CHL1   C1914070   1.112   2.440   5.840  0.2378 -0.2041  0.1248
  106CHL1  H19A14071   1.043   2.461   5.925  0.8723  1.0249  0.3686
  106CHL1  H19B14072   1.150   2.540   5.810  0.7508 -1.0457 -2.2437
  106CHL1  H19C14073   1.044   2.402   5.761  0.5945  2.1404 -1.4374
  106CHL1    C114074   1.195   2.218   5.933  0.1367  0.1176 -0.1259
  106CHL1   H1A14075   1.136   2.159   5.860 -1.3107  0.6597  0.5766
  106CHL1   H1B14076   1.283   2.153   5.954 -0.4676 -0.0865  2.0581
  106CHL1    C214077   1.110   2.230   6.058 -0.4191 -1.2621  0.4705
  106CHL1   H2A14078   1.098   2.128   6.101  0.6382 -0.8107  1.9122
  106CHL1   H2B14079   1.008   2.264   6.029 -0.1122 -0.1467  0.6328
  106CHL1   C2014080   1.521   2.308   5.241 -0.9951 -0.1222  0.0341
  106CHL1   H2014081   1.412   2.286   5.241 -0.8496 -0.9772  1.5155
  106CHL1   C2114082   1.595   2.176   5.191  0.3184  0.3895 -0.2258
  106CHL1  H21A14083   1.704   2.194   5.175  0.4439  0.8356  0.9966
  106CHL1  H21B14084   1.541   2.152   5.097 -0.7683 -1.1311  0.7631
  106CHL1  H21C14085   1.566   2.092   5.256 -0.9808  0.8493 -0.1821
  106CHL1   C2214086   1.562   2.424   5.160 -0.3175 -0.2124  0.3729
  106CHL1  H22A14087   1.507   2.514   5.195 -1.8475  0.2165 -2.7352
  106CHL1  H22B14088   1.673   2.431   5.166 -0.3585 -0.1914  1.1715
  106CHL1   C2314089   1.537   2.417   5.005  0.0666 -0.5287 -0.2594
  106CHL1  H23A14090   1.606   2.343   4.959  2.8965  2.7885 -1.7535
  106CHL1  H23B14091   1.432   2.383   4.995 -0.4074  1.2535 -1.8953
  106CHL1   C2414092   1.551   2.549   4.929  0.3266 -1.0130 -0.1871
  106CHL1  H24A14093   1.478   2.614   4.982 -0.3953 -1.2447 -0.8813
  106CHL1  H24B14094   1.654   2.576   4.959 -0.3309  1.6448 -0.0546
  106CHL1   C2514095   1.525   2.553   4.781  0.0870  0.0406  0.2848
  106CHL1   H2514096   1.417   2.534   4.763 -0.7743  1.0844  3.6309
  106CHL1   C2614097   1.553   2.698   4.726 -0.3771  0.2073  0.1136
  106CHL1  H26A14098   1.558   2.696   4.615  0.0299  1.4677  0.0909
  106CHL1  H26B14099   1.484   2.775   4.766 -0.2195  1.0824 -1.2251
  106CHL1  H26C14100   1.661   2.707   4.750 -0.2884  0.5000 -0.3911
  106CHL1   C2714101   1.602   2.454   4.693  0.8479  0.6966 -1.1841
  106CHL1  H27A14102   1.710   2.446   4.719  0.6820  0.2870 -0.5872
  106CHL1  H27B14103   1.547   2.358   4.701  1.3649  0.4951  0.2904
  106CHL1  H27C14104   1.594   2.490   4.588 -1.5391  0.9805 -0.9532
  107CHL1    C314105   4.184   6.575   6.710  0.5480 -0.7204 -0.2309
  107CHL1    H314106   4.239   6.665   6.674  0.8002 -0.6049  0.4265
  107CHL1    O314107   4.217   6.570   6.849 -0.0911 -0.2317 -0.4554
  107CHL1   H3'14108   4.285   6.503   6.854 -0.4521 -0.5415  0.5543
  107CHL1    C414109   4.033   6.580   6.683 -0.0157 -0.3987 -0.2556
  107CHL1   H4A14110   3.972   6.496   6.720 -0.1244 -1.4301 -2.6307
  107CHL1   H4B14111   3.995   6.668   6.740  0.1979 -0.7312  0.4199
  107CHL1    C514112   4.012   6.582   6.533 -0.5296 -0.6789  0.1031
  107CHL1    C614113   3.949   6.683   6.475 -0.3504 -0.1324  0.1826
  107CHL1    H614114   3.904   6.762   6.536  1.7626  1.1682  0.1550
  107CHL1    C714115   3.923   6.694   6.325  0.1583 -0.0760 -0.4250
  107CHL1   H7A14116   3.816   6.710   6.298 -0.6176  1.2778  2.9419
  107CHL1   H7B14117   3.997   6.770   6.291  0.1750  0.9009  1.6442
  107CHL1    C814118   3.958   6.572   6.244  0.8725  0.3717 -0.0105
  107CHL1    H814119   3.879   6.497   6.264  2.1132 -1.0649 -0.3660
  107CHL1   C1414120   3.980   6.613   6.096  0.5825  0.7350 -1.2384
  107CHL1   H1414121   4.060   6.689   6.108 -0.6109  1.7087  1.5712
  107CHL1   C1514122   3.875   6.684   6.017 -0.0139  0.2442  0.1973
  107CHL1  H15A14123   3.777   6.637   6.040  0.0520 -1.1543 -2.0105
  107CHL1  H15B14124   3.859   6.789   6.049 -2.1662 -0.1886  0.6379
  107CHL1   C1614125   3.893   6.658   5.866 -0.5423 -1.1154 -0.3984
  107CHL1  H16A14126   3.800   6.614   5.823 -2.0434  1.4601 -0.0433
  107CHL1  H16B14127   3.924   6.754   5.818  1.7103 -0.3507  2.2933
  107CHL1   C1714128   4.015   6.562   5.871  0.1520 -0.0908 -0.3375
  107CHL1   H1714129   4.097   6.637   5.875 -0.4416  0.6439  4.3775
  107CHL1   C1314130   4.024   6.495   6.009 -0.4553 -0.4551 -0.1787
  107CHL1   C1814131   3.923   6.382   6.014  0.5963  0.2416 -0.4257
  107CHL1  H18A14132   3.971   6.288   5.978  2.1096 -0.0872  2.2013
  107CHL1  H18B14133   3.893   6.367   6.120 -1.6012 -3.0404 -1.3831
  107CHL1  H18C14134   3.831   6.413   5.960 -1.1251  1.6566  3.0204
  107CHL1   C1214135   4.163   6.438   6.063  0.2880 -0.5151 -0.7165
  107CHL1  H12A14136   4.211   6.356   6.006  0.0206  0.1655 -1.9426
  107CHL1  H12B14137   4.239   6.518   6.047  0.0016  0.0808  0.7059
  107CHL1   C1114138   4.146   6.388   6.210  0.5950 -0.3553  0.2312
  107CHL1  H11A14139   4.071   6.306   6.204 -2.2236  2.1338 -1.7015
  107CHL1  H11B14140   4.242   6.351   6.253  1.1444  1.0676  0.2712
  107CHL1    C914141   4.084   6.499   6.300  0.5411  0.1555  1.0209
  107CHL1    H914142   4.155   6.582   6.280  0.3584 -0.1468 -1.2179
  107CHL1   C1014143   4.078   6.469   6.447  0.1889 -0.0976  0.0482
  107CHL1   C1914144   4.016   6.329   6.481 -0.8207 -0.1555  0.1489
  107CHL1  H19A14145   4.069   6.249   6.424 -1.0040  0.8922 -1.5861
  107CHL1  H19B14146   4.003   6.298   6.586 -2.3826 -0.4058 -0.0987
  107CHL1  H19C14147   3.911   6.331   6.444 -0.1335  2.3643 -1.9928
  107CHL1    C114148   4.229   6.463   6.496 -0.5178 -0.0414 -0.6835
  107CHL1   H1A14149   4.270   6.368   6.456 -0.2344 -0.9928  1.7039
  107CHL1   H1B14150   4.284   6.555   6.465 -1.7604  1.2168  0.6538
  107CHL1    C214151   4.250   6.453   6.645 -0.1304 -0.1894  0.4797
  107CHL1   H2A14152   4.359   6.452   6.668 -0.0225 -1.2974 -0.0053
  107CHL1   H2B14153   4.212   6.359   6.690 -1.0042  0.5092  1.2704
  107CHL1   C2014154   4.026   6.486   5.738  0.3503 -0.1746  0.0824
  107CHL1   H2014155   3.938   6.419   5.729 -0.3585  0.9469 -1.9866
  107CHL1   C2114156   4.159   6.410   5.726 -0.0773  0.3008 -0.2521
  107CHL1  H21A14157   4.191   6.345   5.810  0.0808  1.1149  0.3282
  107CHL1  H21B14158   4.245   6.480   5.728  0.8786 -0.8599  0.3596
  107CHL1  H21C14159   4.168   6.362   5.626 -2.0255  1.7389 -1.1684
  107CHL1   C2214160   4.013   6.580   5.613 -0.4529 -0.3561 -0.1451
  107CHL1  H22A14161   3.939   6.661   5.629  0.7319  0.1625  3.5812
  107CHL1  H22B14162   4.103   6.634   5.577 -1.6266  0.0582 -2.7094
  107CHL1   C2314163   3.961   6.511   5.488 -0.1410  0.0828  0.2739
  107CHL1  H23A14164   4.044   6.445   5.457  0.2563  0.3781  0.6925
  107CHL1  H23B14165   3.868   6.453   5.507 -0.7657  0.1086 -2.3382
  107CHL1   C2414166   3.942   6.604   5.369  0.2095 -0.2323 -0.0069
  107CHL1  H24A14167   3.865   6.682   5.388  1.3912  1.2796 -1.1589
  107CHL1  H24B14168   4.039   6.648   5.340  0.5399 -1.3410 -0.6198
  107CHL1   C2514169   3.887   6.520   5.249  0.0086 -0.0834  0.1357
  107CHL1   H2514170   3.950   6.429   5.237 -0.7131 -0.7580  1.3807
  107CHL1   C2614171   3.741   6.483   5.281 -0.4812 -0.1585 -0.1635
  107CHL1  H26A14172   3.699   6.431   5.193 -0.0088 -0.6676 -0.0906
  107CHL1  H26B14173   3.733   6.411   5.365 -0.5004 -1.0075 -0.8800
  107CHL1  H26C14174   3.680   6.574   5.302  0.5132  0.8871 -1.5923
  107CHL1   C2714175   3.898   6.599   5.119  0.2090  0.3622  0.0436
  107CHL1  H27A14176   4.006   6.606   5.097  0.1111 -0.4971 -0.8181
  107CHL1  H27B14177   3.856   6.536   5.037 -1.2035  3.5309 -1.8636
  107CHL1  H27C14178   3.841   6.694   5.116 -1.4507 -0.4987  1.9022
  108CHL1    C314179   4.886   1.991   6.063 -0.4678  0.4850 -0.0815
  108CHL1    H314180   4.964   1.915   6.040  0.1693  0.6051  1.6066
  108CHL1    O314181   4.896   2.030   6.201  0.6503  0.2510 -0.1995
  108CHL1   H3'14182   4.931   2.119   6.205 -1.4994  1.1388  0.1967
  108CHL1    C414183   4.929   2.109   5.970 -0.2676  0.0140  0.3373
  108CHL1   H4A14184   4.863   2.198   5.984  1.8588  1.6033  0.7873
  108CHL1   H4B14185   5.028   2.146   6.005 -1.2159 -0.0945  3.5003
  108CHL1    C514186   4.923   2.063   5.824 -0.1252  0.8174 -0.2243
  108CHL1    C614187   5.025   2.078   5.737 -0.2407 -0.2666  0.2447
  108CHL1    H614188   5.124   2.114   5.769  0.1323 -1.2180  0.2036
  108CHL1    C714189   5.033   2.053   5.591  0.3091  0.3171 -0.6418
  108CHL1   H7A14190   5.079   2.132   5.528  0.1194  1.2013  0.3132
  108CHL1   H7B14191   5.083   1.956   5.571 -0.2624 -0.3613  1.0334
  108CHL1    C814192   4.890   2.040   5.535  0.5906 -0.5389 -0.6865
  108CHL1    H814193   4.854   2.145   5.533 -0.7359 -0.9461  0.1204
  108CHL1   C1414194   4.887   1.992   5.396 -0.1243 -0.2423 -0.0739
  108CHL1   H1414195   4.942   1.896   5.408 -1.1514 -0.7503  0.7933
  108CHL1   C1514196   4.985   2.059   5.288  0.0140 -0.1571 -0.0577
  108CHL1  H15A14197   4.976   2.170   5.290  1.5729 -0.0126  0.1275
  108CHL1  H15B14198   5.093   2.046   5.307  0.2459  2.0744  0.4563
  108CHL1   C1614199   4.931   1.991   5.162 -0.1517  0.3179  0.3772
  108CHL1  H16A14200   4.918   2.068   5.083 -0.7206  1.0693  1.1834
  108CHL1  H16B14201   4.999   1.907   5.133  0.2396  1.1330 -1.2098
  108CHL1   C1714202   4.796   1.914   5.199  0.3456  0.1731  0.1531
  108CHL1   H1714203   4.829   1.810   5.222  0.7662  0.0151 -1.1234
  108CHL1   C1314204   4.752   1.965   5.331 -0.7363  1.0449  0.2574
  108CHL1   C1814205   4.674   2.091   5.324  0.2925  0.2577  0.3046
  108CHL1  H18A14206   4.730   2.151   5.249  1.8724 -3.4000 -1.6999
  108CHL1  H18B14207   4.571   2.068   5.290  1.0063 -1.1992 -0.9881
  108CHL1  H18C14208   4.671   2.149   5.418 -2.5555 -0.0628  0.5113
  108CHL1   C1214209   4.684   1.861   5.426 -0.0720 -0.2361  0.6630
  108CHL1  H12A14210   4.582   1.837   5.387 -0.3255  0.6679  0.7470
  108CHL1  H12B14211   4.746   1.769   5.431 -0.5520 -0.5267  1.8556
  108CHL1   C1114212   4.674   1.906   5.576 -0.4124 -0.8652  0.3933
  108CHL1  H11A14213   4.605   1.992   5.587  2.2650  1.1389  3.0344
  108CHL1  H11B14214   4.628   1.823   5.634 -2.9700 -1.2884 -1.9948
  108CHL1    C914215   4.803   1.949   5.633 -0.0073 -0.7389  0.0553
  108CHL1    H914216   4.866   1.857   5.632 -1.4675 -1.7887 -1.3929
  108CHL1   C1014217   4.793   2.006   5.776  0.0846  0.0811 -0.2858
  108CHL1   C1914218   4.693   2.132   5.773 -0.0196 -0.2284  0.1914
  108CHL1  H19A14219   4.677   2.179   5.873 -2.0405 -0.4301  0.0174
  108CHL1  H19B14220   4.709   2.204   5.690 -0.6910 -0.3590 -0.0605
  108CHL1  H19C14221   4.588   2.099   5.753 -0.7519  2.0777 -0.1091
  108CHL1    C114222   4.740   1.897   5.875 -0.0431  0.1410  0.3557
  108CHL1   H1A14223   4.634   1.889   5.845  0.0456  0.7571 -0.1451
  108CHL1   H1B14224   4.771   1.791   5.859  1.5426  0.7065 -0.5816
  108CHL1    C214225   4.750   1.936   6.029 -0.2049  0.9300  0.4921
  108CHL1   H2A14226   4.730   1.846   6.090 -0.8983  0.5627 -0.2541
  108CHL1   H2B14227   4.673   2.010   6.057 -1.1031 -0.5298  2.0744
  108CHL1   C2014228   4.675   1.901   5.098 -0.1226  0.7799 -0.5670
  108CHL1   H2014229   4.577   1.904   5.151  0.9498  1.0824  1.5224
  108CHL1   C2114230   4.694   1.768   5.020  0.5917 -0.8260  0.2582
  108CHL1  H21A14231   4.791   1.762   4.968 -0.1285  1.5247 -1.5485
  108CHL1  H21B14232   4.626   1.762   4.932 -0.9429 -1.3138  1.4239
  108CHL1  H21C14233   4.672   1.675   5.077  0.5106 -1.4530 -0.7849
  108CHL1   C2214234   4.653   2.024   5.004  0.3042 -0.1194  0.5123
  108CHL1  H22A14235   4.643   2.117   5.064  0.9059  0.1621  0.1903
  108CHL1  H22B14236   4.729   2.033   4.923 -0.1178  2.3459  0.3150
  108CHL1   C2314237   4.523   2.012   4.921  0.2856 -0.4160  0.3184
  108CHL1  H23A14238   4.532   1.917   4.865  0.1571 -0.4789  0.4013
  108CHL1  H23B14239   4.442   2.013   4.998 -0.4370  0.2272 -0.4204
  108CHL1   C2414240   4.502   2.135   4.826  0.7282  0.0230 -0.4079
  108CHL1  H24A14241   4.536   2.228   4.877 -0.6196 -0.2529  1.0683
  108CHL1  H24B14242   4.563   2.127   4.733  0.9070  1.5085 -0.4295
  108CHL1   C2514243   4.356   2.150   4.782 -0.1714  0.4300 -0.4047
  108CHL1   H2514244   4.291   2.142   4.872  1.1325  1.5354  0.6848
  108CHL1   C2614245   4.329   2.268   4.701  0.6257  0.0160 -0.6263
  108CHL1  H26A14246   4.227   2.274   4.656  0.7578  1.7179 -0.7738
  108CHL1  H26B14247   4.347   2.362   4.757  1.3758 -0.2724 -0.3680
  108CHL1  H26C14248   4.406   2.276   4.622  1.4419 -2.9072 -0.2498
  108CHL1   C2714249   4.324   2.022   4.693 -0.0265  0.3772 -0.2173
  108CHL1  H27A14250   4.348   1.930   4.750  1.5950 -0.2756 -1.8303
  108CHL1  H27B14251   4.220   2.031   4.656 -0.4020 -0.7783  0.5153
  108CHL1  H27C14252   4.386   2.028   4.601 -0.6994 -0.9276 -0.7786
  109CHL1    C314253   2.855   6.340   6.327 -1.0272  0.4649 -0.4019
  109CHL1    H314254   2.764   6.401   6.343 -1.4047 -0.4314  1.0991
  109CHL1    O314255   2.879   6.264   6.445  0.2228  0.1401 -0.7762
  109CHL1   H3'14256   2.827   6.184   6.446 -0.3580  0.4559  1.8262
  109CHL1    C414257   2.835   6.241   6.209  0.9102  0.0302  0.6229
  109CHL1   H4A14258   2.918   6.167   6.212 -0.2104 -1.3359 -0.3158
  109CHL1   H4B14259   2.747   6.178   6.232  2.2185 -0.7135  4.1646
  109CHL1    C514260   2.840   6.294   6.068  0.7354  0.0330  0.2978
  109CHL1    C614261   2.749   6.256   5.979  0.4556 -0.0517  0.1525
  109CHL1    H614262   2.688   6.171   6.014  2.3274 -2.2053 -1.5176
  109CHL1    C714263   2.730   6.309   5.838  0.3001 -0.9043 -0.0233
  109CHL1   H7A14264   2.724   6.227   5.763  1.5495  0.2740 -1.4936
  109CHL1   H7B14265   2.629   6.354   5.834  0.4900 -0.5057 -0.3773
  109CHL1    C814266   2.847   6.404   5.800 -0.1294  0.0151 -0.3828
  109CHL1    H814267   2.932   6.340   5.768 -0.0183 -0.4635  0.7977
  109CHL1   C1414268   2.804   6.491   5.680  0.2644  0.1420 -0.0282
  109CHL1   H1414269   2.726   6.557   5.724 -1.7849 -0.6324 -2.2521
  109CHL1   C1514270   2.737   6.420   5.555  0.0315 -0.5301 -0.2104
  109CHL1  H15A14271   2.788   6.322   5.541 -1.2909 -1.2442 -0.1854
  109CHL1  H15B14272   2.631   6.390   5.567 -0.9726  2.2501 -1.2743
  109CHL1   C1614273   2.772   6.518   5.437 -0.3266  0.1058 -0.1135
  109CHL1  H16A14274   2.838   6.471   5.361  0.7470  0.7749  0.3789
  109CHL1  H16B14275   2.682   6.546   5.380 -1.0324 -0.3319  0.7662
  109CHL1   C1714276   2.834   6.648   5.505 -0.4045 -0.1620 -0.3161
  109CHL1   H1714277   2.754   6.714   5.543  1.3694  1.4101  0.8597
  109CHL1   C1314278   2.908   6.593   5.630  0.1336 -0.0687  0.5090
  109CHL1   C1814279   3.043   6.528   5.581  0.4739 -0.2543 -0.0687
  109CHL1  H18A14280   3.037   6.447   5.505  1.1819 -0.2015 -0.1857
  109CHL1  H18B14281   3.122   6.600   5.550 -1.5268  2.4261  0.6881
  109CHL1  H18C14282   3.084   6.480   5.672  0.2289  0.6960  0.5618
  109CHL1   C1214283   2.933   6.684   5.753  0.6582  0.1437  0.3329
  109CHL1  H12A14284   3.014   6.756   5.730  0.4401  0.5793  0.8948
  109CHL1  H12B14285   2.838   6.739   5.775 -0.0103 -0.1786 -1.5597
  109CHL1   C1114286   2.991   6.605   5.878 -0.2844  0.0386  0.1886
  109CHL1  H11A14287   3.088   6.565   5.842 -1.0220 -0.6136 -1.1648
  109CHL1  H11B14288   3.005   6.680   5.959 -0.3071 -0.4421  0.6361
  109CHL1    C914289   2.896   6.489   5.916  0.6455 -0.0846 -0.4819
  109CHL1    H914290   2.810   6.551   5.949  1.0202 -0.2529  0.8909
  109CHL1   C1014291   2.935   6.408   6.043  0.4587  0.6747  0.4025
  109CHL1   C1914292   3.070   6.342   6.017  1.1618  0.3347 -0.1263
  109CHL1  H19A14293   3.100   6.293   6.113 -0.9633  0.2368  0.5367
  109CHL1  H19B14294   3.072   6.271   5.932  0.3426 -1.7180  1.4752
  109CHL1  H19C14295   3.146   6.421   6.005  1.0596  0.5301  0.4834
  109CHL1    C114296   2.951   6.495   6.166  0.6838 -0.9525  0.5108
  109CHL1   H1A14297   3.026   6.572   6.138 -0.7641  0.9002  1.5134
  109CHL1   H1B14298   2.855   6.549   6.181 -1.1814 -3.4603 -1.3719
  109CHL1    C214299   2.974   6.435   6.302 -0.3594 -0.3282  0.0563
  109CHL1   H2A14300   2.988   6.515   6.378  1.4050  0.2136 -0.7859
  109CHL1   H2B14301   3.072   6.383   6.305 -1.3715 -2.3737 -0.5136
  109CHL1   C2014302   2.919   6.733   5.415 -0.2197  0.1015 -0.1795
  109CHL1   H2014303   3.003   6.676   5.371  0.1027  0.3612  0.0983
  109CHL1   C2114304   2.971   6.862   5.480 -0.3578 -0.4584  0.2327
  109CHL1  H21A14305   3.051   6.836   5.553 -1.5495  0.0265  1.7593
  109CHL1  H21B14306   2.890   6.900   5.545 -1.4013 -1.9234 -0.1605
  109CHL1  H21C14307   3.008   6.946   5.416  2.9500 -1.4349  0.6939
  109CHL1   C2214308   2.836   6.778   5.290  0.2891  0.4131 -0.0250
  109CHL1  H22A14309   2.790   6.688   5.244 -2.6914  2.5091 -1.4596
  109CHL1  H22B14310   2.753   6.845   5.318 -0.2526  0.3371 -1.3835
  109CHL1   C2314311   2.916   6.852   5.183  0.4276 -0.1933  0.3256
  109CHL1  H23A14312   2.931   6.959   5.206 -1.4203 -0.1761  1.5937
  109CHL1  H23B14313   3.013   6.799   5.172  0.2199 -0.2294 -1.8393
  109CHL1   C2414314   2.849   6.835   5.036  1.0481  0.2603 -0.0242
  109CHL1  H24A14315   2.741   6.843   5.058  0.7184 -2.4787 -0.2683
  109CHL1  H24B14316   2.886   6.917   4.971 -0.5576  0.3948 -0.8096
  109CHL1   C2514317   2.867   6.699   4.972  0.2475 -0.9449 -0.0926
  109CHL1   H2514318   2.869   6.620   5.050  0.0640 -0.1777  0.7031
  109CHL1   C2614319   2.741   6.674   4.889 -0.1686  0.0279  0.2131
  109CHL1  H26A14320   2.755   6.582   4.828  0.2137  0.3470 -0.1952
  109CHL1  H26B14321   2.656   6.650   4.955  0.2196  1.9961  1.5119
  109CHL1  H26C14322   2.718   6.762   4.826 -0.3581 -0.1580  0.0195
  109CHL1   C2714323   3.004   6.700   4.895  0.4481  0.5463  0.3056
  109CHL1  H27A14324   3.017   6.602   4.845  0.0937 -1.0469  3.1498
  109CHL1  H27B14325   3.009   6.786   4.824  0.1677 -1.2323 -2.0027
  109CHL1  H27C14326   3.088   6.711   4.967  1.3656 -0.3030 -0.5934
  110CHL1    C314327   1.875   5.559   6.340 -0.6116  0.4045  0.7500
  110CHL1    H314328   1.794   5.484   6.326  0.8867 -1.1051 -0.1939
  110CHL1    O314329   1.896   5.583   6.479  0.1092  0.4624 -0.2785
  110CHL1   H3'14330   1.809   5.593   6.518  0.3738 -0.1079  0.4756
  110CHL1    C414331   2.003   5.494   6.290 -0.0634  0.3264  0.8005
  110CHL1   H4A14332   2.078   5.568   6.323  0.2845  0.8909 -1.0934
  110CHL1   H4B14333   2.015   5.393   6.334 -0.6236  0.2823  0.8648
  110CHL1    C514334   2.023   5.477   6.142  0.1284 -0.3064  0.3292
  110CHL1    C614335   2.065   5.357   6.084  0.2440  0.8153 -0.7724
  110CHL1    H614336   2.090   5.272   6.149  0.9816  1.7237  0.1841
  110CHL1    C714337   2.089   5.335   5.941  0.1851  0.1556  0.1519
  110CHL1   H7A14338   2.193   5.300   5.920 -0.0206 -2.5723  2.9233
  110CHL1   H7B14339   2.023   5.252   5.908  1.0016  0.1189 -1.5120
  110CHL1    C814340   2.074   5.469   5.862  0.7505 -0.0123  1.0062
  110CHL1    H814341   2.176   5.512   5.863  0.5423  0.6476 -1.0367
  110CHL1   C1414342   2.057   5.448   5.710  0.1850  0.3322 -0.0883
  110CHL1   H1414343   1.953   5.411   5.695 -0.3134  0.8136  1.8500
  110CHL1   C1514344   2.146   5.342   5.639 -0.1055 -0.7988 -0.1340
  110CHL1  H15A14345   2.256   5.355   5.649  0.2225 -3.2656  0.0251
  110CHL1  H15B14346   2.116   5.240   5.671 -2.3514  0.0038  0.4862
  110CHL1   C1614347   2.122   5.378   5.487  0.5531  0.1835  0.6089
  110CHL1  H16A14348   2.225   5.392   5.446  0.2107  1.4112  0.0926
  110CHL1  H16B14349   2.077   5.299   5.424  3.3839 -1.6887  0.7494
  110CHL1   C1714350   2.037   5.507   5.480  0.7736  0.8491 -0.3670
  110CHL1   H1714351   1.929   5.481   5.482  0.6236  1.4570  1.0577
  110CHL1   C1314352   2.058   5.571   5.620 -0.3673 -0.4911  0.5651
  110CHL1   C1814353   2.206   5.641   5.620  0.1402  0.6003  0.6837
  110CHL1  H18A14354   2.279   5.571   5.572 -0.6272 -0.5410  1.1381
  110CHL1  H18B14355   2.204   5.742   5.575 -0.4073  1.1282  1.8552
  110CHL1  H18C14356   2.230   5.658   5.727  0.7440 -3.8288  1.4417
  110CHL1   C1214357   1.942   5.660   5.669 -0.4646  0.6429 -0.8943
  110CHL1  H12A14358   1.947   5.764   5.630 -1.0012  0.8453 -0.4274
  110CHL1  H12B14359   1.842   5.616   5.650 -0.7275  0.6315  0.4505
  110CHL1   C1114360   1.959   5.696   5.819 -0.9796 -0.6585  0.2598
  110CHL1  H11A14361   2.060   5.742   5.826 -1.6206  0.8305  0.0794
  110CHL1  H11B14362   1.890   5.772   5.861  0.1707 -0.2525  1.4981
  110CHL1    C914363   1.968   5.569   5.909  0.3059  0.0318  0.0239
  110CHL1    H914364   1.873   5.513   5.898  1.4232 -2.4756  2.0946
  110CHL1   C1014365   1.984   5.601   6.058  0.0337 -0.2696  0.1263
  110CHL1   C1914366   2.099   5.705   6.086  0.0170  0.0710 -0.2659
  110CHL1  H19A14367   2.118   5.718   6.195 -0.7950 -2.0678  0.1857
  110CHL1  H19B14368   2.185   5.668   6.027 -0.6193  0.3346 -1.3933
  110CHL1  H19C14369   2.062   5.802   6.046  2.2847  0.5996 -1.2597
  110CHL1    C114370   1.852   5.665   6.109  0.1884 -0.0084  0.4475
  110CHL1   H1A14371   1.835   5.765   6.064 -0.6833 -1.0341 -1.6426
  110CHL1   H1B14372   1.765   5.607   6.070  0.7365  0.0870 -0.9935
  110CHL1    C214373   1.847   5.690   6.257 -0.2844  0.7713 -0.4983
  110CHL1   H2A14374   1.742   5.715   6.283 -0.7420 -1.6936  0.2889
  110CHL1   H2B14375   1.919   5.767   6.292 -1.0135  0.2785  2.4022
  110CHL1   C2014376   2.062   5.597   5.359  0.2692  0.1667  0.1795
  110CHL1   H2014377   2.150   5.663   5.372  1.0258  0.5611 -4.8224
  110CHL1   C2114378   1.931   5.689   5.334 -0.7903  0.1903 -0.1303
  110CHL1  H21A14379   1.943   5.755   5.245  2.2844 -0.3864 -0.2441
  110CHL1  H21B14380   1.926   5.760   5.419 -0.0366  2.9803 -2.2645
  110CHL1  H21C14381   1.838   5.630   5.314  0.0939 -1.3088  0.0163
  110CHL1   C2214382   2.102   5.517   5.231  0.1439  0.1173 -0.9519
  110CHL1  H22A14383   2.200   5.466   5.236  0.3300  0.5338 -0.1840
  110CHL1  H22B14384   2.017   5.447   5.216 -1.1297  1.4738 -0.4016
  110CHL1   C2314385   2.119   5.598   5.104  0.3650  0.0607  0.5613
  110CHL1  H23A14386   2.014   5.631   5.088 -0.3218 -1.4485  1.7283
  110CHL1  H23B14387   2.171   5.693   5.130 -1.9080  1.3510  0.6457
  110CHL1   C2414388   2.179   5.517   4.987 -0.1349 -0.3010 -0.3119
  110CHL1  H24A14389   2.283   5.530   5.025 -0.4144 -0.1260  0.4073
  110CHL1  H24B14390   2.150   5.410   4.989  1.0001 -0.6401 -1.1014
  110CHL1   C2514391   2.159   5.567   4.841  0.1643 -0.1036  0.7051
  110CHL1   H2514392   2.151   5.677   4.830 -2.9562 -0.2324  0.9337
  110CHL1   C2614393   2.276   5.516   4.759  0.5179  0.1137  0.8115
  110CHL1  H26A14394   2.290   5.408   4.781  2.0929  0.3960  1.3051
  110CHL1  H26B14395   2.241   5.517   4.654 -0.4029  2.9034  1.0541
  110CHL1  H26C14396   2.366   5.581   4.766 -0.3334  1.5403 -0.8426
  110CHL1   C2714397   2.017   5.525   4.779  0.0174 -0.5339  0.0770
  110CHL1  H27A14398   2.007   5.567   4.676  0.3128 -1.7840 -0.4868
  110CHL1  H27B14399   1.996   5.416   4.774 -0.3240 -0.6319  2.7099
  110CHL1  H27C14400   1.942   5.573   4.845  1.2532  0.6362  0.6890
  111CHL1    C314401   2.039   0.544   6.493 -0.6879  0.2529 -0.2909
  111CHL1    H314402   2.027   0.434   6.504 -2.0706  0.4801  0.7814
  111CHL1    O314403   2.054   0.601   6.620 -0.9965 -0.0913  0.2138
  111CHL1   H3'14404   2.051   0.694   6.600  1.4952 -0.1583 -0.7060
  111CHL1    C414405   2.165   0.570   6.400  0.7368  0.9333  0.4236
  111CHL1   H4A14406   2.195   0.677   6.405  2.0376  0.9191 -3.4105
  111CHL1   H4B14407   2.254   0.521   6.445 -0.7658 -0.8390  1.6001
  111CHL1    C514408   2.144   0.521   6.257  0.2359  0.4762  0.6288
  111CHL1    C614409   2.229   0.442   6.201 -0.1723  0.4603  0.3200
  111CHL1    H614410   2.320   0.410   6.252  1.5312  2.2422 -1.4400
  111CHL1    C714411   2.218   0.392   6.061 -0.0804 -0.1485 -0.3835
  111CHL1   H7A14412   2.316   0.391   6.008  0.8910 -1.0374  1.3560
  111CHL1   H7B14413   2.193   0.284   6.055  0.0934 -0.2383  0.3731
  111CHL1    C814414   2.105   0.457   5.977  0.7314 -0.2815 -0.9651
  111CHL1    H814415   2.131   0.560   5.943  0.1765 -0.3932 -1.7605
  111CHL1   C1414416   2.077   0.386   5.848  0.0580  0.5210 -0.2453
  111CHL1   H1414417   2.051   0.287   5.889  0.9745  0.0011 -0.8801
  111CHL1   C1514418   2.189   0.366   5.746  0.2017  0.4614 -0.3036
  111CHL1  H15A14419   2.229   0.465   5.715 -0.5261  0.6836 -0.5564
  111CHL1  H15B14420   2.267   0.296   5.782  0.8481  1.0328 -0.5649
  111CHL1   C1614421   2.118   0.312   5.614  0.0549 -0.2663 -0.3945
  111CHL1  H16A14422   2.157   0.355   5.519  1.3663  0.2755  0.3631
  111CHL1  H16B14423   2.141   0.203   5.620  0.7016 -0.0497  2.7499
  111CHL1   C1714424   1.965   0.335   5.640  0.1993 -0.6648 -0.2961
  111CHL1   H1714425   1.923   0.239   5.677 -0.6464 -0.6376 -1.1508
  111CHL1   C1314426   1.958   0.433   5.768  0.6180  0.1712 -0.6556
  111CHL1   C1814427   1.984   0.575   5.716 -0.1553 -0.5227 -0.2560
  111CHL1  H18A14428   2.063   0.577   5.637  3.0307 -0.6799  2.6746
  111CHL1  H18B14429   1.890   0.616   5.673  0.9706  1.7208 -0.7276
  111CHL1  H18C14430   2.017   0.644   5.796  1.0703  0.6854 -1.7321
  111CHL1   C1214431   1.835   0.428   5.858  0.3319 -0.2642  0.0366
  111CHL1  H12A14432   1.743   0.471   5.812  1.2454  0.5845 -1.0533
  111CHL1  H12B14433   1.818   0.320   5.882  1.1294 -0.5854 -0.7842
  111CHL1   C1114434   1.855   0.511   5.983 -0.0737  0.4157 -0.3328
  111CHL1  H11A14435   1.858   0.620   5.959 -0.7511  0.3393 -0.8031
  111CHL1  H11B14436   1.772   0.497   6.056  1.0571 -1.3131  0.6844
  111CHL1    C914437   1.982   0.480   6.059 -0.0614  0.2150 -0.4094
  111CHL1    H914438   1.970   0.379   6.104  4.2476 -0.5969 -0.6672
  111CHL1   C1014439   2.009   0.564   6.188  0.6540  0.7094 -0.3185
  111CHL1   C1914440   2.019   0.713   6.155 -0.3323 -0.0083  0.0412
  111CHL1  H19A14441   1.949   0.757   6.081  0.3526  0.9763 -0.0448
  111CHL1  H19B14442   2.029   0.777   6.245 -0.9898  1.3624 -0.8298
  111CHL1  H19C14443   2.121   0.721   6.112 -0.0252 -1.7300  0.3713
  111CHL1    C114444   1.883   0.548   6.285  0.3738 -0.3917  0.6833
  111CHL1   H1A14445   1.788   0.596   6.251  2.0547  1.6010 -1.4729
  111CHL1   H1B14446   1.863   0.439   6.292 -0.1020 -0.3651 -0.1097
  111CHL1    C214447   1.908   0.598   6.429 -0.0751  0.1872  0.5518
  111CHL1   H2A14448   1.829   0.565   6.501  0.5599 -3.5958 -0.2678
  111CHL1   H2B14449   1.918   0.708   6.429 -3.5082  0.6230  2.3432
  111CHL1   C2014450   1.887   0.378   5.514  0.8344  0.1845  0.5079
  111CHL1   H2014451   1.929   0.471   5.468 -0.1014  0.3720  0.0019
  111CHL1   C2114452   1.739   0.421   5.540 -0.1120 -0.2584  0.1592
  111CHL1  H21A14453   1.725   0.515   5.597 -1.0844 -0.0206 -0.4422
  111CHL1  H21B14454   1.685   0.342   5.595 -0.6994 -1.6810 -2.3327
  111CHL1  H21C14455   1.676   0.446   5.452  0.1741  2.0754  0.5283
  111CHL1   C2214456   1.883   0.279   5.403 -0.1148 -0.0284 -0.6575
  111CHL1  H22A14457   1.971   0.211   5.397  0.9001  1.1947 -0.1108
  111CHL1  H22B14458   1.793   0.215   5.415  0.0525 -0.1524 -0.0628
  111CHL1   C2314459   1.873   0.354   5.270  0.3741 -0.1654  0.1217
  111CHL1  H23A14460   1.789   0.426   5.284  1.3018  1.5688 -2.5935
  111CHL1  H23B14461   1.968   0.409   5.254  1.5315 -2.6413 -2.1952
  111CHL1   C2414462   1.843   0.267   5.148 -0.0300  0.3417 -0.2748
  111CHL1  H24A14463   1.924   0.191   5.146 -1.2585 -1.2055  2.3491
  111CHL1  H24B14464   1.744   0.216   5.155 -0.1885  0.6561 -0.1877
  111CHL1   C2514465   1.843   0.345   5.015  0.0144  0.0515  1.1993
  111CHL1   H2514466   1.934   0.408   5.023  0.3606  0.4537 -3.4064
  111CHL1   C2614467   1.854   0.246   4.898 -0.0664  0.3876  0.2161
  111CHL1  H26A14468   1.767   0.177   4.901  1.1112 -1.1505  0.2253
  111CHL1  H26B14469   1.843   0.305   4.805 -0.9661  1.1349  0.7781
  111CHL1  H26C14470   1.948   0.189   4.882 -0.7590 -0.4525 -1.0774
  111CHL1   C2714471   1.733   0.443   4.985  0.8755  0.4539  0.3299
  111CHL1  H27A14472   1.643   0.382   4.959  0.4673  1.2919 -0.2906
  111CHL1  H27B14473   1.709   0.521   5.060  2.1282  0.9546  0.2330
  111CHL1  H27C14474   1.751   0.501   4.892 -0.0605  0.6648  0.2608
  112CHL1    C314475   3.727   0.844   6.444 -0.6182  0.5823 -0.2715
  112CHL1    H314476   3.619   0.818   6.456 -0.9485  2.0939  0.2358
  112CHL1    O314477   3.802   0.808   6.557  0.1188  0.5080 -0.1656
  112CHL1   H3'14478   3.879   0.866   6.564  0.1181  0.3244  2.4446
  112CHL1    C414479   3.789   0.763   6.327 -0.5138 -0.0850 -0.5812
  112CHL1   H4A14480   3.896   0.792   6.330 -0.8324  1.2025  2.0702
  112CHL1   H4B14481   3.781   0.654   6.349 -0.7735  0.2386  1.1193
  112CHL1    C514482   3.717   0.796   6.195 -0.2552 -0.1818 -0.3984
  112CHL1    C614483   3.657   0.703   6.112  0.1935  0.8788 -0.1098
  112CHL1    H614484   3.680   0.600   6.144  0.9446  0.7582 -0.9772
  112CHL1    C714485   3.617   0.737   5.968  1.0712 -0.9795 -0.3155
  112CHL1   H7A14486   3.659   0.665   5.894 -0.7188 -1.8638 -0.5361
  112CHL1   H7B14487   3.506   0.729   5.965  0.8452  1.2978  0.3922
  112CHL1    C814488   3.638   0.888   5.932  0.7940  0.6423  0.5777
  112CHL1    H814489   3.746   0.897   5.907  0.7987 -0.6848  0.0249
  112CHL1   C1414490   3.546   0.930   5.817 -0.5260 -0.2535 -0.2252
  112CHL1   H1414491   3.446   0.918   5.864  0.2572 -3.7784  0.8177
  112CHL1   C1514492   3.542   0.830   5.700 -0.0114  0.6341  0.7265
  112CHL1  H15A14493   3.646   0.805   5.668  0.0854  2.5907 -0.7001
  112CHL1  H15B14494   3.486   0.735   5.714 -0.5572  0.9439  0.6408
  112CHL1   C1614495   3.475   0.917   5.584  0.4266  0.0879 -0.5383
  112CHL1  H16A14496   3.544   0.927   5.498  1.9016  0.3110  0.6358
  112CHL1  H16B14497   3.381   0.875   5.542  1.2123 -0.5043 -1.7863
  112CHL1   C1714498   3.452   1.061   5.650 -0.0044  0.3229 -0.1540
  112CHL1   H1714499   3.348   1.058   5.689 -0.6010 -0.6287 -1.6816
  112CHL1   C1314500   3.558   1.073   5.765 -0.2801  0.2140 -0.2753
  112CHL1   C1814501   3.702   1.101   5.714 -0.4466  0.7452 -0.4510
  112CHL1  H18A14502   3.736   1.024   5.640  0.5999  0.4367  0.3333
  112CHL1  H18B14503   3.725   1.202   5.675 -1.3040  1.1674  0.1084
  112CHL1  H18C14504   3.765   1.090   5.805 -1.8778 -2.7680  0.3039
  112CHL1   C1214505   3.532   1.169   5.880  0.4871  0.0271  0.0877
  112CHL1  H12A14506   3.564   1.275   5.866  1.3739 -0.0255  1.4773
  112CHL1  H12B14507   3.425   1.172   5.910 -0.3065 -1.9625 -2.1868
  112CHL1   C1114508   3.613   1.130   6.005 -0.9665  0.1355 -0.7030
  112CHL1  H11A14509   3.713   1.177   5.991 -1.5577  1.7727  0.3539
  112CHL1  H11B14510   3.580   1.196   6.088  0.1188 -1.0911  0.7660
  112CHL1    C914511   3.614   0.983   6.042 -0.0622  0.9304  0.0018
  112CHL1    H914512   3.513   0.956   6.079  1.0941 -4.1371  0.1300
  112CHL1   C1014513   3.700   0.947   6.165 -0.5073  0.2530 -0.8317
  112CHL1   C1914514   3.844   1.001   6.135  0.1334 -0.1560 -0.3265
  112CHL1  H19A14515   3.884   0.977   6.035  1.3130  2.8877 -0.7087
  112CHL1  H19B14516   3.855   1.112   6.146 -0.5049 -0.3246  3.9837
  112CHL1  H19C14517   3.925   0.975   6.208  0.0276  2.4534  0.8481
  112CHL1    C114518   3.647   1.022   6.299 -0.4030  0.4047 -0.2202
  112CHL1   H1A14519   3.648   1.133   6.290  2.6599  0.5292  0.7931
  112CHL1   H1B14520   3.547   0.973   6.302 -1.1419  1.7685 -1.3399
  112CHL1    C214521   3.734   0.993   6.421  0.6773 -0.3101  0.0022
  112CHL1   H2A14522   3.687   1.052   6.502  1.8231 -1.1944  1.3494
  112CHL1   H2B14523   3.841   1.025   6.414  0.2346  1.5611  1.3001
  112CHL1   C2014524   3.452   1.169   5.539 -0.1121  1.0642 -0.1073
  112CHL1   H2014525   3.554   1.155   5.498 -0.2580 -1.5044  0.2396
  112CHL1   C2114526   3.434   1.309   5.610 -0.3026  0.3336 -0.0521
  112CHL1  H21A14527   3.349   1.295   5.680  0.1574  2.2601  0.9339
  112CHL1  H21B14528   3.400   1.373   5.526 -0.6538 -0.2532 -0.3710
  112CHL1  H21C14529   3.529   1.335   5.660  1.1480 -1.8898 -1.4441
  112CHL1   C2214530   3.347   1.159   5.429 -0.3045  0.2338 -0.0467
  112CHL1  H22A14531   3.331   1.054   5.397 -0.0276 -0.3154  1.5391
  112CHL1  H22B14532   3.248   1.193   5.466  0.5954  1.8033  1.0276
  112CHL1   C2314533   3.374   1.229   5.295 -0.3525 -0.0884 -0.7463
  112CHL1  H23A14534   3.387   1.338   5.311  2.5011 -0.3839 -0.5608
  112CHL1  H23B14535   3.474   1.201   5.257  0.5439 -0.7959  1.8976
  112CHL1   C2414536   3.270   1.201   5.188 -0.9332 -0.2270  0.3616
  112CHL1  H24A14537   3.254   1.094   5.163 -0.9185  0.3854 -2.6601
  112CHL1  H24B14538   3.173   1.241   5.224  0.5403  2.7358  1.3332
  112CHL1   C2514539   3.323   1.273   5.061  0.0578  0.3396  0.2171
  112CHL1   H2514540   3.358   1.374   5.092  0.3981  0.3755 -0.2792
  112CHL1   C2614541   3.444   1.203   4.994 -0.1731  0.3349  0.2749
  112CHL1  H26A14542   3.445   1.246   4.891  0.1590  0.7167  0.4376
  112CHL1  H26B14543   3.538   1.224   5.049  1.2106 -0.1600 -1.7974
  112CHL1  H26C14544   3.434   1.093   4.984  0.9839 -0.1206  3.1583
  112CHL1   C2714545   3.217   1.283   4.953 -0.0406  0.3678 -0.5149
  112CHL1  H27A14546   3.177   1.181   4.931  1.8003 -0.5144 -0.0324
  112CHL1  H27B14547   3.135   1.348   4.991  1.1116  0.8728  1.2426
  112CHL1  H27C14548   3.253   1.326   4.858 -0.2012  2.0987  0.1754
  113CHL1    C314549   1.609   5.306   6.008 -0.4729  0.0436  0.3400
  113CHL1    H314550   1.636   5.414   6.014 -1.6353  0.6915 -3.5138
  113CHL1    O314551   1.602   5.239   6.132  0.2971 -0.6056 -0.2168
  113CHL1   H3'14552   1.510   5.216   6.147  0.5206 -1.8340 -0.6256
  113CHL1    C414553   1.479   5.286   5.932 -0.0341 -0.1942 -0.0049
  113CHL1   H4A14554   1.448   5.185   5.967  0.2878  0.0324  0.9450
  113CHL1   H4B14555   1.416   5.362   5.983  0.4089  0.6720 -0.7293
  113CHL1    C514556   1.469   5.297   5.778 -0.3564  0.7694 -0.6529
  113CHL1    C614557   1.379   5.374   5.719  0.4380  0.0113 -0.0875
  113CHL1    H614558   1.300   5.430   5.771  0.7407 -0.0980  0.4923
  113CHL1    C714559   1.373   5.397   5.572  0.5207 -0.3116 -0.5856
  113CHL1   H7A14560   1.271   5.391   5.528  0.1387  0.4175  0.1860
  113CHL1   H7B14561   1.400   5.504   5.560 -0.4971  0.3583  2.3028
  113CHL1    C814562   1.470   5.310   5.487  0.1005  0.2273 -0.3069
  113CHL1    H814563   1.432   5.206   5.482  0.5842 -0.0066  0.6090
  113CHL1   C1414564   1.485   5.372   5.354 -0.3783 -0.4112  0.3660
  113CHL1   H1414565   1.516   5.477   5.375  1.8713 -0.5425 -1.9125
  113CHL1   C1514566   1.360   5.377   5.264 -0.3327  0.3439 -0.1803
  113CHL1  H15A14567   1.306   5.281   5.281 -0.0200  0.7069  3.7099
  113CHL1  H15B14568   1.293   5.459   5.298 -1.0482 -0.1446 -0.3906
  113CHL1   C1614569   1.416   5.395   5.120 -0.7408  1.0420 -0.0016
  113CHL1  H16A14570   1.390   5.305   5.061  0.9749  0.9374 -0.6594
  113CHL1  H16B14571   1.375   5.479   5.059 -3.8209 -0.4108 -0.1069
  113CHL1   C1714572   1.572   5.384   5.129  0.3614 -0.6332  0.2326
  113CHL1   H1714573   1.605   5.488   5.150 -0.4219 -0.5247  0.9650
  113CHL1   C1314574   1.588   5.311   5.266  0.3769  0.1179 -0.2554
  113CHL1   C1814575   1.559   5.158   5.245 -0.4716  0.0426  0.6653
  113CHL1  H18A14576   1.466   5.124   5.195  0.9418 -3.6398  0.2260
  113CHL1  H18B14577   1.641   5.121   5.180 -2.3815 -0.5404 -1.5382
  113CHL1  H18C14578   1.557   5.103   5.341 -0.1401 -2.0706 -0.4821
  113CHL1   C1214579   1.717   5.330   5.333  0.1139  0.2023  0.1691
  113CHL1  H12A14580   1.798   5.281   5.276 -0.8139 -0.9449 -0.2062
  113CHL1  H12B14581   1.745   5.437   5.335  1.9842 -0.1763 -1.8707
  113CHL1   C1114582   1.723   5.266   5.477 -0.0702  0.3658 -0.5138
  113CHL1  H11A14583   1.713   5.155   5.466 -1.5580  0.3828  0.3359
  113CHL1  H11B14584   1.819   5.292   5.525 -0.7511  2.0393  0.0056
  113CHL1    C914585   1.605   5.311   5.566  0.8751  0.2214  0.3509
  113CHL1    H914586   1.617   5.420   5.583 -2.2214  0.4434  1.8847
  113CHL1   C1014587   1.590   5.244   5.707  0.1113  0.4540  0.4912
  113CHL1   C1914588   1.574   5.090   5.685  0.1001 -1.0070 -0.0968
  113CHL1  H19A14589   1.668   5.051   5.642  0.6342  1.2056 -1.1033
  113CHL1  H19B14590   1.567   5.045   5.786 -2.0677 -1.4764 -0.4112
  113CHL1  H19C14591   1.483   5.070   5.626 -0.7820 -0.6921  1.1059
  113CHL1    C114592   1.719   5.268   5.788 -0.3058  0.0021 -0.0852
  113CHL1   H1A14593   1.811   5.223   5.746 -0.7867 -1.1597  0.0622
  113CHL1   H1B14594   1.738   5.377   5.777 -0.5100  0.0812  0.3099
  113CHL1    C214595   1.721   5.224   5.934  0.2435 -1.3016 -0.3549
  113CHL1   H2A14596   1.812   5.260   5.986 -0.0959  0.1568 -0.7144
  113CHL1   H2B14597   1.707   5.114   5.944  0.3311 -1.6321 -2.9705
  113CHL1   C2014598   1.641   5.332   4.998  0.5653  0.0320 -0.6643
  113CHL1   H2014599   1.595   5.231   4.995  0.6525  0.0118 -2.5380
  113CHL1   C2114600   1.790   5.326   5.017 -0.6582 -0.6186  0.0024
  113CHL1  H21A14601   1.835   5.241   5.073  2.5383  0.2139 -1.0798
  113CHL1  H21B14602   1.834   5.417   5.064  1.0654 -1.7973  0.7609
  113CHL1  H21C14603   1.833   5.322   4.914  0.9691  1.0324  0.5581
  113CHL1   C2214604   1.596   5.410   4.864  0.5612  0.7693 -0.2791
  113CHL1  H22A14605   1.497   5.461   4.869 -0.1584 -0.2643 -2.4435
  113CHL1  H22B14606   1.662   5.498   4.852  0.4468  0.8621 -0.2293
  113CHL1   C2314607   1.610   5.318   4.742 -0.1380  0.0934 -0.1472
  113CHL1  H23A14608   1.719   5.296   4.734 -0.5795 -1.9452 -1.1529
  113CHL1  H23B14609   1.564   5.222   4.776  1.4542 -0.6914 -0.1347
  113CHL1   C2414610   1.552   5.375   4.616 -0.4599 -0.3045 -0.2346
  113CHL1  H24A14611   1.455   5.408   4.658 -0.1982 -2.0894  1.9408
  113CHL1  H24B14612   1.612   5.464   4.587 -0.1188 -0.2158  0.7105
  113CHL1   C2514613   1.546   5.277   4.494 -0.1608  0.5796 -0.0828
  113CHL1   H2514614   1.650   5.256   4.463  0.5599  0.8111  2.0724
  113CHL1   C2614615   1.478   5.144   4.527  0.6092  0.5831 -0.4245
  113CHL1  H26A14616   1.473   5.067   4.447 -0.2770 -0.6942  0.7999
  113CHL1  H26B14617   1.512   5.092   4.620  2.9599  1.2924 -0.8269
  113CHL1  H26C14618   1.369   5.163   4.538  0.4386  0.5104 -1.7982
  113CHL1   C2714619   1.477   5.350   4.377 -0.4735  0.4079 -0.5796
  113CHL1  H27A14620   1.371   5.364   4.406  0.0742  1.4094  1.0757
  113CHL1  H27B14621   1.515   5.451   4.351 -0.3847  0.3282 -0.7649
  113CHL1  H27C14622   1.482   5.277   4.293 -0.2949  0.3376 -0.5104
  114CHL1    C314623   5.316   6.897   6.308 -0.1192  0.2031  0.3447
  114CHL1    H314624   5.382   6.854   6.230 -0.9114 -0.3398 -0.0404
  114CHL1    O314625   5.385   6.907   6.435 -0.5208  0.0357  0.7677
  114CHL1   H3'14626   5.395   6.816   6.464 -0.0427  0.3931  1.7764
  114CHL1    C414627   5.271   7.041   6.261 -0.8153  0.3766 -0.0487
  114CHL1   H4A14628   5.206   7.080   6.343 -0.6027  0.8193 -0.0875
  114CHL1   H4B14629   5.355   7.111   6.242 -2.4450  1.6754 -2.9614
  114CHL1    C514630   5.193   7.022   6.135 -0.3773 -0.7119 -0.3634
  114CHL1    C614631   5.229   7.091   6.023  0.1882  0.2757  0.2434
  114CHL1    H614632   5.316   7.158   6.020 -0.0389  0.5479 -0.8396
  114CHL1    C714633   5.156   7.082   5.894  0.2050  0.3068 -0.2187
  114CHL1   H7A14634   5.130   7.187   5.869 -1.8140 -0.0729  0.1439
  114CHL1   H7B14635   5.223   7.033   5.821  0.0030  0.4622 -0.5075
  114CHL1    C814636   5.014   7.016   5.906 -0.5265  0.4637  0.3879
  114CHL1    H814637   4.957   7.085   5.973 -0.2518  0.3743  0.7157
  114CHL1   C1414638   4.942   6.995   5.775 -0.1707  0.1750 -0.0787
  114CHL1   H1414639   4.999   6.912   5.728  2.4335 -0.1247  3.1898
  114CHL1   C1514640   4.939   7.109   5.675 -0.2514 -0.3116 -0.0385
  114CHL1  H15A14641   4.918   7.205   5.726  0.2604 -0.5055  0.5524
  114CHL1  H15B14642   5.039   7.120   5.629 -0.6162  0.6084 -0.6385
  114CHL1   C1614643   4.819   7.076   5.582 -0.0241  0.2306 -0.3293
  114CHL1  H16A14644   4.738   7.152   5.592 -0.4464 -0.4659  2.2606
  114CHL1  H16B14645   4.862   7.079   5.479  2.7811  0.3965  0.7790
  114CHL1   C1714646   4.755   6.944   5.633  0.0109 -0.2431  0.2329
  114CHL1   H1714647   4.812   6.870   5.573  1.1245 -0.5054  1.5856
  114CHL1   C1314648   4.803   6.933   5.783  0.3048 -0.4838  0.5860
  114CHL1   C1814649   4.702   7.029   5.863  0.3507  0.4859  0.8245
  114CHL1  H18A14650   4.698   7.133   5.823 -1.7276  0.4193  0.7394
  114CHL1  H18B14651   4.606   6.972   5.866  0.3955  0.3339 -0.2437
  114CHL1  H18C14652   4.737   7.032   5.968 -0.5843 -1.7659  1.2523
  114CHL1   C1214653   4.815   6.797   5.844  0.3005  0.9313 -1.1747
  114CHL1  H12A14654   4.718   6.742   5.845  0.6957  0.1020  1.8807
  114CHL1  H12B14655   4.892   6.735   5.793  0.9275  0.8103 -0.1072
  114CHL1   C1114656   4.881   6.802   5.983 -0.6110 -0.2916 -0.1620
  114CHL1  H11A14657   4.804   6.841   6.053 -0.3560 -0.6681  0.3383
  114CHL1  H11B14658   4.902   6.696   6.010 -0.2356 -0.4848 -1.1742
  114CHL1    C914659   5.017   6.886   5.992  0.3107  0.3492  0.3286
  114CHL1    H914660   5.096   6.832   5.936  0.2168  1.0937 -0.5499
  114CHL1   C1014661   5.074   6.919   6.136 -0.6476 -0.0529  0.4706
  114CHL1   C1914662   4.954   6.980   6.216  0.3470  0.0626  0.3366
  114CHL1  H19A14663   4.887   6.896   6.242 -0.9957  0.7777 -0.6756
  114CHL1  H19B14664   4.986   7.010   6.318 -2.4860 -0.4480  1.4509
  114CHL1  H19C14665   4.896   7.064   6.171  0.4901 -0.3920 -0.7302
  114CHL1    C114666   5.124   6.786   6.192 -0.4004 -0.4630  0.3716
  114CHL1   H1A14667   5.044   6.714   6.220  0.8822 -1.5923  1.3055
  114CHL1   H1B14668   5.193   6.735   6.121  0.4978  0.8079  0.3029
  114CHL1    C214669   5.193   6.802   6.329 -0.5426 -0.6261 -0.2796
  114CHL1   H2A14670   5.239   6.705   6.356  0.2671 -0.1593  0.0839
  114CHL1   H2B14671   5.127   6.842   6.408  0.7752 -0.3565  0.7272
  114CHL1   C2014672   4.604   6.927   5.600  0.2048 -0.4054  0.1473
  114CHL1   H2014673   4.548   7.000   5.663  0.6795  0.0303  0.0665
  114CHL1   C2114674   4.552   6.783   5.619 -0.2832 -0.4517  0.0577
  114CHL1  H21A14675   4.529   6.758   5.725 -1.0496  2.4848  0.6868
  114CHL1  H21B14676   4.618   6.706   5.575  0.2963  0.0227  0.0831
  114CHL1  H21C14677   4.453   6.767   5.571 -0.6611  2.9347 -0.5463
  114CHL1   C2214678   4.574   6.958   5.448 -0.5851  0.2005 -0.8304
  114CHL1  H22A14679   4.467   6.937   5.424 -0.5531  0.6370 -1.3681
  114CHL1  H22B14680   4.590   7.064   5.419 -1.3156  0.2795 -0.9656
  114CHL1   C2314681   4.647   6.866   5.345 -0.0015  0.0942  0.8724
  114CHL1  H23A14682   4.757   6.882   5.347  0.2338 -1.2185 -0.0657
  114CHL1  H23B14683   4.630   6.759   5.370 -1.9702  0.8412  3.0802
  114CHL1   C2414684   4.604   6.900   5.202  0.0072  0.0908 -0.6285
  114CHL1  H24A14685   4.493   6.905   5.200 -0.1124 -0.8009  1.1689
  114CHL1  H24B14686   4.650   6.997   5.175  1.8283  0.6289  3.5974
  114CHL1   C2514687   4.643   6.785   5.107 -0.0017 -0.2472  0.1473
  114CHL1   H2514688   4.590   6.696   5.147 -1.3149  0.1693 -0.6072
  114CHL1   C2614689   4.596   6.822   4.970 -0.4129  0.3016 -0.4827
  114CHL1  H26A14690   4.488   6.847   4.965 -0.6546 -0.6776 -0.3918
  114CHL1  H26B14691   4.658   6.906   4.931  0.8913 -0.4297 -0.0608
  114CHL1  H26C14692   4.611   6.740   4.896 -2.6135 -0.3913 -0.2147
  114CHL1   C2714693   4.795   6.765   5.108  0.0021 -0.0899 -0.2563
  114CHL1  H27A14694   4.823   6.732   5.006  0.6898 -2.3859  0.6188
  114CHL1  H27B14695   4.842   6.864   5.121  0.1235 -0.1001 -0.6237
  114CHL1  H27C14696   4.829   6.696   5.189  1.1297  0.6379 -0.0920
  115CHL1    C314697   1.280   7.100   6.502 -0.5128  0.6363  0.0025
  115CHL1    H314698   1.271   6.991   6.483 -2.3322  0.8647 -0.5986
  115CHL1    O314699   1.323   7.111   6.642  0.3302 -0.1665 -0.1844
  115CHL1   H3'14700   1.346   7.204   6.653  0.2459 -0.0912 -0.6468
  115CHL1    C414701   1.379   7.175   6.407  0.5308 -0.2882 -0.5269
  115CHL1   H4A14702   1.391   7.280   6.442 -0.6620 -1.0484  2.4949
  115CHL1   H4B14703   1.479   7.128   6.424  1.3978  1.6755  0.1111
  115CHL1    C514704   1.342   7.176   6.264 -0.5013  1.0064  0.6975
  115CHL1    C614705   1.426   7.124   6.174 -0.3913  0.6068 -0.2349
  115CHL1    H614706   1.519   7.077   6.209 -1.7912 -1.0375  1.4546
  115CHL1    C714707   1.394   7.126   6.024 -0.0308  0.4523  0.1744
  115CHL1   H7A14708   1.476   7.168   5.963  0.2475  0.4186  0.5218
  115CHL1   H7B14709   1.374   7.025   5.982 -0.3538  0.9122 -0.8180
  115CHL1    C814710   1.275   7.218   5.997 -0.4735 -0.2417  0.3209
  115CHL1    H814711   1.313   7.323   6.003  0.4656 -0.3612 -2.4015
  115CHL1   C1414712   1.233   7.183   5.853 -0.6430 -0.6410  0.0186
  115CHL1   H1414713   1.205   7.075   5.854 -0.0820 -0.8109  1.7191
  115CHL1   C1514714   1.340   7.192   5.745 -0.2765 -0.2343  0.2770
  115CHL1  H15A14715   1.405   7.282   5.748  0.7337 -0.9000 -0.9453
  115CHL1  H15B14716   1.404   7.101   5.743 -0.4976 -0.3989 -2.0594
  115CHL1   C1614717   1.257   7.200   5.612  0.0815 -0.7070 -0.0778
  115CHL1  H16A14718   1.281   7.287   5.548 -1.2609 -0.2908 -0.0542
  115CHL1  H16B14719   1.261   7.106   5.554 -0.2373 -0.8581  0.1388
  115CHL1   C1714720   1.107   7.210   5.658  0.2966 -0.6272 -0.0824
  115CHL1   H1714721   1.063   7.108   5.669 -0.2914 -0.3113  0.5422
  115CHL1   C1314722   1.113   7.268   5.805 -0.6691  0.0682  0.7571
  115CHL1   C1814723   1.147   7.419   5.800 -0.0546 -0.6705  0.7860
  115CHL1  H18A14724   1.192   7.444   5.899  2.4085  0.6064 -0.5547
  115CHL1  H18B14725   1.228   7.437   5.726 -0.6063 -0.8912  0.1264
  115CHL1  H18C14726   1.056   7.482   5.794  0.0059 -0.6194  0.4373
  115CHL1   C1214727   0.995   7.228   5.899 -0.0987  0.5078  0.3121
  115CHL1  H12A14728   0.913   7.289   5.856 -1.0608 -0.9577 -0.0080
  115CHL1  H12B14729   0.983   7.118   5.886  0.1692  0.6017 -0.9095
  115CHL1   C1114730   1.018   7.248   6.046 -0.2706 -0.4246 -0.1787
  115CHL1  H11A14731   1.029   7.355   6.072 -0.8881  0.1856 -2.2405
  115CHL1  H11B14732   0.939   7.204   6.110  1.2285 -1.3839  1.0862
  115CHL1    C914733   1.164   7.193   6.088 -0.1417 -0.6337  0.4193
  115CHL1    H914734   1.145   7.084   6.082 -1.7045 -0.3485 -0.0746
  115CHL1   C1014735   1.204   7.231   6.232 -0.3281 -0.0635 -0.1586
  115CHL1   C1914736   1.188   7.382   6.261 -0.2309  0.2650  0.2354
  115CHL1  H19A14737   1.226   7.437   6.173 -2.4420 -0.9223 -1.5850
  115CHL1  H19B14738   1.081   7.413   6.262 -0.2401  0.2563 -0.4796
  115CHL1  H19C14739   1.237   7.414   6.356 -1.2558  0.3793  0.7419
  115CHL1    C114740   1.098   7.163   6.337  0.2978 -0.4200 -0.1519
  115CHL1   H1A14741   1.001   7.212   6.313 -0.9181 -3.0153 -0.8921
  115CHL1   H1B14742   1.094   7.059   6.299  1.4793 -1.1206  1.5448
  115CHL1    C214743   1.138   7.160   6.485  0.0476  0.1260 -0.5077
  115CHL1   H2A14744   1.073   7.090   6.543  0.3320  1.3684  1.3831
  115CHL1   H2B14745   1.145   7.261   6.530 -0.3191 -0.1412  0.1585
  115CHL1   C2014746   1.021   7.289   5.548 -0.0303  0.6002  0.2073
  115CHL1   H2014747   1.056   7.394   5.555  1.5039  0.0938  0.4227
  115CHL1   C2114748   0.870   7.291   5.585 -0.2752 -0.0879 -0.3223
  115CHL1  H21A14749   0.829   7.316   5.685 -0.2934  0.4319 -0.4593
  115CHL1  H21B14750   0.828   7.189   5.569 -2.3898  0.8149 -0.8308
  115CHL1  H21C14751   0.825   7.359   5.510  3.5852  2.6696 -0.4710
  115CHL1   C2214752   1.039   7.232   5.402  0.8079  0.1744  0.7789
  115CHL1  H22A14753   1.146   7.216   5.376  1.1333 -0.1984  2.2615
  115CHL1  H22B14754   1.002   7.128   5.406  0.8153  0.1851  1.2552
  115CHL1   C2314755   0.962   7.315   5.296 -0.4022 -0.6645 -0.3640
  115CHL1  H23A14756   0.852   7.304   5.303 -0.1608 -2.4108  2.5425
  115CHL1  H23B14757   0.996   7.421   5.307  1.2622 -1.3036  1.3436
  115CHL1   C2414758   1.003   7.265   5.154 -0.1008  0.2320 -0.3157
  115CHL1  H24A14759   1.114   7.257   5.155 -0.0419 -0.1836 -3.0297
  115CHL1  H24B14760   0.959   7.163   5.149 -0.6156  0.4388 -0.0337
  115CHL1   C2514761   0.983   7.351   5.035  0.0110 -0.7586  0.0835
  115CHL1   H2514762   0.876   7.371   5.015  0.2154  2.1633  1.3563
  115CHL1   C2614763   1.062   7.482   5.038 -0.4902 -0.3623  0.4536
  115CHL1  H26A14764   1.055   7.552   5.124 -2.6195 -0.1434  0.1455
  115CHL1  H26B14765   1.170   7.482   5.010 -0.6212  0.8544 -0.1297
  115CHL1  H26C14766   1.011   7.540   4.958 -1.4479 -1.8000 -0.0047
  115CHL1   C2714767   1.049   7.280   4.908  0.4723 -0.0156  0.3393
  115CHL1  H27A14768   1.045   7.170   4.916  0.0401 -0.2288 -2.0623
  115CHL1  H27B14769   1.010   7.324   4.814  2.6211  0.8375 -0.2330
  115CHL1  H27C14770   1.159   7.297   4.903  0.8760 -1.9429  1.9069
  116CHL1    C314771   1.669   0.163   6.265 -0.0303  0.3557  0.1228
  116CHL1    H314772   1.667   0.268   6.227 -0.0437  0.1284 -0.5019
  116CHL1    O314773   1.632   0.168   6.398  0.4537  0.5330 -0.4512
  116CHL1   H3'14774   1.716   0.177   6.443  0.0983 -2.3781  1.0248
  116CHL1    C414775   1.573   0.082   6.182  0.1459  0.3913 -0.4209
  116CHL1   H4A14776   1.543  -0.017   6.225 -1.9806  1.0087 -0.3678
  116CHL1   H4B14777   1.478   0.139   6.193  0.4270  0.5192  1.9754
  116CHL1    C514778   1.605   0.061   6.036  0.1129 -0.2211  0.2670
  116CHL1    C614779   1.530   0.093   5.931 -0.0924  0.7111  0.3017
  116CHL1    H614780   1.433   0.141   5.950 -1.1653 -1.6573  1.2541
  116CHL1    C714781   1.560   0.073   5.790  0.5235 -0.2407 -0.1109
  116CHL1   H7A14782   1.475   0.036   5.729 -0.5315 -0.1228  1.2569
  116CHL1   H7B14783   1.596   0.168   5.744  0.5081 -0.1349  0.0966
  116CHL1    C814784   1.676  -0.026   5.777 -0.6988  0.6577 -0.2726
  116CHL1    H814785   1.634  -0.124   5.809  0.1994  0.0817 -0.8265
  116CHL1   C1414786   1.718  -0.029   5.637 -0.2443  0.2840 -0.0999
  116CHL1   H1414787   1.761   0.067   5.601  0.3455 -0.7957 -2.4670
  116CHL1   C1514788   1.598  -0.059   5.532 -1.0490 -0.4726  0.3955
  116CHL1  H15A14789   1.541  -0.146   5.571 -0.0728 -2.4813 -2.3342
  116CHL1  H15B14790   1.537   0.031   5.510  1.8237  1.3912 -0.4739
  116CHL1   C1614791   1.679  -0.108   5.409  0.6091  0.1439 -0.0211
  116CHL1  H16A14792   1.633  -0.200   5.368  0.5436  1.0603 -2.0876
  116CHL1  H16B14793   1.680  -0.038   5.323  0.2085  1.0179  0.6662
  116CHL1   C1714794   1.828  -0.127   5.457  0.2400  0.3258  0.4574
  116CHL1   H1714795   1.872  -0.030   5.426 -0.0484 -0.6968 -3.8066
  116CHL1   C1314796   1.825  -0.135   5.611 -0.0572  0.7328 -0.2138
  116CHL1   C1814797   1.777  -0.278   5.645  0.2063  0.0091 -0.4193
  116CHL1  H18A14798   1.696  -0.302   5.573 -0.7630 -1.8440  1.1933
  116CHL1  H18B14799   1.857  -0.355   5.651  0.1391 -0.0422 -0.1374
  116CHL1  H18C14800   1.731  -0.272   5.746 -0.5471 -1.1306 -0.6805
  116CHL1   C1214801   1.948  -0.086   5.684 -0.4329 -0.4484 -0.3823
  116CHL1  H12A14802   2.028  -0.163   5.675 -1.1218 -1.1131 -0.9765
  116CHL1  H12B14803   1.986   0.013   5.651  0.8890  0.7002  3.9416
  116CHL1   C1114804   1.918  -0.079   5.836  0.1968  0.3960 -0.4642
  116CHL1  H11A14805   1.908  -0.188   5.858  0.4033  0.2415 -1.0989
  116CHL1  H11B14806   2.011  -0.052   5.891 -0.3164  0.5634  0.3421
  116CHL1    C914807   1.793   0.011   5.870  0.4556  0.0610 -1.0820
  116CHL1    H914808   1.831   0.113   5.850 -0.5097  0.7362  0.3373
  116CHL1   C1014809   1.751   0.009   6.022 -0.6537  0.2184 -0.6224
  116CHL1   C1914810   1.756  -0.139   6.076 -0.4775 -0.2164  0.2156
  116CHL1  H19A14811   1.704  -0.217   6.016  1.5712  0.2807 -2.4287
  116CHL1  H19B14812   1.866  -0.153   6.086 -0.6184 -1.9217 -0.1665
  116CHL1  H19C14813   1.708  -0.140   6.176 -3.0451  2.2041 -0.8502
  116CHL1    C114814   1.849   0.103   6.098  0.6192  0.0643 -0.0572
  116CHL1   H1A14815   1.952   0.065   6.083  0.5994 -0.6147  1.3467
  116CHL1   H1B14816   1.849   0.205   6.055 -0.1588 -0.3459 -1.0893
  116CHL1    C214817   1.810   0.113   6.247 -0.4154  0.7602 -0.3296
  116CHL1   H2A14818   1.882   0.185   6.292 -0.4811 -0.2315  1.4200
  116CHL1   H2B14819   1.823   0.015   6.296  1.3037  1.0680 -0.1027
  116CHL1   C2014820   1.896  -0.240   5.372 -0.7424  0.4895 -0.5057
  116CHL1   H2014821   1.840  -0.335   5.384 -1.2085  0.8396  0.1494
  116CHL1   C2114822   2.037  -0.264   5.426 -1.0065 -0.0859  0.3379
  116CHL1  H21A14823   2.077  -0.350   5.368  0.2027  0.8592 -0.2974
  116CHL1  H21B14824   2.048  -0.288   5.534 -0.0974  1.1699  0.5445
  116CHL1  H21C14825   2.094  -0.171   5.406 -2.7996  1.0037  0.0764
  116CHL1   C2214826   1.889  -0.200   5.224 -0.1062  0.1754  0.0996
  116CHL1  H22A14827   1.780  -0.196   5.206 -0.5998  0.2796  2.6189
  116CHL1  H22B14828   1.926  -0.096   5.207 -3.1320  1.1836 -0.8261
  116CHL1   C2314829   1.956  -0.288   5.118 -0.4627 -0.1876 -0.7339
  116CHL1  H23A14830   2.066  -0.284   5.133 -0.1948 -3.7508 -0.9731
  116CHL1  H23B14831   1.927  -0.392   5.142  1.2607 -1.0898 -2.3456
  116CHL1   C2414832   1.941  -0.245   4.974 -0.0615  0.2609 -0.2071
  116CHL1  H24A14833   1.834  -0.244   4.947 -0.2603  0.6278  0.5916
  116CHL1  H24B14834   1.969  -0.138   4.962 -1.5426  0.6612 -0.1719
  116CHL1   C2514835   2.021  -0.325   4.866 -0.1858  0.0377  0.0190
  116CHL1   H2514836   2.119  -0.341   4.916 -0.5463 -0.4532  0.5867
  116CHL1   C2614837   1.953  -0.457   4.846 -0.6098 -0.5389 -0.0833
  116CHL1  H26A14838   2.006  -0.515   4.768  1.3164 -0.8459  1.3585
  116CHL1  H26B14839   1.958  -0.523   4.935  2.4384  0.1436  0.3875
  116CHL1  H26C14840   1.847  -0.444   4.816 -0.6214 -0.5745 -0.0593
  116CHL1   C2714841   2.039  -0.245   4.732 -0.0213 -0.3718  0.0880
  116CHL1  H27A14842   1.939  -0.216   4.696  0.5218  1.1917 -0.2306
  116CHL1  H27B14843   2.086  -0.147   4.758 -1.9342  0.9479 -1.2247
  116CHL1  H27C14844   2.091  -0.295   4.647 -1.5397  0.0904 -1.1497
  117CHL1    C314845   4.376   0.352   6.465  0.7041  0.4666  0.0185
  117CHL1    H314846   4.420   0.454   6.453 -1.9897  1.7539  0.3459
  117CHL1    O314847   4.392   0.298   6.589 -0.1004  0.0888 -0.9904
  117CHL1   H3'14848   4.390   0.206   6.561  0.2504  0.0499 -0.8992
  117CHL1    C414849   4.221   0.346   6.437 -0.8009 -0.0889  0.3497
  117CHL1   H4A14850   4.209   0.235   6.432  1.4878 -0.3354 -2.4253
  117CHL1   H4B14851   4.173   0.391   6.526  1.2308  0.8311  1.0371
  117CHL1    C514852   4.179   0.408   6.307 -0.6860 -0.1181  0.0287
  117CHL1    C614853   4.093   0.514   6.299  0.2394 -0.1278 -0.1209
  117CHL1    H614854   4.051   0.558   6.391 -0.6708 -1.6139  0.2061
  117CHL1    C714855   4.054   0.586   6.164 -0.1461 -0.1798 -0.3415
  117CHL1   H7A14856   3.945   0.601   6.149 -0.0549  1.1872  0.1737
  117CHL1   H7B14857   4.098   0.688   6.162  0.3620 -0.4027 -2.1146
  117CHL1    C814858   4.110   0.522   6.039  0.2509  0.1895 -0.4964
  117CHL1    H814859   4.041   0.437   6.021 -2.3826  2.1318 -0.1788
  117CHL1   C1414860   4.115   0.614   5.917 -0.2013 -1.3480  0.3396
  117CHL1   H1414861   4.186   0.698   5.934 -3.5762  1.6552  0.7227
  117CHL1   C1514862   3.990   0.693   5.882  0.1434 -0.0150  0.0778
  117CHL1  H15A14863   3.900   0.628   5.889 -0.0374 -0.0460 -2.0031
  117CHL1  H15B14864   3.987   0.774   5.958  1.9383  0.7231 -0.5862
  117CHL1   C1614865   4.010   0.733   5.734  0.4151 -0.5016 -0.0210
  117CHL1  H16A14866   3.924   0.693   5.675  0.6235  1.3482 -1.7062
  117CHL1  H16B14867   4.018   0.844   5.728  1.9091 -0.5967 -0.0952
  117CHL1   C1714868   4.141   0.660   5.689 -0.3431  0.1500  0.1189
  117CHL1   H1714869   4.222   0.731   5.716 -0.9658  0.4417  1.2624
  117CHL1   C1314870   4.159   0.546   5.785  0.4236  0.6155 -0.0896
  117CHL1   C1814871   4.063   0.436   5.744  0.5822  0.5625  0.0538
  117CHL1  H18A14872   4.077   0.345   5.807  0.8418  0.5089 -0.0786
  117CHL1  H18B14873   3.956   0.465   5.746  0.3598 -0.2680  1.2558
  117CHL1  H18C14874   4.089   0.401   5.641 -2.9831  1.9192 -1.4552
  117CHL1   C1214875   4.299   0.490   5.807 -0.1911 -0.9803  0.2200
  117CHL1  H12A14876   4.332   0.432   5.718 -1.1106  0.0485 -0.8216
  117CHL1  H12B14877   4.376   0.570   5.814 -1.0301  0.0111 -1.2675
  117CHL1   C1114878   4.310   0.407   5.928  0.0843  0.7033 -0.0199
  117CHL1  H11A14879   4.271   0.306   5.903  0.6105  0.9391 -1.9175
  117CHL1  H11B14880   4.418   0.386   5.942  0.2360  1.5678  0.1288
  117CHL1    C914881   4.251   0.459   6.065  0.1631  0.2343  0.0613
  117CHL1    H914882   4.311   0.552   6.077  0.0845  0.2430  0.3928
  117CHL1   C1014883   4.255   0.355   6.177 -0.0895  0.2662 -0.4905
  117CHL1   C1914884   4.187   0.227   6.128 -0.6167 -0.1163  0.4686
  117CHL1  H19A14885   4.246   0.172   6.051  2.4324  0.7195  2.0485
  117CHL1  H19B14886   4.167   0.153   6.208 -0.8780 -0.8917 -0.2949
  117CHL1  H19C14887   4.096   0.264   6.076 -0.7228  1.5495  1.7311
  117CHL1    C114888   4.406   0.327   6.218 -0.0473  0.2757 -0.3756
  117CHL1   H1A14889   4.461   0.264   6.143  2.2830  2.9842 -1.1072
  117CHL1   H1B14890   4.458   0.425   6.221 -2.5986  1.7062  1.8447
  117CHL1    C214891   4.433   0.263   6.356  0.0535 -0.5765  0.6832
  117CHL1   H2A14892   4.543   0.254   6.374  0.2588 -2.3126 -1.0773
  117CHL1   H2B14893   4.394   0.159   6.349  0.5188 -0.8457  1.8035
  117CHL1   C2014894   4.150   0.622   5.540 -0.4423  0.3085 -0.5999
  117CHL1   H2014895   4.217   0.534   5.538 -0.4510  0.2862  0.0373
  117CHL1   C2114896   4.225   0.730   5.456  0.3755 -0.0688 -0.0979
  117CHL1  H21A14897   4.180   0.831   5.472 -0.9637 -0.6722  0.0978
  117CHL1  H21B14898   4.216   0.716   5.346  2.1094  1.5106 -0.4866
  117CHL1  H21C14899   4.333   0.730   5.481  1.0753 -0.0116 -2.7551
  117CHL1   C2214900   4.021   0.592   5.456  0.1154 -0.3304  0.6816
  117CHL1  H22A14901   3.944   0.538   5.515 -0.9088  0.8321  0.4533
  117CHL1  H22B14902   3.976   0.684   5.413  0.6941 -0.7500 -0.9141
  117CHL1   C2314903   4.049   0.499   5.333 -0.4019 -0.3402 -0.0978
  117CHL1  H23A14904   4.112   0.558   5.263  1.6778 -0.2493  1.7436
  117CHL1  H23B14905   4.094   0.402   5.360  1.8804  0.6593 -0.0715
  117CHL1   C2414906   3.912   0.471   5.262 -0.3663 -0.3872 -0.2136
  117CHL1  H24A14907   3.855   0.392   5.315 -0.2321  0.7849  1.8017
  117CHL1  H24B14908   3.860   0.569   5.257  0.9838  0.3235 -0.7952
  117CHL1   C2514909   3.927   0.419   5.112  0.0862  0.1727 -0.2057
  117CHL1   H2514910   4.008   0.344   5.124  1.7196  2.0373  1.0265
  117CHL1   C2614911   3.805   0.337   5.072 -0.2391  0.1759  0.2061
  117CHL1  H26A14912   3.827   0.286   4.976 -0.5338  0.1057  0.1756
  117CHL1  H26B14913   3.780   0.269   5.156 -0.9408  0.8836  0.5824
  117CHL1  H26C14914   3.715   0.402   5.077 -0.7930 -0.4080 -1.5030
  117CHL1   C2714915   3.961   0.529   5.008 -0.4473 -0.2489 -1.0609
  117CHL1  H27A14916   4.060   0.569   5.037  0.1433 -2.6134  0.4935
  117CHL1  H27B14917   3.975   0.487   4.906 -1.8153  0.3475 -1.5226
  117CHL1  H27C14918   3.889   0.614   4.999 -0.9458 -0.5186  0.1349
  118CHL1    C314919   0.244   2.552   6.532  0.4103 -0.1516  0.1949
  118CHL1    H314920   0.349   2.586   6.525  0.0384  0.8044 -1.0125
  118CHL1    O314921   0.200   2.522   6.667  0.6863 -0.4103 -0.0885
  118CHL1   H3'14922   0.115   2.478   6.656 -0.4950  1.5469  0.8062
  118CHL1    C414923   0.156   2.661   6.462 -0.3536  0.5987  1.0589
  118CHL1   H4A14924   0.051   2.634   6.487 -0.7562 -0.2302 -1.2890
  118CHL1   H4B14925   0.165   2.749   6.529 -1.8917 -0.9025  3.3878
  118CHL1    C514926   0.191   2.677   6.313  0.4169 -0.1857  0.5391
  118CHL1    C614927   0.242   2.791   6.268 -0.1823  0.2127  0.2030
  118CHL1    H614928   0.252   2.873   6.340  2.2783 -0.4671  0.7135
  118CHL1    C714929   0.285   2.814   6.127 -0.2222 -0.4341  0.2021
  118CHL1   H7A14930   0.234   2.909   6.099  1.5250  0.1304 -1.2188
  118CHL1   H7B14931   0.395   2.829   6.130  0.4392 -3.1020 -3.2011
  118CHL1    C814932   0.249   2.700   6.027  0.2243  0.0798 -0.4417
  118CHL1    H814933   0.143   2.714   5.998  0.0320 -0.6413 -0.1127
  118CHL1   C1414934   0.334   2.708   5.907  0.3474 -0.1473  0.5868
  118CHL1   H1414935   0.436   2.691   5.947  0.4226  0.0385  0.4795
  118CHL1   C1514936   0.340   2.842   5.840 -0.2360  0.1697  0.6709
  118CHL1  H15A14937   0.235   2.878   5.831 -0.2588  0.1612  0.8885
  118CHL1  H15B14938   0.416   2.901   5.895 -1.9914  2.3305  0.9044
  118CHL1   C1614939   0.388   2.809   5.696 -0.9608 -0.4078 -0.0067
  118CHL1  H16A14940   0.319   2.836   5.613 -0.9935 -0.7797 -0.1034
  118CHL1  H16B14941   0.486   2.859   5.686 -1.3175  0.1339 -0.8749
  118CHL1   C1714942   0.398   2.656   5.690  0.7655 -0.4196  0.1358
  118CHL1   H1714943   0.502   2.643   5.726 -0.3489 -0.0533  3.8146
  118CHL1   C1314944   0.309   2.604   5.795  0.7543 -0.6151 -0.5308
  118CHL1   C1814945   0.152   2.610   5.753  0.8386  0.7335 -0.4404
  118CHL1  H18A14946   0.114   2.715   5.750 -0.4388  0.5073  3.0502
  118CHL1  H18B14947   0.132   2.560   5.655 -0.4225 -0.9112  0.6000
  118CHL1  H18C14948   0.089   2.560   5.830  0.0278  1.7699 -0.3965
  118CHL1   C1214949   0.331   2.465   5.859 -0.4887  0.3456 -0.0966
  118CHL1  H12A14950   0.312   2.380   5.790 -1.6720 -0.4840  1.1971
  118CHL1  H12B14951   0.439   2.455   5.884 -0.7452 -0.4603  0.7314
  118CHL1   C1114952   0.261   2.445   6.000 -0.2943  0.4575 -0.4855
  118CHL1  H11A14953   0.153   2.429   5.985 -0.4994  1.5788 -0.2925
  118CHL1  H11B14954   0.301   2.357   6.056  2.9903  0.4712 -2.5219
  118CHL1    C914955   0.271   2.565   6.095  0.2944  0.1286 -0.3921
  118CHL1    H914956   0.378   2.562   6.125  0.3129  0.3678 -0.4310
  118CHL1   C1014957   0.198   2.553   6.227  0.3387  0.9723 -0.0240
  118CHL1   C1914958   0.055   2.502   6.208  0.0290 -0.9347  0.9288
  118CHL1  H19A14959   0.046   2.411   6.145 -0.1552 -0.6679  0.5717
  118CHL1  H19B14960   0.005   2.483   6.306 -0.9532 -1.9836  0.2478
  118CHL1  H19C14961  -0.013   2.573   6.157  1.3730  0.1936  0.6439
  118CHL1    C114962   0.274   2.442   6.299 -0.0778 -0.1347 -0.9199
  118CHL1   H1A14963   0.259   2.338   6.265 -2.2052  0.3282 -1.5165
  118CHL1   H1B14964   0.378   2.478   6.316  0.3889 -0.8841 -2.0694
  118CHL1    C214965   0.235   2.421   6.453 -0.6696 -0.9168 -0.0525
  118CHL1   H2A14966   0.293   2.337   6.497 -0.7545 -0.0872  1.7440
  118CHL1   H2B14967   0.130   2.385   6.449 -1.4284  1.2606 -1.2449
  118CHL1   C2014968   0.375   2.604   5.541  0.1148 -0.3019 -0.2498
  118CHL1   H2014969   0.270   2.623   5.510 -0.4551 -1.3203  0.9345
  118CHL1   C2114970   0.381   2.447   5.536  0.0785 -0.4713  0.5098
  118CHL1  H21A14971   0.384   2.410   5.431  0.8976 -0.3228  0.4744
  118CHL1  H21B14972   0.287   2.398   5.567  1.6999 -2.1788  3.1127
  118CHL1  H21C14973   0.470   2.400   5.584  0.4038 -0.6638 -0.2535
  118CHL1   C2214974   0.474   2.668   5.435  0.1382 -0.1284  0.2616
  118CHL1  H22A14975   0.449   2.776   5.423  0.5807  0.0083  0.5456
  118CHL1  H22B14976   0.574   2.664   5.483  0.0836 -1.7362  0.2987
  118CHL1   C2314977   0.464   2.609   5.291 -0.4164  0.1696  1.3325
  118CHL1  H23A14978   0.510   2.508   5.291  0.8016  0.6557 -1.0228
  118CHL1  H23B14979   0.357   2.590   5.266  0.1123 -0.6587 -0.4537
  118CHL1   C2414980   0.539   2.705   5.202  0.0259 -0.2870 -0.1981
  118CHL1  H24A14981   0.491   2.804   5.218 -2.5228 -1.1757 -1.6956
  118CHL1  H24B14982   0.640   2.726   5.244  0.1940  0.8163 -1.1097
  118CHL1   C2514983   0.546   2.652   5.057 -0.6154 -0.4759  0.7203
  118CHL1   H2514984   0.450   2.656   5.001  1.0902 -1.0574 -2.4744
  118CHL1   C2614985   0.641   2.751   4.992  0.3478 -0.5492  0.0973
  118CHL1  H26A14986   0.640   2.744   4.881  0.9511  1.0652 -0.0341
  118CHL1  H26B14987   0.597   2.849   5.021 -0.1180 -0.9057  0.6193
  118CHL1  H26C14988   0.748   2.735   5.016  0.1352 -0.2796  1.2702
  118CHL1   C2714989   0.590   2.508   5.038  0.0216  0.1197 -0.9676
  118CHL1  H27A14990   0.604   2.486   4.930 -3.7961  1.5578 -1.9045
  118CHL1  H27B14991   0.686   2.491   5.091  0.1575 -0.9510 -1.5270
  118CHL1  H27C14992   0.509   2.438   5.067 -2.3834  1.4599 -3.9035
  119CHL1    C314993   0.945   6.509   6.531  0.0851 -0.4003 -0.3310
  119CHL1    H314994   0.879   6.425   6.501  2.3599 -2.3837 -0.0201
  119CHL1    O314995   0.970   6.516   6.675  0.2896 -0.1796  0.6612
  119CHL1   H3'14996   1.037   6.583   6.691  1.2979 -1.2482  1.0346
  119CHL1    C414997   1.080   6.493   6.459 -0.4336 -0.1345  0.2831
  119CHL1   H4A14998   1.142   6.573   6.505 -1.7764 -0.1311  2.1555
  119CHL1   H4B14999   1.122   6.397   6.496  1.8014  0.1141 -1.3624
  119CHL1    C515000   1.069   6.504   6.305 -0.1846  0.7131  0.1224
  119CHL1    C615001   1.113   6.406   6.225  0.3873  0.2054  0.2790
  119CHL1    H615002   1.163   6.322   6.276  1.2319 -0.0790 -0.9601
  119CHL1    C715003   1.111   6.419   6.071  0.2774  0.6405 -0.0989
  119CHL1   H7A15004   1.207   6.376   6.034  1.1973  0.6297  2.1022
  119CHL1   H7B15005   1.029   6.352   6.037 -1.2878  2.0878  0.7020
  119CHL1    C815006   1.081   6.560   6.016  0.5716 -0.0709  0.5930
  119CHL1    H815007   1.173   6.620   6.029  0.2551  0.8978 -1.2632
  119CHL1   C1415008   1.058   6.561   5.865  0.5595 -0.0026 -0.2098
  119CHL1   H1415009   0.975   6.488   5.856  0.9787 -0.3695 -1.3516
  119CHL1   C1515010   1.158   6.498   5.764  0.1129 -0.6367 -0.6604
  119CHL1  H15A15011   1.261   6.531   5.789 -0.2221 -1.5384  2.2896
  119CHL1  H15B15012   1.154   6.387   5.764  0.6517 -0.6748  0.6722
  119CHL1   C1615013   1.104   6.543   5.628  0.0284 -0.6304  0.1584
  119CHL1  H16A15014   1.179   6.604   5.572 -1.4744  1.2025  0.0578
  119CHL1  H16B15015   1.077   6.456   5.566 -0.1564  0.2679 -1.0557
  119CHL1   C1715016   0.995   6.654   5.661 -0.2918  0.0204 -0.1555
  119CHL1   H1715017   0.900   6.597   5.660 -0.1732 -0.1800 -1.0487
  119CHL1   C1315018   1.014   6.692   5.805 -0.1722  0.1995  0.3289
  119CHL1   C1815019   1.131   6.794   5.825 -0.9079  0.2763  0.5916
  119CHL1  H18A15020   1.149   6.798   5.935 -2.0020  2.1043  0.7464
  119CHL1  H18B15021   1.222   6.770   5.767 -2.4766 -1.5340 -1.2932
  119CHL1  H18C15022   1.095   6.894   5.795 -1.0622 -0.1007 -0.5037
  119CHL1   C1215023   0.881   6.727   5.873 -0.7140  0.0320  0.6252
  119CHL1  H12A15024   0.831   6.820   5.839 -1.2677 -0.5450 -0.1697
  119CHL1  H12B15025   0.809   6.643   5.868 -1.5385  0.7048  0.8578
  119CHL1   C1115026   0.904   6.742   6.029  0.0778  0.1560  0.0832
  119CHL1  H11A15027   0.972   6.829   6.036 -0.7067  0.8828 -1.0333
  119CHL1  H11B15028   0.808   6.781   6.070  0.5022 -0.9284  2.2903
  119CHL1    C915029   0.966   6.619   6.101 -0.3493  0.5491  0.2388
  119CHL1    H915030   0.884   6.545   6.088  0.6437 -0.1449 -2.9628
  119CHL1   C1015031   0.993   6.628   6.253  0.3842  0.3682 -1.0342
  119CHL1   C1915032   1.083   6.752   6.273  0.1385 -0.0276 -0.4809
  119CHL1  H19A15033   1.026   6.844   6.251 -0.6582 -0.5769 -0.7513
  119CHL1  H19B15034   1.116   6.759   6.379 -0.7844  0.2688 -0.2109
  119CHL1  H19C15035   1.172   6.746   6.206  0.7365  1.1152  0.1887
  119CHL1    C115036   0.854   6.653   6.335 -0.2956  0.4268  0.1501
  119CHL1   H1A15037   0.809   6.750   6.305 -2.1029 -0.3219  0.2770
  119CHL1   H1B15038   0.782   6.573   6.306  0.7333 -0.7865  0.8411
  119CHL1    C215039   0.874   6.643   6.487  0.1985  0.0577  0.2982
  119CHL1   H2A15040   0.779   6.646   6.546 -0.9223  0.7481 -1.4675
  119CHL1   H2B15041   0.933   6.722   6.537 -0.3822 -0.2889  1.5808
  119CHL1   C2015042   0.985   6.758   5.554 -0.2005  0.0800 -0.1859
  119CHL1   H2015043   1.081   6.814   5.547 -0.0879 -0.2901 -4.5200
  119CHL1   C2115044   0.872   6.857   5.582 -0.0079 -0.2498 -0.7998
  119CHL1  H21A15045   0.894   6.935   5.659  1.0387  2.1007 -3.3073
  119CHL1  H21B15046   0.789   6.798   5.626 -0.0477 -0.7425 -1.5231
  119CHL1  H21C15047   0.839   6.906   5.487 -0.2799 -1.9663 -1.6232
  119CHL1   C2215048   0.974   6.697   5.413 -0.1661 -0.1353  0.1993
  119CHL1  H22A15049   1.063   6.634   5.392 -1.4851 -1.8539 -0.4670
  119CHL1  H22B15050   0.884   6.632   5.417  1.4138 -2.4993 -0.8804
  119CHL1   C2315051   0.971   6.795   5.298 -0.1074  0.0837  0.0337
  119CHL1  H23A15052   0.882   6.862   5.300 -1.4515 -1.5317 -1.7001
  119CHL1  H23B15053   1.060   6.860   5.312 -0.6938  0.9905 -0.3390
  119CHL1   C2415054   0.986   6.718   5.164 -0.7079  0.3551 -0.1841
  119CHL1  H24A15055   1.072   6.647   5.167  1.8618  3.3046  1.1643
  119CHL1  H24B15056   0.888   6.668   5.150  0.3029 -1.3683 -1.6050
  119CHL1   C2515057   0.990   6.809   5.042 -0.4205 -0.1171  0.1605
  119CHL1   H2515058   0.900   6.871   5.060  0.7673  1.1928  1.8598
  119CHL1   C2615059   1.107   6.907   5.049 -0.0698  0.4514  0.1555
  119CHL1  H26A15060   1.120   6.947   4.946  1.9948 -3.1032 -1.1638
  119CHL1  H26B15061   1.069   6.991   5.111 -0.9224  1.0051 -1.0657
  119CHL1  H26C15062   1.203   6.866   5.087 -0.6765  1.4251  3.0047
  119CHL1   C2715063   0.986   6.749   4.901  0.0804 -0.6613 -0.1255
  119CHL1  H27A15064   1.082   6.695   4.887  1.3672  1.3306  0.5451
  119CHL1  H27B15065   0.899   6.681   4.902 -0.5205  0.0972  0.7356
  119CHL1  H27C15066   0.976   6.830   4.825 -3.2534 -2.5332 -1.9290
  120CHL1    C315067   6.200   0.730   6.148 -0.5295  0.1616 -0.0875
  120CHL1    H315068   6.228   0.626   6.121  1.0051  0.2643  0.9625
  120CHL1    O315069   6.223   0.752   6.289 -0.3384 -0.5387  0.5213
  120CHL1   H3'15070   6.193   0.843   6.293  0.7346 -0.0956 -0.9027
  120CHL1    C415071   6.290   0.815   6.057 -0.3427 -0.1772 -0.1469
  120CHL1   H4A15072   6.262   0.921   6.075  2.8507  0.5654  0.9465
  120CHL1   H4B15073   6.398   0.819   6.082 -0.3336  0.6693 -0.3010
  120CHL1    C515074   6.262   0.783   5.913  0.0429 -0.2059  0.0990
  120CHL1    C615075   6.355   0.749   5.822  0.0159  0.0040  0.0735
  120CHL1    H615076   6.461   0.745   5.850  1.0819 -2.3562 -3.5527
  120CHL1    C715077   6.326   0.728   5.680 -0.4100 -0.2595 -0.3034
  120CHL1   H7A15078   6.395   0.790   5.618  0.1426  0.6586  1.1718
  120CHL1   H7B15079   6.355   0.623   5.656  1.2025 -0.0933  0.7589
  120CHL1    C815080   6.181   0.752   5.631  0.1173 -0.2454  0.2572
  120CHL1    H815081   6.167   0.859   5.605  1.6436  0.2685  1.3801
  120CHL1   C1415082   6.138   0.674   5.508  0.0345  0.2730 -0.1441
  120CHL1   H1415083   6.151   0.566   5.535 -0.2811  0.2128 -0.2329
  120CHL1   C1515084   6.223   0.691   5.381 -0.7445  0.1397 -0.2348
  120CHL1  H15A15085   6.249   0.797   5.360 -0.1448  0.2444  0.9693
  120CHL1  H15B15086   6.323   0.642   5.386 -0.5428  0.4690 -0.8629
  120CHL1   C1615087   6.143   0.635   5.263  0.0205 -0.0779  0.1727
  120CHL1  H16A15088   6.125   0.714   5.188  0.1961  0.1719  0.3896
  120CHL1  H16B15089   6.196   0.549   5.216 -2.4666 -1.4667 -0.2672
  120CHL1   C1715090   6.001   0.599   5.334 -0.3999 -0.7117 -0.2541
  120CHL1   H1715091   6.010   0.501   5.385 -2.4356  0.5529  2.8206
  120CHL1   C1315092   5.991   0.687   5.463 -0.4405  0.3715 -0.2060
  120CHL1   C1815093   5.962   0.830   5.412 -0.0005  0.2889 -0.5696
  120CHL1  H18A15094   5.854   0.854   5.407 -0.3983 -1.1703  0.6533
  120CHL1  H18B15095   6.004   0.899   5.489 -2.7164  0.1659  1.1456
  120CHL1  H18C15096   6.007   0.862   5.315 -2.0880  2.7494 -0.8421
  120CHL1   C1215097   5.905   0.629   5.572  0.5246 -0.0648 -0.3785
  120CHL1  H12A15098   5.798   0.639   5.543  0.1745 -0.0349  0.8527
  120CHL1  H12B15099   5.905   0.522   5.605 -1.8579  0.2738  0.9538
  120CHL1   C1115100   5.926   0.725   5.695 -0.1499  0.0110 -0.2481
  120CHL1  H11A15101   5.899   0.830   5.671 -2.9543 -0.4214  0.5975
  120CHL1  H11B15102   5.858   0.713   5.782 -0.9877 -0.4192 -0.9428
  120CHL1    C915103   6.078   0.721   5.742 -0.2188 -0.0646  0.6739
  120CHL1    H915104   6.098   0.614   5.760 -0.1133 -0.4535 -1.4599
  120CHL1   C1015105   6.112   0.789   5.878 -0.3914  0.0419 -0.4258
  120CHL1   C1915106   6.083   0.941   5.883 -0.3355 -0.4975  0.3656
  120CHL1  H19A15107   5.974   0.949   5.859 -0.4812 -2.9443 -0.0367
  120CHL1  H19B15108   6.096   0.978   5.986  0.8875 -0.9716  0.3964
  120CHL1  H19C15109   6.141   0.990   5.801 -1.1214  0.5958  0.4324
  120CHL1    C115110   6.023   0.719   5.986 -0.0070 -0.5427  1.2038
  120CHL1   H1A15111   5.918   0.753   5.968  0.9128  1.1552 -1.6664
  120CHL1   H1B15112   6.030   0.609   5.974 -0.1622 -0.4879  0.5414
  120CHL1    C215113   6.053   0.745   6.127  0.1418 -0.3976  0.2709
  120CHL1   H2A15114   5.982   0.686   6.189 -2.4729 -0.0244 -2.1939
  120CHL1   H2B15115   6.028   0.848   6.159  0.7446  0.2114 -1.1402
  120CHL1   C2015116   5.877   0.590   5.242 -0.6054  1.2047  0.4279
  120CHL1   H2015117   5.790   0.604   5.309  0.4800  1.5451  1.8145
  120CHL1   C2115118   5.882   0.444   5.181  0.0744  0.2644 -0.0102
  120CHL1  H21A15119   5.966   0.424   5.111 -0.6239 -2.6660 -0.1646
  120CHL1  H21B15120   5.785   0.424   5.129  0.7370 -0.0091 -1.1893
  120CHL1  H21C15121   5.901   0.376   5.266  0.5883  0.7548  0.2679
  120CHL1   C2215122   5.877   0.707   5.132  0.3260  0.0105  0.0160
  120CHL1  H22A15123   5.870   0.806   5.182  0.8027  0.2642 -0.4073
  120CHL1  H22B15124   5.968   0.702   5.068  2.2254  0.1862  2.5353
  120CHL1   C2315125   5.755   0.715   5.046 -0.3471  0.2430 -0.3918
  120CHL1  H23A15126   5.754   0.623   4.984 -3.5135 -1.0968  1.3815
  120CHL1  H23B15127   5.659   0.718   5.102 -0.4404  0.0936 -0.5417
  120CHL1   C2415128   5.776   0.842   4.959  0.6625 -0.7943 -0.3338
  120CHL1  H24A15129   5.775   0.930   5.027  0.0619 -0.2106 -1.0777
  120CHL1  H24B15130   5.875   0.847   4.911  0.2732  1.2036 -1.0224
  120CHL1   C2515131   5.670   0.853   4.848 -0.1327  0.1405  0.0675
  120CHL1   H2515132   5.581   0.869   4.911  0.4287 -0.2819  0.9812
  120CHL1   C2615133   5.705   0.975   4.755  0.3995 -0.3222  0.0832
  120CHL1  H26A15134   5.612   1.016   4.709  1.0430 -1.1498 -2.0798
  120CHL1  H26B15135   5.733   1.056   4.825  0.0289  0.0185 -0.1548
  120CHL1  H26C15136   5.784   0.948   4.682  1.7749  1.7237  0.7241
  120CHL1   C2715137   5.658   0.718   4.770  0.2998  0.3691 -0.0308
  120CHL1  H27A15138   5.753   0.691   4.720 -0.9136 -1.7831 -1.3543
  120CHL1  H27B15139   5.624   0.630   4.829  2.5127 -0.9435 -0.6013
  120CHL1  H27C15140   5.586   0.731   4.686  0.1843 -1.3300 -0.2295
  121CHL1    C315141   4.536   4.276   3.078 -0.1998  0.6818  0.1531
  121CHL1    H315142   4.617   4.211   3.116 -1.5161 -1.5892 -0.7097
  121CHL1    O315143   4.549   4.277   2.939 -0.0652  0.3252 -0.0646
  121CHL1   H3'15144   4.528   4.367   2.916 -1.2603 -0.0807 -0.6652
  121CHL1    C415145   4.402   4.216   3.130 -0.1517 -1.1093 -0.4556
  121CHL1   H4A15146   4.317   4.263   3.075 -0.7079 -0.8374  0.6049
  121CHL1   H4B15147   4.399   4.108   3.104  0.4312 -1.4404  0.7894
  121CHL1    C515148   4.384   4.229   3.279 -0.5107  0.0207  0.4517
  121CHL1    C615149   4.362   4.119   3.349 -0.4649  0.2934  0.1389
  121CHL1    H615150   4.355   4.018   3.306 -0.3931  0.2349  0.2633
  121CHL1    C715151   4.348   4.116   3.494  0.3654 -0.1973  0.4920
  121CHL1   H7A15152   4.264   4.053   3.532 -0.2588 -0.7193 -1.6071
  121CHL1   H7B15153   4.440   4.084   3.547 -0.4361 -0.2351  1.9203
  121CHL1    C815154   4.329   4.259   3.563  0.1146  0.0833 -0.3061
  121CHL1    H815155   4.226   4.289   3.533 -0.2892 -0.9633 -0.0012
  121CHL1   C1415156   4.347   4.259   3.709 -0.8037 -0.1341 -0.4724
  121CHL1   H1415157   4.458   4.253   3.719 -0.5573  1.4586 -1.8547
  121CHL1   C1515158   4.269   4.152   3.790  0.3390 -0.0327  0.2872
  121CHL1  H15A15159   4.166   4.124   3.760 -0.1585  0.0841  1.7684
  121CHL1  H15B15160   4.320   4.054   3.774 -0.1955 -0.0761 -1.2874
  121CHL1   C1615161   4.255   4.213   3.925 -0.2715  0.4215  0.0046
  121CHL1  H16A15162   4.151   4.248   3.941 -0.5527  0.8776 -2.3777
  121CHL1  H16B15163   4.297   4.145   4.002 -1.6069 -0.7625 -0.2688
  121CHL1   C1715164   4.327   4.349   3.927 -0.4326 -1.0543 -0.2430
  121CHL1   H1715165   4.435   4.336   3.950 -0.9685 -3.4679  1.2551
  121CHL1   C1315166   4.321   4.392   3.781 -0.0821  0.0596 -0.0111
  121CHL1   C1815167   4.176   4.448   3.746 -0.6164  0.3786  0.1742
  121CHL1  H18A15168   4.166   4.465   3.637 -0.3024  0.1253  0.1062
  121CHL1  H18B15169   4.098   4.372   3.769  0.8626 -0.9798  0.8691
  121CHL1  H18C15170   4.164   4.546   3.797 -0.1605  1.2210 -1.2851
  121CHL1   C1215171   4.420   4.493   3.727 -0.0388 -0.4481 -0.4305
  121CHL1  H12A15172   4.394   4.586   3.783  0.8910 -1.0787  1.1121
  121CHL1  H12B15173   4.520   4.460   3.763 -0.3760 -1.1752 -0.1436
  121CHL1   C1115174   4.418   4.503   3.577  0.0666 -1.1799 -0.2579
  121CHL1  H11A15175   4.336   4.571   3.547  0.2984 -1.2573 -1.0670
  121CHL1  H11B15176   4.512   4.555   3.549  0.9547 -2.0244  0.9829
  121CHL1    C915177   4.429   4.363   3.500 -0.3806  0.3869 -0.1974
  121CHL1    H915178   4.529   4.320   3.521 -2.4353 -3.5042  3.0215
  121CHL1   C1015179   4.407   4.371   3.343 -1.0681 -0.2815 -0.7179
  121CHL1   C1915180   4.300   4.479   3.305 -0.6887  0.0620 -0.2113
  121CHL1  H19A15181   4.207   4.470   3.365  0.4328 -0.4140  1.5312
  121CHL1  H19B15182   4.342   4.577   3.335  2.1467 -1.3180  0.6588
  121CHL1  H19C15183   4.276   4.483   3.196  1.3385  1.0296 -0.6717
  121CHL1    C115184   4.549   4.416   3.279  0.3569 -0.6230 -0.4746
  121CHL1   H1A15185   4.558   4.522   3.314 -2.1456 -0.6699  0.5296
  121CHL1   H1B15186   4.634   4.354   3.315  1.1613  1.1972  0.9546
  121CHL1    C215187   4.557   4.419   3.123 -0.5730  0.1745 -0.2709
  121CHL1   H2A15188   4.653   4.459   3.084 -1.6828  2.7476 -0.6145
  121CHL1   H2B15189   4.474   4.480   3.081  0.2159  1.7825  0.3872
  121CHL1   C2015190   4.277   4.444   4.038 -0.3173  0.4694 -0.1389
  121CHL1   H2015191   4.168   4.466   4.033 -0.1626  0.9971 -1.6878
  121CHL1   C2115192   4.345   4.582   4.039  0.2082  0.5975 -0.3333
  121CHL1  H21A15193   4.450   4.570   4.007 -0.4903  0.1794 -2.7075
  121CHL1  H21B15194   4.338   4.626   4.140 -0.9472  2.1334 -1.0439
  121CHL1  H21C15195   4.291   4.646   3.966 -0.9411  0.2646  0.1993
  121CHL1   C2215196   4.312   4.381   4.177  0.1174  0.1690 -0.6212
  121CHL1  H22A15197   4.285   4.273   4.178 -0.1295  0.1251 -3.5134
  121CHL1  H22B15198   4.418   4.399   4.204 -0.9096  1.4482  3.1253
  121CHL1   C2315199   4.260   4.449   4.304  0.5784 -0.2267 -0.0907
  121CHL1  H23A15200   4.283   4.388   4.395  1.6438 -0.1228 -0.2742
  121CHL1  H23B15201   4.307   4.545   4.334 -3.0435  1.4748  0.7164
  121CHL1   C2415202   4.109   4.475   4.308 -0.2846 -0.3309  0.7276
  121CHL1  H24A15203   4.099   4.570   4.251  0.9414 -0.7228 -0.1939
  121CHL1  H24B15204   4.053   4.399   4.249 -0.6562  0.7229 -0.3355
  121CHL1   C2515205   4.057   4.510   4.447 -0.3955 -0.7859  0.2396
  121CHL1   H2515206   4.092   4.434   4.520 -0.4786 -1.6253 -0.5794
  121CHL1   C2615207   4.110   4.645   4.511  0.4388 -0.5776  0.2304
  121CHL1  H26A15208   4.082   4.742   4.464 -2.1038 -1.4576 -0.1923
  121CHL1  H26B15209   4.054   4.655   4.606  1.1163  1.3847  0.4822
  121CHL1  H26C15210   4.218   4.640   4.537  0.3053  0.0638  0.9630
  121CHL1   C2715211   3.907   4.503   4.451 -0.1355 -0.3531 -0.3258
  121CHL1  H27A15212   3.879   4.400   4.420  1.4565 -0.5816 -1.1010
  121CHL1  H27B15213   3.873   4.521   4.555  1.1983 -0.9458  0.2231
  121CHL1  H27C15214   3.861   4.578   4.384  0.8979  0.0135 -0.6393
  122CHL1    C315215   2.687   4.176   3.450  0.4001  0.9076 -0.0729
  122CHL1    H315216   2.677   4.286   3.435  0.8840  1.0979  0.9021
  122CHL1    O315217   2.663   4.101   3.339 -0.1031 -0.0751 -0.4483
  122CHL1   H3'15218   2.719   4.140   3.271 -0.5556 -0.6111 -1.1462
  122CHL1    C415219   2.832   4.152   3.485  0.0447 -0.2492  0.3188
  122CHL1   H4A15220   2.843   4.041   3.482  0.5764 -0.1866 -0.1974
  122CHL1   H4B15221   2.895   4.190   3.402 -1.7987 -1.4778 -1.7638
  122CHL1    C515222   2.868   4.209   3.623 -0.2420  0.7086  0.6657
  122CHL1    C615223   2.969   4.295   3.633  0.1509 -0.3635 -0.5642
  122CHL1    H615224   3.031   4.318   3.545 -0.3946  0.6367 -0.7064
  122CHL1    C715225   3.023   4.342   3.761  0.2877  0.2008 -0.0780
  122CHL1   H7A15226   3.133   4.322   3.763 -0.1887 -3.2096 -1.2706
  122CHL1   H7B15227   3.006   4.451   3.773 -0.1128  0.1204  0.0685
  122CHL1    C815228   2.965   4.270   3.883  0.0814 -0.1558 -0.1514
  122CHL1    H815229   3.018   4.172   3.889  1.6632  0.7428  1.2585
  122CHL1   C1415230   3.006   4.346   4.009 -0.4293 -0.7423  0.0237
  122CHL1   H1415231   2.968   4.450   4.004 -1.8137 -1.2918 -1.8600
  122CHL1   C1515232   3.151   4.375   4.037 -0.2041 -0.1826 -0.1386
  122CHL1  H15A15233   3.215   4.286   4.015 -0.4197 -0.2013 -0.7183
  122CHL1  H15B15234   3.183   4.458   3.970  2.3793 -0.2089  0.9711
  122CHL1   C1615235   3.156   4.413   4.184  0.0543 -0.6985 -0.2667
  122CHL1  H16A15236   3.245   4.369   4.232 -0.0227 -3.3866 -2.3507
  122CHL1  H16B15237   3.169   4.524   4.185  0.5381 -0.7512 -0.5126
  122CHL1   C1715238   3.015   4.371   4.241 -0.4135 -0.4953  0.1284
  122CHL1   H1715239   2.954   4.464   4.237 -0.7414 -0.7353 -0.5291
  122CHL1   C1315240   2.954   4.277   4.132  0.4565 -0.7400 -0.0412
  122CHL1   C1815241   3.028   4.139   4.151 -0.1092 -0.6611  0.7364
  122CHL1  H18A15242   3.013   4.069   4.065 -1.1955  0.3829  0.0522
  122CHL1  H18B15243   3.136   4.150   4.178 -0.6592  0.1179  2.7702
  122CHL1  H18C15244   2.981   4.077   4.230 -2.3846  1.5451  1.2298
  122CHL1   C1215245   2.803   4.264   4.125 -0.2714 -1.2129  0.3373
  122CHL1  H12A15246   2.761   4.218   4.217 -2.4453 -1.1484 -0.5576
  122CHL1  H12B15247   2.769   4.370   4.117  1.9609 -0.4195  0.6135
  122CHL1   C1115248   2.750   4.196   3.997 -0.6359 -0.2217 -0.5221
  122CHL1  H11A15249   2.779   4.091   4.016  1.6316  0.2988 -0.7154
  122CHL1  H11B15250   2.639   4.201   3.999 -0.5929  1.0951  0.4906
  122CHL1    C915251   2.817   4.249   3.865  0.7813 -0.2003 -0.6785
  122CHL1    H915252   2.770   4.349   3.850  0.4359 -0.4073 -1.0027
  122CHL1   C1015253   2.782   4.162   3.739 -0.5666  0.2787  0.0804
  122CHL1   C1915254   2.809   4.010   3.756  0.3056 -0.6788  0.3292
  122CHL1  H19A15255   2.916   3.997   3.784  0.1124 -2.6787  0.3314
  122CHL1  H19B15256   2.742   3.975   3.837  0.8285  1.2597  1.6678
  122CHL1  H19C15257   2.798   3.958   3.658  0.5328 -0.9364  0.4405
  122CHL1    C115258   2.637   4.191   3.696  0.1120 -0.4106  1.0985
  122CHL1   H1A15259   2.568   4.156   3.776 -1.0340  3.3511  1.9816
  122CHL1   H1B15260   2.625   4.302   3.691 -1.0755 -0.5662  0.2371
  122CHL1    C215261   2.589   4.131   3.557 -0.5816 -0.9964  0.4932
  122CHL1   H2A15262   2.485   4.161   3.535 -0.4299 -1.5056 -1.0491
  122CHL1   H2B15263   2.591   4.021   3.569  1.1963 -1.6428 -3.7692
  122CHL1   C2015264   3.007   4.316   4.378 -0.9925 -0.3073 -0.1293
  122CHL1   H2015265   2.934   4.232   4.376  0.8447 -2.1480  2.5809
  122CHL1   C2115266   2.949   4.427   4.464 -0.4576  0.5841 -0.9028
  122CHL1  H21A15267   3.019   4.513   4.466 -0.0102  0.2620  2.3401
  122CHL1  H21B15268   2.939   4.402   4.572 -0.0985  3.5506 -0.1055
  122CHL1  H21C15269   2.849   4.453   4.425 -0.5406  1.1832 -0.3043
  122CHL1   C2215270   3.139   4.255   4.443  0.7480  0.1936 -0.4136
  122CHL1  H22A15271   3.191   4.190   4.370  1.0367 -1.3381  1.0863
  122CHL1  H22B15272   3.202   4.342   4.470  0.4041  0.3470 -0.0870
  122CHL1   C2315273   3.102   4.171   4.563 -0.1184  0.0729 -0.6864
  122CHL1  H23A15274   3.041   4.232   4.633 -2.0268 -0.9793 -1.3559
  122CHL1  H23B15275   3.047   4.085   4.519  1.7853  0.2210 -3.5922
  122CHL1   C2415276   3.224   4.099   4.637  0.4968  0.1397  0.3631
  122CHL1  H24A15277   3.265   4.031   4.559  0.5669 -2.5291  2.5858
  122CHL1  H24B15278   3.296   4.178   4.667  0.7708 -0.0460  0.1923
  122CHL1   C2515279   3.187   4.014   4.757  0.0445  0.3460 -1.0755
  122CHL1   H2515280   3.101   3.950   4.728  1.1424 -1.7559  0.0534
  122CHL1   C2615281   3.305   3.923   4.795 -0.2742  0.1780 -0.1074
  122CHL1  H26A15282   3.323   3.847   4.717  2.8899 -0.2374  0.8604
  122CHL1  H26B15283   3.400   3.979   4.814  0.2210 -0.7396  0.1634
  122CHL1  H26C15284   3.279   3.866   4.887 -0.2272 -3.8292 -2.3497
  122CHL1   C2715285   3.147   4.097   4.881  0.1290  0.0927  0.6024
  122CHL1  H27A15286   3.051   4.147   4.859  1.2315  1.4340 -1.4332
  122CHL1  H27B15287   3.122   4.036   4.971 -1.4151 -1.0276 -0.5521
  122CHL1  H27C15288   3.223   4.174   4.908 -0.5581  0.7351  0.7391
  123CHL1    C315289   4.744   3.685   3.225  0.4760  0.1262  0.0645
  123CHL1    H315290   4.780   3.612   3.301 -1.0588 -0.3274  0.4105
  123CHL1    O315291   4.702   3.608   3.114  0.1935  0.4770  0.0829
  123CHL1   H3'15292   4.617   3.647   3.092  0.9787  1.2484 -1.8141
  123CHL1    C415293   4.618   3.751   3.295 -0.5073 -0.0946  0.6154
  123CHL1   H4A15294   4.576   3.826   3.225  1.1012 -0.1667 -0.4624
  123CHL1   H4B15295   4.543   3.672   3.315  0.5498 -0.8866  1.6056
  123CHL1    C515296   4.662   3.826   3.419  0.4019 -0.1055 -0.3357
  123CHL1    C615297   4.612   3.803   3.542 -0.2940 -0.4198 -0.0484
  123CHL1    H615298   4.551   3.712   3.552  1.0176 -1.4520 -1.0781
  123CHL1    C715299   4.644   3.882   3.664  0.1214  0.3835 -0.3616
  123CHL1   H7A15300   4.551   3.919   3.711 -1.0725 -0.5498 -1.8686
  123CHL1   H7B15301   4.696   3.820   3.740 -0.0508 -0.9222 -1.2822
  123CHL1    C815302   4.727   4.007   3.634  0.0606  0.2226  0.4555
  123CHL1    H815303   4.662   4.089   3.598  1.1532  0.7898 -0.2995
  123CHL1   C1415304   4.797   4.049   3.762 -0.0194  0.4301 -0.9743
  123CHL1   H1415305   4.868   3.968   3.789  0.2928  1.1181  0.4110
  123CHL1   C1515306   4.709   4.061   3.893 -0.0905 -0.4734 -0.5499
  123CHL1  H15A15307   4.623   4.126   3.865 -0.4952 -0.5652  0.4339
  123CHL1  H15B15308   4.674   3.962   3.930 -2.8044  0.0533 -1.4324
  123CHL1   C1615309   4.797   4.145   3.984 -0.1191 -0.1199  0.3555
  123CHL1  H16A15310   4.746   4.239   4.015  0.6907  0.2763  0.4908
  123CHL1  H16B15311   4.825   4.080   4.070  0.6335  1.1118  1.0653
  123CHL1   C1715312   4.921   4.190   3.896  0.1654  0.2320  0.7182
  123CHL1   H1715313   4.998   4.113   3.920  0.6647  0.4069 -0.2762
  123CHL1   C1315314   4.881   4.176   3.749 -0.1064  0.2237 -0.9917
  123CHL1   C1815315   4.787   4.295   3.711  0.0187 -0.9362  0.1679
  123CHL1  H18A15316   4.757   4.279   3.606  2.9656 -0.2977 -0.8608
  123CHL1  H18B15317   4.702   4.300   3.782  0.0008 -1.3097  0.1782
  123CHL1  H18C15318   4.845   4.389   3.718 -0.1755 -0.8495  0.7216
  123CHL1   C1215319   4.986   4.144   3.637 -0.5769  0.6664  0.3941
  123CHL1  H12A15320   5.041   4.235   3.605 -0.7572  0.3839 -0.7770
  123CHL1  H12B15321   5.058   4.071   3.678 -1.0112 -0.0429 -0.0796
  123CHL1   C1115322   4.921   4.099   3.505 -0.4088  0.3633 -0.8762
  123CHL1  H11A15323   4.885   4.191   3.454  0.7236  0.7476 -1.0122
  123CHL1  H11B15324   5.006   4.071   3.439 -0.4885 -1.2567 -0.3304
  123CHL1    C915325   4.827   3.978   3.522 -0.0950 -0.1384  0.2705
  123CHL1    H915326   4.891   3.899   3.567 -0.4245 -0.9699 -0.6753
  123CHL1   C1015327   4.771   3.924   3.385 -0.5839  0.5976  0.7598
  123CHL1   C1915328   4.711   4.037   3.302 -0.3669 -0.2831  0.2652
  123CHL1  H19A15329   4.667   3.993   3.210 -1.1228 -0.8035  0.8725
  123CHL1  H19B15330   4.621   4.078   3.352 -0.7817  0.8114 -1.2949
  123CHL1  H19C15331   4.785   4.114   3.271 -1.7862  0.5699 -1.1924
  123CHL1    C115332   4.889   3.864   3.307 -0.0339  0.2787  0.1165
  123CHL1   H1A15333   4.953   3.949   3.275 -0.2009  0.7297  0.9498
  123CHL1   H1B15334   4.937   3.796   3.381 -1.7176 -2.1495 -0.8818
  123CHL1    C215335   4.853   3.775   3.184 -0.5555  0.4401  0.2332
  123CHL1   H2A15336   4.951   3.723   3.176 -1.1514 -0.8038  0.7779
  123CHL1   H2B15337   4.833   3.834   3.092  1.5612 -2.0027 -1.9733
  123CHL1   C2015338   4.985   4.314   3.949 -0.0629  0.3966  0.6593
  123CHL1   H2015339   4.903   4.385   3.924 -0.3736 -1.0240 -2.9385
  123CHL1   C2115340   5.102   4.368   3.854  0.4968 -0.8878 -0.6278
  123CHL1  H21A15341   5.067   4.407   3.756  0.1400 -0.2220 -0.2473
  123CHL1  H21B15342   5.177   4.288   3.835  0.7318 -0.6124 -0.8747
  123CHL1  H21C15343   5.147   4.460   3.897 -0.3646  0.1134 -1.7877
  123CHL1   C2215344   5.026   4.299   4.097  0.3349 -0.0407  1.0806
  123CHL1  H22A15345   4.952   4.241   4.155  0.1071  0.9100  1.7723
  123CHL1  H22B15346   5.122   4.244   4.107  0.3186 -0.3310 -0.1816
  123CHL1   C2315347   5.033   4.435   4.172 -0.1746 -0.0970  0.0930
  123CHL1  H23A15348   5.087   4.506   4.105  0.5107  0.3426  1.0833
  123CHL1  H23B15349   4.930   4.467   4.198  0.2661  1.0387  0.5400
  123CHL1   C2415350   5.121   4.418   4.305  0.0805 -0.1092  1.0055
  123CHL1  H24A15351   5.090   4.319   4.345 -2.1883  0.3512  0.5218
  123CHL1  H24B15352   5.228   4.409   4.277 -0.6905  1.9987 -3.6291
  123CHL1   C2515353   5.088   4.534   4.406  0.3162  0.8386  0.8578
  123CHL1   H2515354   4.979   4.537   4.426 -0.0864 -2.2169 -0.3262
  123CHL1   C2615355   5.145   4.502   4.543 -0.3641  0.0774 -0.5447
  123CHL1  H26A15356   5.106   4.568   4.625 -2.5305 -3.3946  1.4727
  123CHL1  H26B15357   5.114   4.401   4.577  1.5821 -1.4086 -2.8892
  123CHL1  H26C15358   5.255   4.490   4.536 -0.1405  0.6480  1.2829
  123CHL1   C2715359   5.134   4.668   4.348  0.2595  0.0133 -0.5990
  123CHL1  H27A15360   5.235   4.652   4.303 -0.3047  0.7015 -2.1843
  123CHL1  H27B15361   5.070   4.706   4.266 -1.3767 -2.3005 -0.4678
  123CHL1  H27C15362   5.145   4.743   4.428 -1.2683 -1.1427  0.7607
  124CHL1    C315363   4.341   5.230   3.135  0.5990 -0.3273  0.0454
  124CHL1    H315364   4.440   5.198   3.175  0.7923  1.5943  1.2296
  124CHL1    O315365   4.307   5.159   3.009 -0.0947  0.1391  0.0385
  124CHL1   H3'15366   4.275   5.072   3.034  0.0007  0.6560  2.1603
  124CHL1    C415367   4.232   5.209   3.243 -0.5871 -0.1012 -0.2523
  124CHL1   H4A15368   4.134   5.240   3.202 -0.9792 -1.2402 -0.2189
  124CHL1   H4B15369   4.217   5.100   3.261  0.7458 -0.3598 -0.6033
  124CHL1    C515370   4.258   5.286   3.371 -0.7590 -0.4984  0.2328
  124CHL1    C615371   4.259   5.228   3.496 -0.4974  0.5553  0.6004
  124CHL1    H615372   4.229   5.122   3.496 -1.7163  0.8795  0.5673
  124CHL1    C715373   4.293   5.293   3.619  0.0960  0.1961 -0.6406
  124CHL1   H7A15374   4.211   5.273   3.691  2.2205 -2.0652  1.3197
  124CHL1   H7B15375   4.377   5.242   3.670 -0.8906 -3.7532 -2.5474
  124CHL1    C815376   4.306   5.441   3.602 -0.0965 -0.0788 -0.9603
  124CHL1    H815377   4.205   5.487   3.603 -0.0899  0.0740  1.9498
  124CHL1   C1415378   4.392   5.500   3.718  0.3648 -0.5757 -0.1951
  124CHL1   H1415379   4.491   5.451   3.706  0.1312 -0.8113 -1.3214
  124CHL1   C1515380   4.347   5.473   3.865 -0.4137 -0.4444 -0.1784
  124CHL1  H15A15381   4.238   5.495   3.871 -0.3572  1.1799 -3.0697
  124CHL1  H15B15382   4.367   5.367   3.893  0.7595  0.3040  2.0608
  124CHL1   C1615383   4.439   5.561   3.950 -0.2770 -0.0957 -0.9627
  124CHL1  H16A15384   4.387   5.623   4.026  0.5174  0.3770 -0.7925
  124CHL1  H16B15385   4.526   5.509   3.994 -0.7321 -1.3965 -1.5512
  124CHL1   C1715386   4.505   5.659   3.847 -0.0706 -0.0673  0.5181
  124CHL1   H1715387   4.598   5.611   3.811 -0.3346  0.0900 -0.3907
  124CHL1   C1315388   4.422   5.653   3.720  0.2492  0.7469 -0.0743
  124CHL1   C1815389   4.286   5.723   3.739 -0.2615 -0.6589 -0.5924
  124CHL1  H18A15390   4.204   5.684   3.675 -1.7996 -1.2417  1.5811
  124CHL1  H18B15391   4.246   5.727   3.843  1.2474  0.9666 -0.0233
  124CHL1  H18C15392   4.301   5.832   3.726  0.2208 -0.5211  0.9352
  124CHL1   C1215393   4.493   5.690   3.596 -0.1730  0.0291  0.3114
  124CHL1  H12A15394   4.501   5.800   3.584 -2.1741  0.3613  1.5598
  124CHL1  H12B15395   4.591   5.638   3.598 -0.1280  0.0242  4.1924
  124CHL1   C1115396   4.403   5.634   3.476 -0.6939 -0.1766  0.2780
  124CHL1  H11A15397   4.305   5.684   3.464  0.1628  1.1381 -1.8409
  124CHL1  H11B15398   4.459   5.664   3.385  0.3638 -0.0175  0.9636
  124CHL1    C915399   4.376   5.481   3.474 -0.0405  0.4869 -0.4954
  124CHL1    H915400   4.473   5.429   3.485 -1.2403 -3.0059 -3.9394
  124CHL1   C1015401   4.302   5.429   3.345 -0.1523 -0.2251  0.5245
  124CHL1   C1915402   4.170   5.504   3.309 -0.2031 -0.5276 -0.6637
  124CHL1  H19A15403   4.102   5.506   3.396 -0.9668 -1.3508 -1.2254
  124CHL1  H19B15404   4.188   5.611   3.285  0.3038 -0.3417  0.4909
  124CHL1  H19C15405   4.116   5.450   3.228  0.7098 -1.2729 -0.8011
  124CHL1    C115406   4.405   5.440   3.230  0.7014  0.2704 -0.4690
  124CHL1   H1A15407   4.430   5.545   3.201  1.0172  0.5948  0.9141
  124CHL1   H1B15408   4.496   5.395   3.275 -1.3181  0.6031  4.6142
  124CHL1    C215409   4.352   5.371   3.099 -0.4053  0.2434 -0.6180
  124CHL1   H2A15410   4.430   5.385   3.021  1.6382 -0.1817  1.2314
  124CHL1   H2B15411   4.262   5.423   3.059 -0.1512  1.0165 -0.2014
  124CHL1   C2015412   4.544   5.798   3.895 -0.1357 -0.5836  0.0568
  124CHL1   H2015413   4.459   5.868   3.880  2.2015  2.2236 -1.0892
  124CHL1   C2115414   4.660   5.855   3.814 -0.2422 -0.8297 -0.0697
  124CHL1  H21A15415   4.722   5.772   3.773 -0.1684  0.1716 -2.1387
  124CHL1  H21B15416   4.732   5.914   3.875  0.0048 -1.6137  0.4088
  124CHL1  H21C15417   4.624   5.910   3.724 -0.9268 -2.0991 -0.5936
  124CHL1   C2215418   4.591   5.806   4.042 -0.5230 -0.4737 -0.9525
  124CHL1  H22A15419   4.618   5.911   4.067  1.0409 -1.0999  0.1321
  124CHL1  H22B15420   4.509   5.766   4.106 -0.5260  1.0772  0.0771
  124CHL1   C2315421   4.716   5.722   4.084  0.3175 -0.6929 -0.2745
  124CHL1  H23A15422   4.688   5.622   4.045  0.6178 -0.3596 -1.3834
  124CHL1  H23B15423   4.813   5.758   4.042  0.5800 -1.1866 -0.0994
  124CHL1   C2415424   4.741   5.723   4.238 -0.7727 -0.0730  0.7513
  124CHL1  H24A15425   4.727   5.826   4.278 -3.5661  0.2338 -0.7461
  124CHL1  H24B15426   4.662   5.658   4.282 -0.8154 -1.7470 -1.5695
  124CHL1   C2515427   4.890   5.670   4.261 -0.3383  0.9035 -0.2065
  124CHL1   H2515428   4.968   5.730   4.211  0.8025  0.5852  1.1304
  124CHL1   C2615429   4.922   5.673   4.405  0.1432  0.5770 -0.2237
  124CHL1  H26A15430   5.025   5.639   4.431 -0.5983 -1.1633  0.5918
  124CHL1  H26B15431   4.923   5.781   4.431  0.7966  0.4980  0.1166
  124CHL1  H26C15432   4.863   5.609   4.474  0.4220  0.1394 -0.3934
  124CHL1   C2715433   4.912   5.527   4.208 -0.3033 -1.1874  0.4273
  124CHL1  H27A15434   5.017   5.495   4.226  1.2257  3.0477  0.3105
  124CHL1  H27B15435   4.836   5.452   4.238  0.1915 -1.3614  1.2816
  124CHL1  H27C15436   4.913   5.532   4.097  3.9102 -1.0524  0.3348
  125CHL1    C315437   4.959   5.150   3.038 -0.2540  0.0444 -0.7407
  125CHL1    H315438   4.871   5.082   3.031  0.8428 -1.4162 -0.6525
  125CHL1    O315439   5.015   5.179   2.911 -0.2757 -0.8467 -0.2581
  125CHL1   H3'15440   5.076   5.250   2.934  0.0498 -1.4276  0.7315
  125CHL1    C415441   4.923   5.282   3.113 -0.4206  0.3431 -1.0067
  125CHL1   H4A15442   5.000   5.361   3.102  0.4877 -0.3526  0.0856
  125CHL1   H4B15443   4.838   5.312   3.048  0.4309 -1.7452 -3.2395
  125CHL1    C515444   4.885   5.252   3.261 -0.4223  0.7553 -0.1206
  125CHL1    C615445   4.774   5.297   3.316 -0.0214  0.0488  0.4992
  125CHL1    H615446   4.699   5.351   3.256 -0.8887 -0.9958  0.6076
  125CHL1    C715447   4.745   5.278   3.460 -0.2755 -0.4801  0.3780
  125CHL1   H7A15448   4.698   5.368   3.503  0.6212  0.2474 -0.1239
  125CHL1   H7B15449   4.675   5.193   3.475  0.1179 -0.6401  1.3709
  125CHL1    C815450   4.868   5.250   3.546 -0.2147 -0.2072  0.0134
  125CHL1    H815451   4.927   5.344   3.542 -0.6559  0.0571 -0.5590
  125CHL1   C1415452   4.817   5.209   3.687  0.2912  0.0798 -0.1321
  125CHL1   H1415453   4.770   5.110   3.668 -1.8112  0.9554  0.1331
  125CHL1   C1515454   4.709   5.286   3.764 -0.2500  0.5326 -0.0785
  125CHL1  H15A15455   4.747   5.389   3.744 -0.3149  0.1507 -2.5679
  125CHL1  H15B15456   4.604   5.280   3.729 -0.1427 -0.3518 -0.2745
  125CHL1   C1615457   4.747   5.254   3.912 -0.0535  0.2711  0.2881
  125CHL1  H16A15458   4.791   5.346   3.956  2.6950 -0.5813 -0.5070
  125CHL1  H16B15459   4.649   5.222   3.955 -1.4045 -0.0076 -2.7265
  125CHL1   C1715460   4.856   5.146   3.911 -0.1418 -0.8652  0.1203
  125CHL1   H1715461   4.799   5.051   3.904 -0.8432 -0.3984 -0.6105
  125CHL1   C1315462   4.932   5.178   3.782  0.1431  0.5626  0.0887
  125CHL1   C1815463   5.022   5.301   3.805  0.4127 -0.4780  0.3919
  125CHL1  H18A15464   5.113   5.268   3.859  0.0195 -0.6612  0.9509
  125CHL1  H18B15465   5.050   5.341   3.705 -0.6360 -2.6040 -0.8191
  125CHL1  H18C15466   4.972   5.386   3.857 -0.3340 -0.7256  0.0844
  125CHL1   C1215467   5.014   5.058   3.723 -0.1127  0.1677  0.6925
  125CHL1  H12A15468   5.108   5.055   3.784  1.5534 -0.4622 -1.7515
  125CHL1  H12B15469   4.961   4.962   3.742 -2.1390  1.4109  1.6591
  125CHL1   C1115470   5.058   5.079   3.576  0.5432  0.3708 -0.1681
  125CHL1  H11A15471   5.151   5.140   3.582 -0.5196  1.8978  2.2640
  125CHL1  H11B15472   5.093   4.979   3.544  1.1043 -1.0252  4.0911
  125CHL1    C915473   4.951   5.137   3.487  0.2556  0.2788  0.1990
  125CHL1    H915474   4.886   5.050   3.463 -0.2561  0.5725  0.5132
  125CHL1   C1015475   4.997   5.173   3.340  0.0655 -0.4553  0.4008
  125CHL1   C1915476   5.129   5.266   3.349 -0.1279 -0.6671  0.2676
  125CHL1  H19A15477   5.148   5.308   3.248 -2.3113  0.8873  0.4316
  125CHL1  H19B15478   5.119   5.352   3.418  1.2037 -1.7592  1.8848
  125CHL1  H19C15479   5.214   5.201   3.377 -0.0323 -0.4969  0.3737
  125CHL1    C115480   5.037   5.045   3.251  0.0396  0.0024 -0.8210
  125CHL1   H1A15481   5.128   4.996   3.293  1.0430  0.9382 -1.8168
  125CHL1   H1B15482   4.959   4.966   3.241 -0.9693  0.4554  2.3569
  125CHL1    C215483   5.074   5.077   3.110 -0.6458  0.5999 -0.6254
  125CHL1   H2A15484   5.092   4.974   3.071 -0.3349  0.2140  0.4980
  125CHL1   H2B15485   5.166   5.137   3.097 -1.5140  1.9511 -0.7620
  125CHL1   C2015486   4.935   5.136   4.049  0.4799 -1.0948  0.4415
  125CHL1   H2015487   4.983   5.236   4.060 -0.6318 -0.4422 -0.4156
  125CHL1   C2115488   5.045   5.033   4.050  0.4162 -0.5154  0.4005
  125CHL1  H21A15489   5.127   5.079   3.992 -0.6399  1.2691  0.2415
  125CHL1  H21B15490   5.011   4.934   4.014 -1.3611  0.5503 -0.9898
  125CHL1  H21C15491   5.086   5.040   4.153  0.6479  1.3771  0.2190
  125CHL1   C2215492   4.832   5.109   4.160 -0.3995  0.1600  0.2830
  125CHL1  H22A15493   4.741   5.171   4.144  0.0388  1.5652  2.6292
  125CHL1  H22B15494   4.819   5.000   4.143  0.1868  0.3753 -1.7371
  125CHL1   C2315495   4.897   5.119   4.295  0.1798 -0.6646 -0.3899
  125CHL1  H23A15496   4.937   5.019   4.322 -0.9606 -0.6927  1.3786
  125CHL1  H23B15497   4.973   5.200   4.289 -1.1574  0.7051  0.4304
  125CHL1   C2415498   4.784   5.160   4.398  0.3069  0.3220  0.7495
  125CHL1  H24A15499   4.744   5.257   4.362  1.8330  0.0660 -1.9404
  125CHL1  H24B15500   4.703   5.086   4.387  0.9743 -0.2700 -0.4033
  125CHL1   C2515501   4.820   5.178   4.549 -0.4301  0.6952 -0.6019
  125CHL1   H2515502   4.858   5.081   4.586 -3.1767 -0.7710 -1.3671
  125CHL1   C2615503   4.936   5.282   4.554  0.0433  0.2763 -0.6370
  125CHL1  H26A15504   5.019   5.239   4.495 -0.2842  0.5672 -1.3219
  125CHL1  H26B15505   4.911   5.375   4.498  0.1589  1.7014  1.5792
  125CHL1  H26C15506   4.961   5.296   4.661 -0.7348  2.9122 -0.7290
  125CHL1   C2715507   4.694   5.209   4.625  0.5464  0.4621  1.1489
  125CHL1  H27A15508   4.623   5.124   4.616  1.3902  0.0021 -3.4818
  125CHL1  H27B15509   4.719   5.234   4.731  0.4622  1.8827  0.8429
  125CHL1  H27C15510   4.667   5.312   4.595  0.5286 -0.0043 -0.4860
  126CHL1    C315511   2.877   5.600   2.869  0.2425 -0.2092 -0.5160
  126CHL1    H315512   2.766   5.607   2.866  0.2294  0.5253  0.9865
  126CHL1    O315513   2.934   5.565   2.742  0.0031  0.1996 -0.4265
  126CHL1   H3'15514   2.873   5.583   2.670  0.8492 -0.6494 -1.3762
  126CHL1    C415515   2.940   5.717   2.930 -0.2855  0.1304 -0.6061
  126CHL1   H4A15516   3.048   5.698   2.913 -0.7978 -2.9782 -0.9881
  126CHL1   H4B15517   2.912   5.796   2.858 -0.7878 -0.5803 -1.2158
  126CHL1    C515518   2.904   5.752   3.074  0.1518  0.4975 -0.7054
  126CHL1    C615519   2.848   5.869   3.111 -0.1508  0.3240  0.3931
  126CHL1    H615520   2.832   5.948   3.035 -0.1083  0.5204  0.5893
  126CHL1    C715521   2.841   5.910   3.256  0.1738 -0.1084  1.1061
  126CHL1   H7A15522   2.908   5.999   3.256  1.9899 -1.2834 -2.1949
  126CHL1   H7B15523   2.737   5.946   3.272  0.8242  2.2604  0.4029
  126CHL1    C815524   2.905   5.815   3.355  0.3916 -0.2100  0.4268
  126CHL1    H815525   3.014   5.837   3.349 -0.1966  2.9724 -0.4236
  126CHL1   C1415526   2.851   5.839   3.500 -0.0090 -0.6335  0.4969
  126CHL1   H1415527   2.742   5.819   3.495  0.0375 -0.7313 -0.1343
  126CHL1   C1515528   2.852   5.984   3.551 -0.9855  0.3383  0.4022
  126CHL1  H15A15529   2.947   6.038   3.532 -0.8269 -0.8157 -2.7077
  126CHL1  H15B15530   2.764   6.039   3.512 -0.3474  0.3755 -1.0680
  126CHL1   C1615531   2.849   5.966   3.699  0.0577  0.2628  0.5065
  126CHL1  H16A15532   2.941   6.015   3.736  1.6720 -0.4163 -2.3382
  126CHL1  H16B15533   2.767   6.021   3.750  0.2655  0.0830  1.0433
  126CHL1   C1715534   2.851   5.817   3.736 -0.3507 -0.1529  0.2904
  126CHL1   H1715535   2.743   5.794   3.744 -0.9574  2.7434  1.9373
  126CHL1   C1315536   2.912   5.750   3.614  0.0592  0.5000 -0.0438
  126CHL1   C1815537   3.067   5.769   3.617  0.2297  0.1945 -0.1604
  126CHL1  H18A15538   3.110   5.717   3.528 -1.3612 -0.7038 -0.4480
  126CHL1  H18B15539   3.100   5.875   3.621  1.5460 -0.2350  0.9577
  126CHL1  H18C15540   3.107   5.708   3.701 -1.6109 -1.5669 -0.4759
  126CHL1   C1215541   2.866   5.602   3.571 -0.2372 -0.1603  0.3028
  126CHL1  H12A15542   2.912   5.523   3.634  0.9721  1.7818  2.0021
  126CHL1  H12B15543   2.758   5.583   3.590 -0.1284 -0.7820  0.3021
  126CHL1   C1115544   2.915   5.566   3.430  0.2044 -0.2467  0.4973
  126CHL1  H11A15545   3.023   5.540   3.436  0.1236 -0.5229  0.7467
  126CHL1  H11B15546   2.864   5.471   3.401 -0.2183  0.0866  0.1208
  126CHL1    C915547   2.882   5.670   3.315  0.6222  1.1403  0.0959
  126CHL1    H915548   2.772   5.658   3.306  0.8978  0.1064 -3.3161
  126CHL1   C1015549   2.934   5.633   3.170 -0.4368  0.5451  0.5117
  126CHL1   C1915550   3.083   5.622   3.178  0.2385 -0.0726 -0.3694
  126CHL1  H19A15551   3.137   5.585   3.088 -0.0366 -1.5753  0.0423
  126CHL1  H19B15552   3.134   5.704   3.232  3.2462 -1.7532 -0.4851
  126CHL1  H19C15553   3.108   5.539   3.248 -1.3642 -0.0744  0.2413
  126CHL1    C115554   2.866   5.507   3.116  0.2387  0.7114 -0.0666
  126CHL1   H1A15555   2.894   5.419   3.178 -0.1562 -0.1585 -1.0949
  126CHL1   H1B15556   2.756   5.521   3.123  0.0906 -0.5186  0.2210
  126CHL1    C215557   2.908   5.477   2.968  0.3974 -0.7615 -0.6149
  126CHL1   H2A15558   2.855   5.382   2.943 -1.0085  0.0389 -0.7720
  126CHL1   H2B15559   3.015   5.449   2.972  0.7841  0.7688  0.8884
  126CHL1   C2015560   2.910   5.797   3.875 -0.4539  0.2317  0.5706
  126CHL1   H2015561   3.016   5.828   3.884 -0.6297  0.4376  2.2559
  126CHL1   C2115562   2.907   5.643   3.903  0.1452 -0.8451  0.3500
  126CHL1  H21A15563   2.802   5.608   3.902 -0.5338  1.0492 -0.4953
  126CHL1  H21B15564   2.956   5.619   4.000 -1.5343 -2.3493  0.8626
  126CHL1  H21C15565   2.973   5.585   3.834 -0.2783  1.4518 -2.1739
  126CHL1   C2215566   2.815   5.870   3.978  0.0174  0.5363  0.1980
  126CHL1  H22A15567   2.814   5.975   3.944  1.1715 -0.2754 -2.6824
  126CHL1  H22B15568   2.711   5.832   3.964 -0.1244  1.0548 -0.2001
  126CHL1   C2315569   2.872   5.863   4.123  0.1421 -0.1004 -0.4474
  126CHL1  H23A15570   2.848   5.766   4.172  0.5257  0.6227  1.2807
  126CHL1  H23B15571   2.981   5.880   4.115  0.3766 -1.2659  0.1132
  126CHL1   C2415572   2.799   5.974   4.208  0.4966 -0.1189  0.5374
  126CHL1  H24A15573   2.821   6.067   4.151 -2.7174 -0.3462 -1.3395
  126CHL1  H24B15574   2.690   5.954   4.208  0.1833  1.4449 -0.0222
  126CHL1   C2515575   2.848   5.992   4.348  0.6631  0.0018 -0.3871
  126CHL1   H2515576   2.824   5.898   4.402 -0.6497  1.1854  1.1766
  126CHL1   C2615577   2.998   6.021   4.362 -0.1755 -0.2829 -0.0901
  126CHL1  H26A15578   3.018   6.113   4.304 -0.9118 -1.0270 -1.5932
  126CHL1  H26B15579   3.028   6.048   4.465  0.8746  0.3390 -0.5495
  126CHL1  H26C15580   3.065   5.936   4.337  1.1450  0.4536  0.8694
  126CHL1   C2715581   2.757   6.097   4.411  0.1812  0.3831  0.4418
  126CHL1  H27A15582   2.652   6.059   4.408  0.5329 -0.7011  1.3513
  126CHL1  H27B15583   2.795   6.131   4.509 -2.7364  3.3538  0.7166
  126CHL1  H27C15584   2.753   6.185   4.343  0.2293 -0.5417 -0.7997
  127CHL1    C315585   3.906   5.958   2.999  1.0419  0.3410  0.7451
  127CHL1    H315586   4.016   5.945   3.003  1.1994  1.8598  3.1814
  127CHL1    O315587   3.869   5.953   2.864  0.1427 -0.5267 -0.5065
  127CHL1   H3'15588   3.775   5.970   2.856  0.1728  0.3043  0.7299
  127CHL1    C415589   3.829   5.844   3.084 -0.4007 -0.2736  0.2035
  127CHL1   H4A15590   3.719   5.840   3.068 -0.0567 -1.6636 -2.3503
  127CHL1   H4B15591   3.873   5.753   3.038  0.3173 -0.5021  1.2970
  127CHL1    C515592   3.864   5.853   3.231  0.1237  0.7730  0.2367
  127CHL1    C615593   3.919   5.743   3.298  0.8618 -0.3181  0.2510
  127CHL1    H615594   3.945   5.648   3.251 -0.3437 -0.0226 -1.1141
  127CHL1    C715595   3.936   5.747   3.449 -0.2293 -0.3435  0.7614
  127CHL1   H7A15596   3.887   5.659   3.493 -1.3812 -0.8120 -1.3229
  127CHL1   H7B15597   4.043   5.764   3.475  0.1729 -0.9883 -0.3991
  127CHL1    C815598   3.859   5.864   3.515 -0.1729 -0.2493  0.2237
  127CHL1    H815599   3.751   5.842   3.504  0.0185 -0.6593 -1.0397
  127CHL1   C1415600   3.901   5.873   3.660 -0.7387  0.2286 -0.1223
  127CHL1   H1415601   4.012   5.883   3.657 -0.4925 -1.0388  2.1621
  127CHL1   C1515602   3.876   5.753   3.747 -0.3088  0.5052  0.4119
  127CHL1  H15A15603   3.768   5.732   3.732 -0.6674  3.0904 -1.0942
  127CHL1  H15B15604   3.940   5.664   3.727  1.1066  1.6434 -0.2993
  127CHL1   C1615605   3.907   5.803   3.887 -0.3111 -0.2010 -0.4050
  127CHL1  H16A15606   3.819   5.795   3.955 -0.4448  1.9442 -0.2553
  127CHL1  H16B15607   3.989   5.738   3.925 -1.4108 -1.0552  0.5945
  127CHL1   C1715608   3.935   5.957   3.877 -0.1430  0.2069 -0.1408
  127CHL1   H1715609   4.044   5.965   3.860 -0.2748 -1.0394 -1.8898
  127CHL1   C1315610   3.861   5.994   3.740 -0.5039 -0.7080 -1.0297
  127CHL1   C1815611   3.706   5.992   3.758  0.0777  0.0789  0.6820
  127CHL1  H18A15612   3.658   5.972   3.660  0.5237  1.1180  0.2321
  127CHL1  H18B15613   3.674   5.914   3.830  1.9605 -1.2895  0.1106
  127CHL1  H18C15614   3.681   6.098   3.782 -0.0197  0.5169 -1.2052
  127CHL1   C1215615   3.905   6.118   3.662 -0.2558  0.0956 -0.2392
  127CHL1  H12A15616   3.884   6.215   3.712  0.6488  0.7240 -1.0308
  127CHL1  H12B15617   4.016   6.119   3.665 -0.2307  2.4952 -0.3438
  127CHL1   C1115618   3.849   6.124   3.515  0.4084  0.1806  0.0255
  127CHL1  H11A15619   3.739   6.136   3.521  0.4351  1.3382 -1.2749
  127CHL1  H11B15620   3.891   6.212   3.462 -0.7862  1.0131  0.4330
  127CHL1    C915621   3.891   5.997   3.435 -0.4342 -0.4317 -0.1015
  127CHL1    H915622   4.002   6.002   3.430 -0.4666  0.4363 -0.1574
  127CHL1   C1015623   3.835   5.993   3.293  0.6044 -0.1654 -0.4972
  127CHL1   C1915624   3.679   6.010   3.291  0.0586  0.0683  0.6367
  127CHL1  H19A15625   3.622   6.020   3.197 -0.1031  0.5322  0.7786
  127CHL1  H19B15626   3.637   5.920   3.340  2.7089 -1.1890  0.8066
  127CHL1  H19C15627   3.657   6.101   3.352 -1.7579  0.0971 -0.0113
  127CHL1    C115628   3.905   6.098   3.209 -0.1232 -0.2891  0.3102
  127CHL1   H1A15629   3.890   6.202   3.245  2.0206 -0.3949  1.6905
  127CHL1   H1B15630   4.014   6.080   3.215 -0.0279 -0.1358 -0.7897
  127CHL1    C215631   3.867   6.097   3.052 -0.1909  1.1043 -0.0646
  127CHL1   H2A15632   3.925   6.170   2.992  1.0759 -0.1196 -0.3858
  127CHL1   H2B15633   3.757   6.102   3.041 -0.4324 -0.3960  1.2046
  127CHL1   C2015634   3.883   6.027   3.999  0.3350  0.3530 -1.0869
  127CHL1   H2015635   3.777   5.996   4.013  0.8372 -1.5360 -1.0961
  127CHL1   C2115636   3.897   6.181   3.992 -0.5253  0.3671 -0.1094
  127CHL1  H21A15637   3.993   6.221   3.952 -0.4562 -0.1436 -0.4768
  127CHL1  H21B15638   3.880   6.229   4.090 -2.0337  1.1330 -0.7202
  127CHL1  H21C15639   3.816   6.221   3.927 -1.0506 -2.1336 -1.1056
  127CHL1   C2215640   3.952   5.989   4.135 -0.4917  0.1716  0.1498
  127CHL1  H22A15641   3.918   6.045   4.224 -0.3713  1.0633 -0.3438
  127CHL1  H22B15642   3.937   5.881   4.156 -1.0741  0.3980  0.8841
  127CHL1   C2315643   4.106   5.994   4.135 -0.2895  0.0991  0.0522
  127CHL1  H23A15644   4.145   5.937   4.048 -1.9845 -0.4645 -0.3835
  127CHL1  H23B15645   4.147   6.095   4.113  1.2771 -0.3700  0.6846
  127CHL1   C2415646   4.174   5.946   4.267 -0.4755 -0.3767  0.7705
  127CHL1  H24A15647   4.150   6.014   4.351 -0.7426  0.5730 -0.0491
  127CHL1  H24B15648   4.164   5.840   4.297 -1.8868 -0.0964  1.3327
  127CHL1   C2515649   4.335   5.952   4.242  0.2320 -0.2588 -0.1037
  127CHL1   H2515650   4.346   5.899   4.145  2.0456  1.2011 -0.7475
  127CHL1   C2615651   4.386   6.096   4.220  0.0195 -0.2227 -0.0117
  127CHL1  H26A15652   4.341   6.166   4.293 -2.7815 -1.7142 -0.1770
  127CHL1  H26B15653   4.497   6.089   4.224  0.1691  1.5769 -0.2826
  127CHL1  H26C15654   4.358   6.134   4.120 -0.3331  0.0084  0.1743
  127CHL1   C2715655   4.409   5.886   4.352 -0.1749 -0.6010 -0.4227
  127CHL1  H27A15656   4.403   5.946   4.445 -0.8599 -1.4686  0.1053
  127CHL1  H27B15657   4.386   5.782   4.384  0.6090 -0.1209  1.8873
  127CHL1  H27C15658   4.518   5.888   4.329  0.0142  0.4350  0.4588
  128CHL1    C315659   2.375   2.425   3.540  1.0603  0.0456  0.2032
  128CHL1    H315660   2.360   2.492   3.627 -0.1760  0.3179 -0.2040
  128CHL1    O315661   2.302   2.477   3.427  0.5569  0.0960  0.4951
  128CHL1   H3'15662   2.346   2.440   3.351  0.6160 -2.6424  1.7372
  128CHL1    C415663   2.528   2.434   3.509 -0.0197 -0.1390  0.0924
  128CHL1   H4A15664   2.548   2.376   3.417  0.8690  0.0927  0.1296
  128CHL1   H4B15665   2.546   2.543   3.492 -0.2409 -0.2131 -0.6479
  128CHL1    C515666   2.611   2.375   3.625 -0.5346  0.3470 -0.4961
  128CHL1    C615667   2.703   2.449   3.688  0.2327 -0.0674 -0.3126
  128CHL1    H615668   2.720   2.552   3.653  0.7798 -0.7829 -2.2886
  128CHL1    C715669   2.786   2.389   3.795  0.4988 -0.3098  0.4410
  128CHL1   H7A15670   2.890   2.419   3.772  0.4743  0.1857  0.9618
  128CHL1   H7B15671   2.752   2.431   3.892  0.2838 -1.9929  1.1487
  128CHL1    C815672   2.768   2.230   3.816 -0.1731  0.5765 -0.5996
  128CHL1    H815673   2.825   2.174   3.739  0.5615  0.5612 -0.0510
  128CHL1   C1415674   2.821   2.202   3.954 -0.3974  0.0135  0.0640
  128CHL1   H1415675   2.765   2.252   4.036 -1.6086 -2.0470  0.5651
  128CHL1   C1515676   2.970   2.223   3.981  0.0342  0.4184 -0.4749
  128CHL1  H15A15677   3.033   2.176   3.902 -0.2989  0.5115 -0.7964
  128CHL1  H15B15678   2.989   2.329   4.006 -0.8882 -0.0791  2.6601
  128CHL1   C1615679   3.005   2.138   4.103  0.4001 -0.2382 -1.0413
  128CHL1  H16A15680   3.097   2.080   4.081  0.7413 -0.5635  1.0405
  128CHL1  H16B15681   3.015   2.210   4.187 -1.4595  0.2737 -1.2177
  128CHL1   C1715682   2.881   2.051   4.134  0.6989 -0.4045 -0.0632
  128CHL1   H1715683   2.813   2.111   4.198  0.2302 -2.7315  1.7465
  128CHL1   C1315684   2.805   2.055   3.999  0.4020  0.1628 -0.1255
  128CHL1   C1815685   2.873   1.949   3.905 -0.1434  0.0758  0.0790
  128CHL1  H18A15686   2.982   1.938   3.917 -0.4394 -2.5253  0.9465
  128CHL1  H18B15687   2.823   1.853   3.930  2.7445 -1.1524  1.6368
  128CHL1  H18C15688   2.852   1.985   3.802  0.7509  2.6773  0.7361
  128CHL1   C1215689   2.654   2.035   4.007  0.0172  0.4858 -0.8124
  128CHL1  H12A15690   2.637   1.927   4.027 -0.7051  0.6365 -0.5910
  128CHL1  H12B15691   2.611   2.094   4.091  0.6179  0.7721 -0.6982
  128CHL1   C1115692   2.581   2.065   3.874  0.3200  0.7703 -0.6060
  128CHL1  H11A15693   2.616   1.986   3.804  1.3932 -0.2828  1.0608
  128CHL1  H11B15694   2.473   2.045   3.891  0.6058 -0.5006 -0.2174
  128CHL1    C915695   2.620   2.197   3.821  0.3402  0.6088  0.1362
  128CHL1    H915696   2.587   2.280   3.886 -0.1660  1.4454 -1.1393
  128CHL1   C1015697   2.554   2.235   3.682  0.3536  0.1425 -0.1824
  128CHL1   C1915698   2.595   2.130   3.572  0.3017  0.3872 -0.5858
  128CHL1  H19A15699   2.536   2.157   3.482 -3.0826 -0.2659  1.2580
  128CHL1  H19B15700   2.706   2.126   3.564  0.3166 -0.1571 -0.1618
  128CHL1  H19C15701   2.564   2.030   3.608 -2.9601  1.0766 -1.1443
  128CHL1    C115702   2.398   2.224   3.697  0.7582 -0.2585  1.0405
  128CHL1   H1A15703   2.371   2.116   3.701 -0.3618 -0.0038  0.8706
  128CHL1   H1B15704   2.364   2.278   3.788 -1.8665  2.2713 -1.2398
  128CHL1    C215705   2.319   2.284   3.570  0.1264 -0.1227 -0.0122
  128CHL1   H2A15706   2.211   2.283   3.598  0.3197  1.0211  0.8847
  128CHL1   H2B15707   2.343   2.221   3.482  1.0167  1.7661 -1.1890
  128CHL1   C2015708   2.914   1.922   4.208 -0.0348 -0.3988  0.0510
  128CHL1   H2015709   2.973   1.858   4.139  2.2431 -0.5628  2.0159
  128CHL1   C2115710   2.790   1.843   4.242  0.4932 -0.0868 -0.1862
  128CHL1  H21A15711   2.816   1.752   4.300  0.3908  0.8233  1.3595
  128CHL1  H21B15712   2.742   1.809   4.148 -0.9364  0.0318  0.4826
  128CHL1  H21C15713   2.719   1.907   4.299  0.3453 -0.2161 -0.2251
  128CHL1   C2215714   2.992   1.933   4.340  0.3312  0.4926 -0.0639
  128CHL1  H22A15715   3.016   1.829   4.371 -1.4615 -0.0188 -0.3094
  128CHL1  H22B15716   3.089   1.985   4.325 -0.1601  0.8051 -2.6684
  128CHL1   C2315717   2.910   2.010   4.450 -0.7491  0.1560 -0.0821
  128CHL1  H23A15718   2.869   2.098   4.397  1.5210  0.9113 -0.6879
  128CHL1  H23B15719   2.822   1.948   4.476 -1.0204 -0.6368 -2.5959
  128CHL1   C2415720   3.002   2.042   4.565 -0.0245 -0.4035 -0.6278
  128CHL1  H24A15721   3.039   1.950   4.615 -1.8216 -0.5645  0.4903
  128CHL1  H24B15722   3.089   2.087   4.513  0.5122  0.4993  0.9973
  128CHL1   C2515723   2.963   2.158   4.658 -0.3860 -0.1961 -0.1412
  128CHL1   H2515724   2.956   2.255   4.603 -1.6443  0.7130  1.5293
  128CHL1   C2615725   2.817   2.143   4.705  0.2250  0.1981 -0.1166
  128CHL1  H26A15726   2.818   2.064   4.784  1.8890  0.1425 -0.1481
  128CHL1  H26B15727   2.793   2.237   4.759 -0.1513 -0.8897  1.7052
  128CHL1  H26C15728   2.740   2.117   4.629  0.1263 -0.0110  0.0525
  128CHL1   C2715729   3.060   2.166   4.777  0.6192  0.1209  0.1104
  128CHL1  H27A15730   3.050   2.271   4.814 -1.3318  0.9672 -2.5200
  128CHL1  H27B15731   3.032   2.099   4.861  0.8439  0.0404  0.1216
  128CHL1  H27C15732   3.164   2.145   4.746  0.5631  1.4198 -1.0681
  129CHL1    C315733   5.431   6.118   3.025 -0.1881  0.5629  0.0748
  129CHL1    H315734   5.534   6.160   3.037  0.5751 -1.0561 -0.4395
  129CHL1    O315735   5.392   6.139   2.891 -0.2616  0.4320 -0.1859
  129CHL1   H3'15736   5.349   6.055   2.870  1.0216  0.0216 -1.3155
  129CHL1    C415737   5.431   5.964   3.068 -0.4858 -0.3114 -0.0512
  129CHL1   H4A15738   5.333   5.916   3.047 -0.6536 -0.9440  1.9397
  129CHL1   H4B15739   5.502   5.908   3.004 -0.6644 -0.9741  0.3172
  129CHL1    C515740   5.474   5.950   3.212 -0.2597  0.1127  0.1687
  129CHL1    C615741   5.577   5.863   3.239 -0.3259  0.1305  0.2716
  129CHL1    H615742   5.612   5.815   3.146  0.9538 -0.2117  0.9179
  129CHL1    C715743   5.641   5.838   3.369  0.3472 -0.0218 -0.3399
  129CHL1   H7A15744   5.650   5.728   3.382  1.4510  0.1810  0.9500
  129CHL1   H7B15745   5.746   5.875   3.360 -0.6555  2.8644 -1.3001
  129CHL1    C815746   5.563   5.897   3.488  0.0169 -0.2488 -0.2955
  129CHL1    H815747   5.484   5.824   3.516 -0.0993 -0.5095 -1.2705
  129CHL1   C1415748   5.646   5.910   3.618 -0.4796  0.2382  0.0464
  129CHL1   H1415749   5.723   5.986   3.595  0.7728 -0.5846  1.3150
  129CHL1   C1515750   5.726   5.788   3.672  0.0119  0.3438 -0.0163
  129CHL1  H15A15751   5.655   5.703   3.663 -0.5190  0.8600 -0.8426
  129CHL1  H15B15752   5.820   5.772   3.614 -1.0874 -0.6704 -1.5800
  129CHL1   C1615753   5.756   5.833   3.818 -0.0646 -0.0806  0.1790
  129CHL1  H16A15754   5.728   5.753   3.890  4.0681 -0.8491  1.2220
  129CHL1  H16B15755   5.866   5.848   3.828 -0.0823  0.3569 -0.2275
  129CHL1   C1715756   5.685   5.968   3.853 -0.0795 -0.1152  0.1822
  129CHL1   H1715757   5.747   6.057   3.829 -1.8341  1.4548  1.1496
  129CHL1   C1315758   5.572   5.977   3.738 -0.4390 -0.7491  0.3398
  129CHL1   C1815759   5.454   5.889   3.789 -0.1440  0.1619  0.1282
  129CHL1  H18A15760   5.373   5.881   3.714  0.0789  0.8426 -0.1932
  129CHL1  H18B15761   5.486   5.787   3.818 -1.1399  0.0885  1.0735
  129CHL1  H18C15762   5.411   5.940   3.879 -0.0840 -0.0092  0.2543
  129CHL1   C1215763   5.529   6.119   3.694  0.0905  0.5513 -0.0595
  129CHL1  H12A15764   5.477   6.173   3.775  0.4328  2.5015 -1.0752
  129CHL1  H12B15765   5.617   6.180   3.664  0.6325 -1.0716 -2.0520
  129CHL1   C1115766   5.439   6.108   3.575 -0.5307 -0.6349  0.3838
  129CHL1  H11A15767   5.351   6.048   3.607 -1.3394 -0.5291 -1.5012
  129CHL1  H11B15768   5.404   6.207   3.540  0.0812 -0.6565 -0.3117
  129CHL1    C915769   5.506   6.037   3.451  0.4156  1.0312  0.4949
  129CHL1    H915770   5.587   6.112   3.434 -0.6023  2.4574  1.6672
  129CHL1   C1015771   5.415   6.034   3.319 -0.0085  0.5351 -0.3875
  129CHL1   C1915772   5.272   5.983   3.356 -0.1196 -0.0624  0.3517
  129CHL1  H19A15773   5.268   5.876   3.385 -1.6409 -0.8106 -2.3149
  129CHL1  H19B15774   5.217   6.043   3.431 -0.9610 -0.4967  0.0854
  129CHL1  H19C15775   5.212   5.991   3.263 -0.8530  0.9822  0.9010
  129CHL1    C115776   5.388   6.182   3.269 -0.4765 -0.1628 -0.5122
  129CHL1   H1A15777   5.316   6.234   3.336 -0.3184  1.3014 -1.4352
  129CHL1   H1B15778   5.479   6.247   3.272 -0.9265  0.4790 -0.5353
  129CHL1    C215779   5.340   6.194   3.118  0.3818  0.1998 -0.9685
  129CHL1   H2A15780   5.350   6.303   3.098 -3.2307  0.5847 -1.4346
  129CHL1   H2B15781   5.232   6.169   3.112  0.8503 -1.9260 -1.3764
  129CHL1   C2015782   5.657   5.983   4.000  0.2701  0.0887 -0.8547
  129CHL1   H2015783   5.587   5.904   4.036  1.4835 -0.4731  0.4200
  129CHL1   C2115784   5.610   6.126   4.019  0.0811 -0.2906  0.5143
  129CHL1  H21A15785   5.684   6.194   3.971 -0.1073 -0.6630 -0.3374
  129CHL1  H21B15786   5.599   6.160   4.124  2.6211  1.8001  0.2083
  129CHL1  H21C15787   5.511   6.150   3.976  1.4229  1.6745 -1.6946
  129CHL1   C2215788   5.792   5.968   4.089 -0.0808  0.1649 -0.5856
  129CHL1  H22A15789   5.851   5.880   4.056  0.4639  0.4689 -0.4403
  129CHL1  H22B15790   5.857   6.058   4.088 -0.0930  0.2069  0.8585
  129CHL1   C2315791   5.762   5.939   4.233  0.5758  0.4753 -0.7926
  129CHL1  H23A15792   5.854   5.944   4.296 -0.2344 -1.1273  0.5973
  129CHL1  H23B15793   5.683   6.010   4.266 -1.0348 -1.6199  0.1152
  129CHL1   C2415794   5.712   5.796   4.266  0.0063 -0.3146  0.4863
  129CHL1  H24A15795   5.605   5.777   4.245  0.2382 -0.4367 -0.6317
  129CHL1  H24B15796   5.777   5.726   4.209  2.0449 -0.3848  2.6948
  129CHL1   C2515797   5.721   5.760   4.415 -0.2525 -0.8261  0.2060
  129CHL1   H2515798   5.827   5.785   4.438 -0.9210  1.8284  0.6317
  129CHL1   C2615799   5.624   5.834   4.508 -0.0551  0.4036  0.5477
  129CHL1  H26A15800   5.632   5.942   4.483  1.7716 -0.1755 -1.7472
  129CHL1  H26B15801   5.523   5.801   4.478  0.1920 -3.5662  3.2732
  129CHL1  H26C15802   5.639   5.820   4.618  1.8494 -3.6764 -0.0652
  129CHL1   C2715803   5.695   5.609   4.440 -0.3417  0.2818 -0.5766
  129CHL1  H27A15804   5.749   5.551   4.362  2.0786  1.0943  0.3791
  129CHL1  H27B15805   5.740   5.584   4.539 -3.2741  0.6218  0.9451
  129CHL1  H27C15806   5.586   5.590   4.439 -0.2128 -0.4551 -0.8947
  130CHL1    C315807   3.049   7.396   3.323  0.0462  0.2258  0.6558
  130CHL1    H315808   3.132   7.333   3.361  0.0736 -0.6808 -0.8285
  130CHL1    O315809   3.010   7.358   3.193 -0.1727 -0.1589  0.0650
  130CHL1   H3'15810   3.082   7.366   3.129 -0.9312 -1.0164 -0.9412
  130CHL1    C415811   2.929   7.376   3.417  0.4006 -0.0595  0.2400
  130CHL1   H4A15812   2.838   7.432   3.387  0.3179  0.7940  2.0116
  130CHL1   H4B15813   2.906   7.268   3.407 -1.8443  0.4221 -0.4095
  130CHL1    C515814   2.969   7.419   3.552 -0.8505  0.5616  0.6648
  130CHL1    C615815   2.977   7.331   3.652  0.0213 -0.2632 -0.0942
  130CHL1    H615816   2.943   7.226   3.649  1.1588 -0.6255 -0.6598
  130CHL1    C715817   3.017   7.380   3.789  0.0030 -0.2537 -0.6895
  130CHL1   H7A15818   2.960   7.337   3.874  0.7337  2.8707  1.5305
  130CHL1   H7B15819   3.124   7.353   3.805  0.5597  2.7781  1.4194
  130CHL1    C815820   2.997   7.536   3.811 -0.8793  0.2940 -0.3384
  130CHL1    H815821   2.887   7.548   3.803 -1.0108 -1.2637 -1.4031
  130CHL1   C1415822   3.062   7.578   3.947 -0.3896  0.2827  0.6638
  130CHL1   H1415823   3.170   7.555   3.935 -0.3004  1.3405 -0.8480
  130CHL1   C1515824   3.019   7.509   4.071  0.1269  0.4858 -0.2032
  130CHL1  H15A15825   2.909   7.500   4.077  0.2156  0.2134  1.7864
  130CHL1  H15B15826   3.052   7.403   4.070 -1.0945  0.0772  1.0754
  130CHL1   C1615827   3.075   7.595   4.180 -0.6606  0.1500 -0.1039
  130CHL1  H16A15828   3.006   7.596   4.267 -0.6072 -2.9877  0.0743
  130CHL1  H16B15829   3.171   7.547   4.210  0.3161  1.6044 -0.7694
  130CHL1   C1715830   3.123   7.734   4.117 -0.0760  0.3090  0.2008
  130CHL1   H1715831   3.233   7.740   4.102  0.0576 -0.2001  0.9114
  130CHL1   C1315832   3.061   7.726   3.975 -0.5112  0.2772  0.4817
  130CHL1   C1815833   2.912   7.778   3.981 -0.2538  0.0417  0.2210
  130CHL1  H18A15834   2.868   7.742   3.885  1.4859  1.5791 -1.2558
  130CHL1  H18B15835   2.860   7.742   4.072 -0.3518 -2.4530 -0.7418
  130CHL1  H18C15836   2.909   7.889   3.978  1.1456  0.1068  0.5927
  130CHL1   C1215837   3.130   7.805   3.861 -0.0977  0.5261  0.0700
  130CHL1  H12A15838   3.122   7.916   3.856  1.4650  0.6137 -0.8517
  130CHL1  H12B15839   3.239   7.783   3.862 -0.3094 -0.6198  1.0972
  130CHL1   C1115840   3.083   7.766   3.724 -0.5316 -0.1836  0.8617
  130CHL1  H11A15841   2.980   7.808   3.716 -1.1096 -1.8598 -1.8462
  130CHL1  H11B15842   3.142   7.809   3.641 -0.6828 -2.0802 -0.2949
  130CHL1    C915843   3.068   7.612   3.703 -0.3544 -0.1968 -0.5541
  130CHL1    H915844   3.174   7.579   3.697  0.2758  1.6339 -0.2080
  130CHL1   C1015845   3.013   7.570   3.562  0.0943 -0.4148  0.8781
  130CHL1   C1915846   2.888   7.663   3.534 -0.2333 -0.0865  0.0553
  130CHL1  H19A15847   2.829   7.626   3.447 -0.6374  0.6061  0.0257
  130CHL1  H19B15848   2.830   7.660   3.629 -4.1119  0.0545 -2.0962
  130CHL1  H19C15849   2.913   7.764   3.495 -0.2973 -0.7825 -1.8959
  130CHL1    C115850   3.127   7.599   3.460  0.0772  0.5510  0.0080
  130CHL1   H1A15851   3.150   7.708   3.462  0.2312  0.5142  0.2089
  130CHL1   H1B15852   3.217   7.540   3.485  0.1213  0.1378 -1.0769
  130CHL1    C215853   3.088   7.549   3.319  0.3159  0.1180  0.4102
  130CHL1   H2A15854   3.177   7.548   3.252 -0.0834 -0.8794 -0.1358
  130CHL1   H2B15855   3.007   7.610   3.275 -0.7296 -1.7754 -0.4136
  130CHL1   C2015856   3.084   7.854   4.202 -0.3366 -0.1012 -0.9012
  130CHL1   H2015857   2.974   7.859   4.219 -0.4208 -0.6005 -1.2747
  130CHL1   C2115858   3.136   7.981   4.135  0.6277 -0.2376 -0.3734
  130CHL1  H21A15859   3.247   7.988   4.136  0.6109  1.5233  2.6992
  130CHL1  H21B15860   3.104   8.077   4.181 -2.8152 -0.7589 -1.4268
  130CHL1  H21C15861   3.090   7.992   4.034  0.4514  0.0328 -0.2643
  130CHL1   C2215862   3.167   7.840   4.340 -0.1968  0.0658  0.9211
  130CHL1  H22A15863   3.249   7.765   4.333 -1.8166 -1.6752 -0.2386
  130CHL1  H22B15864   3.216   7.939   4.354 -1.9341  0.9410  1.0194
  130CHL1   C2315865   3.080   7.815   4.456 -0.1259 -0.4395 -0.1898
  130CHL1  H23A15866   3.014   7.728   4.437  0.3312 -0.3828 -2.2346
  130CHL1  H23B15867   3.137   7.782   4.546 -2.0076 -1.2729  0.7534
  130CHL1   C2415868   2.995   7.934   4.492  0.6394 -0.3200  0.1483
  130CHL1  H24A15869   3.067   8.016   4.514 -1.4572  1.8596 -0.6601
  130CHL1  H24B15870   2.944   7.966   4.399  3.2505  1.6498 -0.7207
  130CHL1   C2515871   2.894   7.924   4.609  0.3021  0.5694  0.1858
  130CHL1   H2515872   2.841   7.827   4.606  1.8918 -0.3229 -2.0643
  130CHL1   C2615873   2.967   7.923   4.746 -0.5485 -0.0531  0.5589
  130CHL1  H26A15874   3.031   7.835   4.766  1.1084  0.6338 -1.4368
  130CHL1  H26B15875   3.038   8.008   4.750 -0.8075  0.1682  0.4985
  130CHL1  H26C15876   2.894   7.941   4.828 -1.1081  1.0658 -0.1601
  130CHL1   C2715877   2.789   8.037   4.615 -0.0383  0.3829 -0.1856
  130CHL1  H27A15878   2.733   8.057   4.521 -0.1964 -0.2228 -0.2183
  130CHL1  H27B15879   2.711   8.018   4.691  1.1544  1.5304  1.3965
  130CHL1  H27C15880   2.836   8.134   4.644  1.6741 -0.8820  1.5331
  131CHL1    C315881   1.481   5.467   3.148 -0.1298 -0.3844 -0.1146
  131CHL1    H315882   1.585   5.428   3.153  1.8543  4.3486  0.2923
  131CHL1    O315883   1.434   5.451   3.013  0.9331 -0.3486  0.3720
  131CHL1   H3'15884   1.341   5.461   3.034  1.1586  1.5010  0.7029
  131CHL1    C415885   1.384   5.401   3.243  0.4359 -1.1633 -0.3969
  131CHL1   H4A15886   1.276   5.417   3.220  0.1693 -2.1962  0.0702
  131CHL1   H4B15887   1.413   5.296   3.222 -0.9715 -1.7735  0.5312
  131CHL1    C515888   1.395   5.429   3.390 -0.1402  0.1531 -0.3067
  131CHL1    C615889   1.388   5.339   3.483 -0.2829  0.2785 -0.2398
  131CHL1    H615890   1.370   5.235   3.451  2.3651 -0.4318  0.3278
  131CHL1    C715891   1.397   5.359   3.632 -0.6051  0.2223  0.0407
  131CHL1   H7A15892   1.311   5.306   3.677 -1.2010  0.4299 -0.8199
  131CHL1   H7B15893   1.490   5.312   3.668  0.9574  1.7813 -1.6890
  131CHL1    C815894   1.383   5.503   3.678 -0.1218 -0.2164 -0.3862
  131CHL1    H815895   1.274   5.520   3.672 -0.3915 -1.7781 -0.1999
  131CHL1   C1415896   1.422   5.528   3.824  0.0744  0.5685 -0.6615
  131CHL1   H1415897   1.527   5.494   3.841 -0.3627 -0.5540 -0.0441
  131CHL1   C1515898   1.337   5.447   3.925 -0.1837  0.1859  0.5241
  131CHL1  H15A15899   1.230   5.467   3.906 -0.6731 -0.7828  2.0459
  131CHL1  H15B15900   1.341   5.336   3.917 -1.0925  0.2026 -0.3943
  131CHL1   C1615901   1.373   5.513   4.054 -0.8263 -0.8481 -0.4753
  131CHL1  H16A15902   1.278   5.524   4.110 -0.0874  2.9167  0.3402
  131CHL1  H16B15903   1.442   5.454   4.117  0.9639  2.4121  0.8657
  131CHL1   C1715904   1.447   5.648   4.017 -0.0674  0.4613 -0.2727
  131CHL1   H1715905   1.554   5.618   4.025  0.0107  1.1548  2.1828
  131CHL1   C1315906   1.407   5.675   3.872 -0.5464  0.1894  0.6227
  131CHL1   C1815907   1.265   5.729   3.856 -0.1910 -0.1846  0.4559
  131CHL1  H18A15908   1.270   5.837   3.879  0.8150  0.0286 -0.6891
  131CHL1  H18B15909   1.226   5.724   3.752  1.1856  1.5869 -0.1965
  131CHL1  H18C15910   1.191   5.677   3.921  0.7039  2.1445  3.6009
  131CHL1   C1215911   1.498   5.762   3.790 -0.1851  0.2305  0.4181
  131CHL1  H12A15912   1.496   5.871   3.812  0.7966  0.9410 -2.5048
  131CHL1  H12B15913   1.605   5.734   3.803 -0.2404 -0.3258 -0.2331
  131CHL1   C1115914   1.469   5.751   3.637 -0.1050  0.1511  0.1880
  131CHL1  H11A15915   1.375   5.809   3.625  1.0195  2.4689  1.8753
  131CHL1  H11B15916   1.551   5.798   3.578  0.7168  0.5657  1.6148
  131CHL1    C915917   1.457   5.602   3.582  0.3792 -0.2753  0.5990
  131CHL1    H915918   1.558   5.555   3.575  2.4426  3.8075 -0.0644
  131CHL1   C1015919   1.417   5.576   3.429 -0.3691 -0.3208 -0.3496
  131CHL1   C1915920   1.285   5.658   3.414  0.1163  0.2054 -0.5211
  131CHL1  H19A15921   1.221   5.666   3.504 -1.3668  0.8262 -1.5840
  131CHL1  H19B15922   1.310   5.759   3.375  1.1640 -0.4183 -1.4936
  131CHL1  H19C15923   1.221   5.609   3.337 -0.8644 -0.6241  0.7802
  131CHL1    C115924   1.524   5.634   3.336  0.3471 -0.1132 -0.2653
  131CHL1   H1A15925   1.526   5.745   3.345 -1.8967  0.1036 -1.6695
  131CHL1   H1B15926   1.624   5.600   3.369 -0.0949 -1.4079 -0.1938
  131CHL1    C215927   1.493   5.612   3.183  0.2957 -0.2393  0.3014
  131CHL1   H2A15928   1.573   5.672   3.134 -0.2838  1.0878  0.9114
  131CHL1   H2B15929   1.401   5.668   3.155 -0.1580 -0.6550  0.9483
  131CHL1   C2015930   1.437   5.757   4.123 -0.0401 -0.2667  0.6773
  131CHL1   H2015931   1.327   5.768   4.136 -0.3134 -1.3459 -0.4504
  131CHL1   C2115932   1.510   5.885   4.070  0.1298  0.3813 -0.4791
  131CHL1  H21A15933   1.442   5.941   4.003 -1.8532 -0.1445  1.0013
  131CHL1  H21B15934   1.610   5.857   4.030  0.9900  0.9269  1.1771
  131CHL1  H21C15935   1.514   5.955   4.156  1.1151 -1.6681  1.2365
  131CHL1   C2215936   1.491   5.705   4.259  0.1153  0.3538  0.0851
  131CHL1  H22A15937   1.424   5.626   4.298 -0.9369  0.9056 -0.5614
  131CHL1  H22B15938   1.592   5.661   4.250  0.5907  1.3282  0.4541
  131CHL1   C2315939   1.520   5.810   4.368 -0.2825  0.0075 -0.0568
  131CHL1  H23A15940   1.591   5.887   4.330  0.6980 -0.3425  1.0243
  131CHL1  H23B15941   1.428   5.870   4.386  0.3868  0.4557  2.1818
  131CHL1   C2415942   1.569   5.769   4.508  0.7971 -0.0231  0.6356
  131CHL1  H24A15943   1.515   5.674   4.528 -1.1262  0.5084 -1.6361
  131CHL1  H24B15944   1.676   5.738   4.512  0.7948 -0.0349  0.6081
  131CHL1   C2515945   1.543   5.868   4.620  0.0612 -0.3664  1.1444
  131CHL1   H2515946   1.434   5.884   4.616 -0.0463 -0.7210  2.2771
  131CHL1   C2615947   1.606   5.827   4.742 -0.1752 -0.0596 -0.2866
  131CHL1  H26A15948   1.712   5.795   4.733 -0.6003 -1.4883 -0.6098
  131CHL1  H26B15949   1.592   5.900   4.824 -0.4054 -1.7331  1.2273
  131CHL1  H26C15950   1.551   5.735   4.772  0.6781 -0.9714 -1.3987
  131CHL1   C2715951   1.617   5.999   4.585  0.0016 -0.2047 -0.0808
  131CHL1  H27A15952   1.721   5.977   4.552 -0.9070  0.5468 -3.8860
  131CHL1  H27B15953   1.573   6.045   4.495 -0.9037 -0.7448  0.0727
  131CHL1  H27C15954   1.598   6.076   4.663  0.5362  1.0435 -1.1562
  132CHL1    C315955   4.028   6.576   2.986 -0.2509  0.2372  0.0171
  132CHL1    H315956   4.096   6.644   2.931  0.3481 -1.7168 -1.8382
  132CHL1    O315957   3.930   6.522   2.899 -0.1025 -0.7257  0.4243
  132CHL1   H3'15958   3.934   6.582   2.825 -3.2167 -1.5617 -0.6210
  132CHL1    C415959   4.100   6.451   3.035  0.0966  0.5657  0.0654
  132CHL1   H4A15960   4.036   6.378   3.090  0.4281  0.7971  0.7808
  132CHL1   H4B15961   4.143   6.383   2.959  1.8867  0.3326  1.2203
  132CHL1    C515962   4.208   6.500   3.126 -0.0855  0.3901  0.0131
  132CHL1    C615963   4.335   6.474   3.103  0.3588 -0.4228  0.2622
  132CHL1    H615964   4.368   6.444   3.002  2.7931  1.7120  0.3315
  132CHL1    C715965   4.455   6.501   3.197  0.4219  0.8237  0.3372
  132CHL1   H7A15966   4.508   6.404   3.207  2.8798  2.1094  0.6220
  132CHL1   H7B15967   4.533   6.568   3.154  2.0046 -0.8212  0.5381
  132CHL1    C815968   4.405   6.552   3.333  0.1809  0.8073 -0.3925
  132CHL1    H815969   4.383   6.463   3.396  0.0903  0.0641 -1.4475
  132CHL1   C1415970   4.524   6.636   3.392  0.4235 -0.3873 -0.3613
  132CHL1   H1415971   4.552   6.711   3.315 -1.6038 -0.5157 -1.2989
  132CHL1   C1515972   4.659   6.558   3.410 -0.2143 -0.5418 -0.1199
  132CHL1  H15A15973   4.641   6.460   3.460  0.7233 -0.8534 -0.3769
  132CHL1  H15B15974   4.721   6.524   3.324  3.0334 -0.8392  2.1562
  132CHL1   C1615975   4.730   6.644   3.515  1.3384 -0.1270  0.2584
  132CHL1  H16A15976   4.760   6.583   3.603 -1.9795 -1.4927  0.5605
  132CHL1  H16B15977   4.818   6.697   3.470 -0.1947  1.0461 -1.5206
  132CHL1   C1715978   4.632   6.749   3.564 -0.5091 -0.0421 -0.4750
  132CHL1   H1715979   4.656   6.840   3.505 -0.2534  0.4538  0.3739
  132CHL1   C1315980   4.493   6.698   3.528  0.5271  0.7907  0.3426
  132CHL1   C1815981   4.451   6.583   3.625 -0.2293 -0.2469  0.5577
  132CHL1  H18A15982   4.540   6.524   3.656 -0.2805 -0.3496  0.5078
  132CHL1  H18B15983   4.400   6.625   3.714 -0.7110  0.4294 -0.0210
  132CHL1  H18C15984   4.374   6.515   3.584 -0.1843 -0.6848  1.1930
  132CHL1   C1215985   4.370   6.793   3.508 -0.5895 -0.3384  0.1630
  132CHL1  H12A15986   4.332   6.838   3.602 -1.7588 -0.3213 -0.3056
  132CHL1  H12B15987   4.404   6.875   3.442 -5.3501 -0.2694 -2.6746
  132CHL1   C1115988   4.245   6.732   3.442  0.2799  0.1478  0.5550
  132CHL1  H11A15989   4.190   6.666   3.512 -0.4037  1.0876  0.9172
  132CHL1  H11B15990   4.175   6.814   3.416  1.2824  1.2195  1.1530
  132CHL1    C915991   4.291   6.657   3.316  0.0815  0.2053 -0.2230
  132CHL1    H915992   4.342   6.728   3.247  0.7950 -0.5908 -0.5429
  132CHL1   C1015993   4.168   6.590   3.244  0.4185  0.1677 -0.0468
  132CHL1   C1915994   4.088   6.494   3.342 -0.2503  0.1531  0.3172
  132CHL1  H19A15995   4.143   6.411   3.392 -0.9754 -0.9062 -0.5918
  132CHL1  H19B15996   4.038   6.558   3.419 -0.1436  0.7602 -0.1163
  132CHL1  H19C15997   4.011   6.449   3.276  2.8199 -1.1014 -2.7339
  132CHL1    C115998   4.061   6.698   3.202 -0.9176  0.2376 -0.6725
  132CHL1   H1A15999   4.005   6.743   3.287 -0.5203 -0.8461  0.1884
  132CHL1   H1B16000   4.126   6.780   3.166  0.8831 -0.3853  1.0311
  132CHL1    C216001   3.958   6.648   3.103  0.2793 -0.4138 -0.4499
  132CHL1   H2A16002   3.901   6.732   3.057  1.6936  0.0140 -1.5329
  132CHL1   H2B16003   3.890   6.585   3.163  1.4475 -0.7080  0.6051
  132CHL1   C2016004   4.651   6.783   3.709  0.0029 -0.0035 -0.4925
  132CHL1   H2016005   4.656   6.692   3.772 -0.3178  0.7977  0.7099
  132CHL1   C2116006   4.553   6.876   3.760 -0.1943 -0.1925  0.1225
  132CHL1  H21A16007   4.523   6.955   3.688 -2.2092  0.4775  1.6159
  132CHL1  H21B16008   4.570   6.929   3.856 -0.9174 -0.3866  0.3572
  132CHL1  H21C16009   4.461   6.819   3.783  1.1760 -2.0255  1.3647
  132CHL1   C2216010   4.778   6.855   3.757 -0.3161 -0.0187 -0.2163
  132CHL1  H22A16011   4.781   6.862   3.868 -2.7847 -0.5361 -0.0631
  132CHL1  H22B16012   4.865   6.796   3.721  0.6710  2.1946 -1.6856
  132CHL1   C2316013   4.804   7.002   3.712 -0.2413  0.1512 -0.3163
  132CHL1  H23A16014   4.762   7.010   3.609 -0.9679 -2.3125 -0.2761
  132CHL1  H23B16015   4.753   7.079   3.773  0.2071  0.2585 -0.0741
  132CHL1   C2416016   4.958   7.027   3.705  0.1447 -0.0040  0.1525
  132CHL1  H24A16017   5.000   6.962   3.626 -0.0952 -0.2230  0.2043
  132CHL1  H24B16018   4.972   7.135   3.682 -0.5463  0.2923  1.0616
  132CHL1   C2516019   5.038   7.010   3.831  0.1652  0.3694 -1.0789
  132CHL1   H2516020   5.028   6.903   3.860 -1.7835  0.3034 -1.8344
  132CHL1   C2616021   5.186   7.041   3.819 -0.7570  0.0233  0.2442
  132CHL1  H26A16022   5.241   7.040   3.916  1.2530 -1.7967 -0.8089
  132CHL1  H26B16023   5.233   6.967   3.750  0.1657  0.6805  0.1353
  132CHL1  H26C16024   5.213   7.141   3.778 -1.3163  0.6434  1.3592
  132CHL1   C2716025   4.975   7.091   3.950  0.0169 -0.7756 -0.1938
  132CHL1  H27A16026   4.945   7.185   3.899  2.2563 -0.0086 -0.2086
  132CHL1  H27B16027   4.881   7.047   3.990  0.4153 -0.4202  1.1591
  132CHL1  H27C16028   5.039   7.112   4.038 -0.0134 -0.7567 -0.1763
  133CHL1    C316029   1.947   1.859   3.126  0.1548  0.0868  0.4269
  133CHL1    H316030   1.839   1.873   3.151 -0.2649 -2.5942  0.3298
  133CHL1    O316031   1.961   1.873   2.981 -0.7621  0.2413  0.1544
  133CHL1   H3'16032   1.948   1.788   2.938 -0.2499 -0.9564  2.2103
  133CHL1    C416033   2.024   1.970   3.201 -0.0944  0.4039 -0.6500
  133CHL1   H4A16034   2.125   1.957   3.157 -0.7343  0.6129 -2.2568
  133CHL1   H4B16035   1.979   2.066   3.167  1.3967  1.0816 -0.7644
  133CHL1    C516036   2.034   1.959   3.351 -0.4135 -0.7289 -0.5675
  133CHL1    C616037   1.994   2.062   3.424 -0.5979 -0.2766  0.2270
  133CHL1    H616038   1.974   2.155   3.369  1.8804 -0.8730 -1.8998
  133CHL1    C716039   1.985   2.066   3.575 -0.0545 -0.0212 -0.2129
  133CHL1   H7A16040   2.030   2.159   3.615  4.1344 -1.4344 -1.0824
  133CHL1   H7B16041   1.876   2.064   3.595  0.1338  1.6487  1.2072
  133CHL1    C816042   2.058   1.949   3.642 -0.0306 -0.0293  0.1065
  133CHL1    H816043   2.167   1.972   3.642  0.3563 -1.7073  0.5550
  133CHL1   C1416044   2.026   1.928   3.786  0.1326 -0.1825 -0.2105
  133CHL1   H1416045   1.922   1.889   3.790 -0.0696  0.1498 -1.6428
  133CHL1   C1516046   2.032   2.056   3.870  0.0676 -0.5090  0.6211
  133CHL1  H15A16047   2.134   2.095   3.852 -0.0914 -0.1356  0.5299
  133CHL1  H15B16048   1.965   2.140   3.845  1.6899  0.4024 -0.8944
  133CHL1   C1616049   2.017   1.994   4.010  0.3225  0.5344  0.4774
  133CHL1  H16A16050   2.084   2.040   4.086  0.9801 -1.1503  0.9614
  133CHL1  H16B16051   1.915   2.003   4.051 -1.2361  0.8834 -3.1290
  133CHL1   C1716052   2.036   1.838   3.997 -0.5330 -0.1756  0.0093
  133CHL1   H1716053   1.941   1.780   3.986  0.5507 -2.1077  0.4161
  133CHL1   C1316054   2.103   1.817   3.859  0.2714 -0.6893 -0.4099
  133CHL1   C1816055   2.259   1.845   3.877  0.0652  0.3316 -0.0454
  133CHL1  H18A16056   2.266   1.933   3.944  1.4150  1.1619 -1.2195
  133CHL1  H18B16057   2.310   1.757   3.920 -2.0497  0.3317  2.6888
  133CHL1  H18C16058   2.298   1.872   3.776  0.8532 -0.5851 -0.0004
  133CHL1   C1216059   2.067   1.691   3.783 -0.1004  0.0483 -0.2525
  133CHL1  H12A16060   2.109   1.602   3.835  0.9444  0.6402 -0.0444
  133CHL1  H12B16061   1.959   1.666   3.784  0.0115 -0.7633 -2.6792
  133CHL1   C1116062   2.101   1.701   3.633  0.3388 -0.4706 -0.7563
  133CHL1  H11A16063   2.211   1.709   3.640  0.6611 -3.6143 -0.4213
  133CHL1  H11B16064   2.068   1.605   3.586 -1.1528  0.3480 -1.4556
  133CHL1    C916065   2.036   1.817   3.561 -1.0306  0.3228  0.2060
  133CHL1    H916066   1.926   1.807   3.558 -1.0829  1.1038 -0.9671
  133CHL1   C1016067   2.078   1.828   3.405  0.5025 -0.5104 -0.3677
  133CHL1   C1916068   2.231   1.809   3.398  0.2579 -0.3678 -0.7891
  133CHL1  H19A16069   2.286   1.885   3.457 -0.2511  0.9922 -1.9980
  133CHL1  H19B16070   2.258   1.708   3.433  0.0075 -0.4433 -0.8084
  133CHL1  H19C16071   2.268   1.811   3.293  1.6558  0.6239 -0.2962
  133CHL1    C116072   2.001   1.716   3.329  0.2401  0.0146  0.4273
  133CHL1   H1A16073   2.035   1.613   3.354 -1.9178 -1.0549 -0.7607
  133CHL1   H1B16074   1.895   1.726   3.358  0.9832  1.8128  2.8577
  133CHL1    C216075   2.002   1.727   3.174 -0.6974  0.1404  0.2210
  133CHL1   H2A16076   1.958   1.640   3.123  0.3602  0.5432 -1.4705
  133CHL1   H2B16077   2.105   1.726   3.132 -0.8556 -0.0367 -0.1639
  133CHL1   C2016078   2.101   1.774   4.120 -0.0920  0.1657 -0.0524
  133CHL1   H2016079   2.205   1.810   4.136  0.4062 -1.8795  1.7092
  133CHL1   C2116080   2.123   1.624   4.098 -0.1881 -0.0750 -0.0969
  133CHL1  H21A16081   2.201   1.604   4.022  1.1184  0.9675  0.9213
  133CHL1  H21B16082   2.030   1.572   4.065 -0.1540  0.8869 -1.8454
  133CHL1  H21C16083   2.165   1.571   4.186 -3.0147 -0.7716  0.9343
  133CHL1   C2216084   2.008   1.784   4.252 -0.6150 -0.6928  0.0492
  133CHL1  H22A16085   2.077   1.742   4.328 -0.8900 -0.7479  0.2691
  133CHL1  H22B16086   1.993   1.893   4.269 -0.2961 -0.7545  0.7532
  133CHL1   C2316087   1.882   1.699   4.262 -0.5359 -0.0141 -0.1789
  133CHL1  H23A16088   1.807   1.719   4.182 -2.1630 -0.4988  1.1712
  133CHL1  H23B16089   1.910   1.591   4.259 -2.0100 -0.4998  1.6951
  133CHL1   C2416090   1.815   1.714   4.397  0.6876  0.8348  0.3317
  133CHL1  H24A16091   1.893   1.728   4.475  0.8229 -2.6662  0.9501
  133CHL1  H24B16092   1.751   1.805   4.406 -1.1452 -0.4297  0.5552
  133CHL1   C2516093   1.723   1.595   4.444 -0.0157  0.0429 -0.5031
  133CHL1   H2516094   1.663   1.628   4.532 -0.5625  3.0324 -1.8606
  133CHL1   C2616095   1.622   1.568   4.326 -0.7481  0.1407 -0.0054
  133CHL1  H26A16096   1.581   1.659   4.277  0.1618 -0.4557 -1.9682
  133CHL1  H26B16097   1.674   1.514   4.244 -0.4045 -0.5704  0.6672
  133CHL1  H26C16098   1.539   1.502   4.360  0.2258 -0.4287  1.3961
  133CHL1   C2716099   1.799   1.465   4.477  0.0332 -0.2740  0.1551
  133CHL1  H27A16100   1.866   1.488   4.563 -1.0016  0.1827  0.8778
  133CHL1  H27B16101   1.720   1.388   4.492 -0.3130  0.0539  0.0411
  133CHL1  H27C16102   1.867   1.437   4.395  2.0609  0.5250  1.4945
  134CHL1    C316103   0.381   2.879   3.191  0.0119  0.1850  1.0633
  134CHL1    H316104   0.412   2.984   3.206  1.2558  0.0539 -0.2859
  134CHL1    O316105   0.380   2.852   3.053  0.5836  0.3476  0.3683
  134CHL1   H3'16106   0.293   2.815   3.034  1.5144 -1.8514  0.1068
  134CHL1    C416107   0.491   2.802   3.259  0.7000 -0.0316 -0.2201
  134CHL1   H4A16108   0.463   2.695   3.253 -0.4339  0.2077  0.4183
  134CHL1   H4B16109   0.588   2.831   3.212  0.7681  0.3196  0.1329
  134CHL1    C516110   0.494   2.837   3.409  1.1044  0.0927 -0.3553
  134CHL1    C616111   0.598   2.887   3.464 -0.3201 -0.2313  0.6555
  134CHL1    H616112   0.684   2.919   3.403 -0.3555 -2.2615 -0.5606
  134CHL1    C716113   0.612   2.924   3.609 -0.4826  0.0120  0.5378
  134CHL1   H7A16114   0.706   2.877   3.647  0.5059  2.1620  0.9133
  134CHL1   H7B16115   0.619   3.034   3.619 -1.3507  0.0157  1.1321
  134CHL1    C816116   0.492   2.863   3.699 -0.4313 -0.2830 -0.2521
  134CHL1    H816117   0.525   2.757   3.712 -1.7502 -0.4585  2.0773
  134CHL1   C1416118   0.476   2.931   3.831 -0.0430  0.1268  0.1708
  134CHL1   H1416119   0.437   3.034   3.815  2.0055  0.8710 -0.2856
  134CHL1   C1516120   0.613   2.955   3.910  0.1576  1.0963 -0.3068
  134CHL1  H15A16121   0.681   2.867   3.906  1.2002  1.8553  0.1381
  134CHL1  H15B16122   0.676   3.036   3.869  1.1554 -0.4358 -1.9351
  134CHL1   C1616123   0.558   2.985   4.054 -0.1909  0.1558 -0.1681
  134CHL1  H16A16124   0.612   2.932   4.135 -1.3838 -0.1082  0.4765
  134CHL1  H16B16125   0.566   3.096   4.063 -0.3757  0.0951  0.8894
  134CHL1   C1716126   0.404   2.949   4.050  0.0256  0.0826 -0.3593
  134CHL1   H1716127   0.350   3.045   4.035 -0.2459  0.1070  0.7272
  134CHL1   C1316128   0.386   2.858   3.924 -0.1410 -0.0901 -0.0642
  134CHL1   C1816129   0.428   2.712   3.964 -0.6019 -0.8822  0.1897
  134CHL1  H18A16130   0.536   2.716   3.988 -0.5983 -3.0105  0.7628
  134CHL1  H18B16131   0.371   2.676   4.053  0.6441 -1.8134  0.6459
  134CHL1  H18C16132   0.412   2.643   3.879 -1.2662  0.1042 -0.5025
  134CHL1   C1216133   0.247   2.864   3.861  0.2297  0.1112  0.5909
  134CHL1  H12A16134   0.174   2.807   3.922 -0.2665 -1.4092 -1.3170
  134CHL1  H12B16135   0.217   2.970   3.846  0.0213  0.0674  0.7074
  134CHL1   C1116136   0.253   2.791   3.725 -0.2344 -0.2790  0.6079
  134CHL1  H11A16137   0.295   2.689   3.737 -0.1993 -0.0796  2.3683
  134CHL1  H11B16138   0.154   2.785   3.674  0.4473 -1.5607 -0.6458
  134CHL1    C916139   0.360   2.861   3.627  0.3519  0.1715 -0.5815
  134CHL1    H916140   0.326   2.966   3.619 -0.5456  0.0309  0.9639
  134CHL1   C1016141   0.358   2.806   3.482 -0.2951 -0.1855 -0.2027
  134CHL1   C1916142   0.345   2.649   3.486 -0.1521 -0.0463  0.8679
  134CHL1  H19A16143   0.432   2.615   3.546  1.0094 -0.0418 -0.7460
  134CHL1  H19B16144   0.249   2.622   3.535 -1.2211  2.0793  0.0646
  134CHL1  H19C16145   0.347   2.598   3.388 -3.0085  0.4009  0.4870
  134CHL1    C116146   0.241   2.871   3.405  0.3327 -0.7856 -0.0187
  134CHL1   H1A16147   0.141   2.853   3.449 -1.1733  2.0558 -1.9301
  134CHL1   H1B16148   0.253   2.981   3.413  0.7984 -0.8330  0.0168
  134CHL1    C216149   0.247   2.839   3.253  0.0805  0.1311 -0.2964
  134CHL1   H2A16150   0.172   2.897   3.195 -0.7283  2.2323  2.5751
  134CHL1   H2B16151   0.232   2.731   3.236  1.3050 -0.0041 -0.6464
  134CHL1   C2016152   0.374   2.897   4.195  0.4823 -1.2659 -0.2565
  134CHL1   H2016153   0.421   2.800   4.223  1.8816 -0.4683  0.2717
  134CHL1   C2116154   0.217   2.882   4.192  0.9490 -0.7778  0.3086
  134CHL1  H21A16155   0.174   2.855   4.291 -1.4346  1.7447  0.0660
  134CHL1  H21B16156   0.178   2.806   4.121 -2.6487  0.6862  0.5266
  134CHL1  H21C16157   0.154   2.969   4.166 -0.5058 -0.5152  4.0450
  134CHL1   C2216158   0.400   2.991   4.314 -0.0961  0.3211  0.0578
  134CHL1  H22A16159   0.510   2.993   4.327 -0.1291  1.3687  0.2761
  134CHL1  H22B16160   0.374   3.091   4.274  0.1380 -0.8637 -3.3879
  134CHL1   C2316161   0.346   2.951   4.449  0.0617  0.8382 -0.2562
  134CHL1  H23A16162   0.235   2.965   4.444 -0.0571 -0.3901 -1.5157
  134CHL1  H23B16163   0.378   2.848   4.474 -1.5366  0.6779  1.3843
  134CHL1   C2416164   0.399   3.033   4.562  0.6903 -0.3788  0.1495
  134CHL1  H24A16165   0.360   3.137   4.552  0.2478 -0.5326  0.2625
  134CHL1  H24B16166   0.350   3.008   4.659 -1.0287  3.1915  0.3567
  134CHL1   C2516167   0.551   3.047   4.582 -0.5900  0.2395 -0.6787
  134CHL1   H2516168   0.601   3.087   4.492  0.3909  1.6996  0.4621
  134CHL1   C2616169   0.580   3.141   4.710  0.7603 -0.2546  0.3643
  134CHL1  H26A16170   0.516   3.112   4.797 -1.5467 -1.5841 -1.6382
  134CHL1  H26B16171   0.690   3.136   4.726  0.9619 -2.4104 -1.1805
  134CHL1  H26C16172   0.553   3.246   4.684  1.6146 -0.2654 -0.5883
  134CHL1   C2716173   0.621   2.910   4.612 -0.4064 -0.0595  0.3257
  134CHL1  H27A16174   0.627   2.854   4.516 -1.6778 -0.3806  0.4109
  134CHL1  H27B16175   0.721   2.921   4.660 -0.6913 -0.2115  0.9555
  134CHL1  H27C16176   0.557   2.854   4.682 -0.6021 -0.8456 -0.4600
  135CHL1    C316177   7.409   3.318   3.433 -0.6265  0.4696 -0.9058
  135CHL1    H316178   7.314   3.261   3.430 -1.2087  1.3977 -0.5321
  135CHL1    O316179   7.453   3.332   3.300  0.7652 -0.2120 -0.1782
  135CHL1   H3'16180   7.541   3.367   3.314  0.3349  0.9024 -0.1634
  135CHL1    C416181   7.386   3.449   3.495  0.0557 -0.4029  0.1385
  135CHL1   H4A16182   7.480   3.506   3.489  2.0726 -3.1771  2.4068
  135CHL1   H4B16183   7.313   3.499   3.429  1.0687  0.4030 -0.3865
  135CHL1    C516184   7.342   3.447   3.641  0.5470 -0.4388 -0.1364
  135CHL1    C616185   7.226   3.505   3.683 -0.4674 -1.2035 -0.2058
  135CHL1    H616186   7.163   3.559   3.611  2.4601 -0.7709 -2.6449
  135CHL1    C716187   7.183   3.513   3.828 -0.1561 -0.4411  0.8187
  135CHL1   H7A16188   7.147   3.618   3.838 -1.0092 -0.7393  0.9767
  135CHL1   H7B16189   7.094   3.450   3.848  0.2858 -0.6604  2.1847
  135CHL1    C816190   7.287   3.469   3.927  0.0674  0.2774 -0.0712
  135CHL1    H816191   7.346   3.555   3.964  0.9183  0.3543 -1.5086
  135CHL1   C1416192   7.218   3.416   4.051 -0.0801  0.3528  0.2212
  135CHL1   H1416193   7.151   3.333   4.019  0.7228 -0.1064 -0.2947
  135CHL1   C1516194   7.116   3.508   4.124 -0.0790 -0.3277 -0.2170
  135CHL1  H15A16195   7.159   3.609   4.141  0.0620 -0.3311 -0.5460
  135CHL1  H15B16196   7.024   3.514   4.062  0.5898 -2.7365 -1.5745
  135CHL1   C1616197   7.083   3.428   4.249 -0.6058  0.1938  0.8256
  135CHL1  H16A16198   7.083   3.496   4.338  0.2287  1.7820 -0.3343
  135CHL1  H16B16199   6.981   3.384   4.238 -0.7474  0.8243 -0.6620
  135CHL1   C1716200   7.186   3.314   4.261 -0.2635  0.2090  0.0420
  135CHL1   H1716201   7.139   3.225   4.215 -2.2363 -0.9800  3.8843
  135CHL1   C1316202   7.303   3.359   4.157 -0.2622  0.1468  0.0551
  135CHL1   C1816203   7.385   3.456   4.231 -0.2034 -0.6239 -0.0405
  135CHL1  H18A16204   7.443   3.410   4.314 -0.7854  1.1828  1.4381
  135CHL1  H18B16205   7.469   3.489   4.166 -0.1227 -2.9310 -1.2178
  135CHL1  H18C16206   7.345   3.554   4.265 -0.5451 -1.0337  0.7758
  135CHL1   C1216207   7.394   3.244   4.095 -0.5701  0.4266 -0.6252
  135CHL1  H12A16208   7.474   3.223   4.169 -1.0995 -1.7685 -0.6034
  135CHL1  H12B16209   7.339   3.147   4.091 -0.1314  0.0708  1.0015
  135CHL1   C1116210   7.473   3.295   3.967 -0.7365  0.2943 -0.5956
  135CHL1  H11A16211   7.555   3.368   3.987  1.0296 -1.8619  0.4561
  135CHL1  H11B16212   7.535   3.214   3.924 -0.6168  0.9247 -1.6498
  135CHL1    C916213   7.375   3.355   3.867 -0.1477  0.2751  1.0344
  135CHL1    H916214   7.297   3.277   3.855 -1.9403  1.9242  1.5145
  135CHL1   C1016215   7.441   3.373   3.726 -0.5283  0.3751  0.6233
  135CHL1   C1916216   7.572   3.452   3.735 -0.4079 -1.1024 -0.5173
  135CHL1  H19A16217   7.614   3.473   3.634  0.1982  1.0006  0.1119
  135CHL1  H19B16218   7.535   3.552   3.769 -1.4624 -1.1838 -1.3797
  135CHL1  H19C16219   7.655   3.428   3.805 -1.3039  2.1935  1.9283
  135CHL1    C116220   7.459   3.235   3.661  0.3795 -0.3623  0.0237
  135CHL1   H1A16221   7.530   3.174   3.722  0.5079 -0.3563 -0.1171
  135CHL1   H1B16222   7.369   3.170   3.664  0.1314  0.0258  2.2512
  135CHL1    C216223   7.512   3.239   3.516  0.0942 -0.2745 -0.2975
  135CHL1   H2A16224   7.517   3.139   3.469  0.1218  0.0303 -0.9635
  135CHL1   H2B16225   7.610   3.292   3.519  0.2640 -0.6276  2.3548
  135CHL1   C2016226   7.223   3.286   4.406 -0.0381  0.1753  0.2299
  135CHL1   H2016227   7.289   3.369   4.440  0.2424  0.0262  0.0547
  135CHL1   C2116228   7.304   3.154   4.410  0.7154 -0.1283  0.1186
  135CHL1  H21A16229   7.392   3.164   4.343 -0.2512  1.7701 -0.9634
  135CHL1  H21B16230   7.238   3.076   4.367  1.1602 -0.8216  0.6670
  135CHL1  H21C16231   7.325   3.130   4.516 -0.6421 -2.2721 -0.0389
  135CHL1   C2216232   7.099   3.263   4.507 -0.7244 -0.5749  0.0819
  135CHL1  H22A16233   7.133   3.228   4.607 -1.9564 -1.3534  0.2536
  135CHL1  H22B16234   7.044   3.357   4.524 -0.0817 -0.2240  0.2473
  135CHL1   C2316235   6.993   3.159   4.467  0.2463 -0.0006  0.4435
  135CHL1  H23A16236   6.962   3.173   4.361 -0.4857  3.7463  1.0072
  135CHL1  H23B16237   7.025   3.055   4.486  0.2167  0.0344  0.6885
  135CHL1   C2416238   6.856   3.161   4.538 -0.1161 -0.4448  0.0637
  135CHL1  H24A16239   6.867   3.142   4.647 -1.1110 -0.7965  0.1121
  135CHL1  H24B16240   6.811   3.263   4.537 -1.0449 -0.8388  0.5972
  135CHL1   C2516241   6.745   3.057   4.487 -0.1053 -0.2553  0.2922
  135CHL1   H2516242   6.793   3.001   4.403  0.1452  0.2410  0.1032
  135CHL1   C2616243   6.705   2.944   4.581  0.3249 -0.3233 -0.0421
  135CHL1  H26A16244   6.661   2.857   4.528 -1.5004  1.3409 -1.4022
  135CHL1  H26B16245   6.800   2.897   4.614 -0.0836 -1.1128  0.0310
  135CHL1  H26C16246   6.642   2.987   4.662 -1.7536  0.7213 -2.1032
  135CHL1   C2716247   6.617   3.123   4.429 -0.0132 -0.5406 -0.1547
  135CHL1  H27A16248   6.541   3.124   4.511  0.5502 -0.3795  0.3728
  135CHL1  H27B16249   6.632   3.222   4.380 -1.1601 -1.7377 -3.1198
  135CHL1  H27C16250   6.568   3.053   4.358 -1.9648  0.6729 -0.1111
  136CHL1    C316251   5.441   0.954   3.123  0.1468  0.5533  0.3619
  136CHL1    H316252   5.463   0.847   3.141  0.9773  0.3221 -1.7268
  136CHL1    O316253   5.374   0.975   2.998 -0.1494 -0.1843 -0.9975
  136CHL1   H3'16254   5.351   1.068   3.005  1.4269  0.1588  0.4232
  136CHL1    C416255   5.339   0.997   3.228  0.5965  0.3317  0.4094
  136CHL1   H4A16256   5.303   1.098   3.201 -0.1388 -0.0346  0.0013
  136CHL1   H4B16257   5.252   0.929   3.225  2.6407 -2.4584 -2.1262
  136CHL1    C516258   5.405   0.995   3.364 -1.2965  0.5151  0.2149
  136CHL1    C616259   5.350   0.917   3.460  0.1912 -0.5276  0.2443
  136CHL1    H616260   5.261   0.856   3.442 -2.2083  2.8085 -0.1201
  136CHL1    C716261   5.409   0.903   3.602 -0.5727 -0.5164 -0.3474
  136CHL1   H7A16262   5.327   0.899   3.676 -0.6331 -1.7890 -0.4482
  136CHL1   H7B16263   5.464   0.807   3.613 -0.0631 -0.0802  1.0704
  136CHL1    C816264   5.515   1.016   3.629 -0.1602 -0.0677  0.1437
  136CHL1    H816265   5.453   1.106   3.649  1.7379  1.6954 -1.5184
  136CHL1   C1416266   5.603   0.986   3.749 -0.1359 -0.2357 -0.5461
  136CHL1   H1416267   5.660   0.892   3.732  1.7738  1.0148 -1.3393
  136CHL1   C1516268   5.521   0.950   3.877 -0.4495 -0.3047 -0.0981
  136CHL1  H15A16269   5.435   1.020   3.888  0.2593  0.8772 -1.7924
  136CHL1  H15B16270   5.495   0.843   3.892 -0.1386 -0.4133 -0.3382
  136CHL1   C1616271   5.618   0.983   3.995 -0.1665  0.1463 -0.3588
  136CHL1  H16A16272   5.575   1.058   4.065  0.6309 -0.1825  0.5041
  136CHL1  H16B16273   5.639   0.895   4.059  2.6413  0.6728 -0.4147
  136CHL1   C1716274   5.750   1.023   3.928  0.1279 -0.0881  0.2946
  136CHL1   H1716275   5.806   0.931   3.904 -0.3045  0.2940 -2.5292
  136CHL1   C1316276   5.701   1.087   3.785  0.0488  0.9087 -0.0853
  136CHL1   C1816277   5.640   1.225   3.812 -0.3797  0.6474 -1.2630
  136CHL1  H18A16278   5.552   1.218   3.880  2.1203 -1.0370  2.0783
  136CHL1  H18B16279   5.709   1.297   3.862  1.3900 -0.9572 -1.3053
  136CHL1  H18C16280   5.614   1.279   3.719  0.3617  2.2402 -0.5913
  136CHL1   C1216281   5.807   1.097   3.673  0.1684 -0.3826 -0.2745
  136CHL1  H12A16282   5.876   1.179   3.701 -2.4264  2.7653 -2.3397
  136CHL1  H12B16283   5.870   1.007   3.659  2.1743  0.8407  0.4843
  136CHL1   C1116284   5.738   1.132   3.535 -0.1205 -0.2179  0.7671
  136CHL1  H11A16285   5.700   1.236   3.535 -0.6788 -0.4195  0.8844
  136CHL1  H11B16286   5.809   1.111   3.452 -1.9617 -1.8060 -0.4918
  136CHL1    C916287   5.608   1.037   3.509 -0.5671 -0.0344  0.2617
  136CHL1    H916288   5.655   0.937   3.497  1.1831  0.9356 -1.5779
  136CHL1   C1016289   5.534   1.073   3.374  0.3007 -0.3243  0.1320
  136CHL1   C1916290   5.485   1.225   3.374 -0.1928 -0.2966 -0.0064
  136CHL1  H19A16291   5.407   1.246   3.450 -0.0191  1.5977 -0.3006
  136CHL1  H19B16292   5.571   1.288   3.407 -1.2853  0.1676  2.1390
  136CHL1  H19C16293   5.440   1.259   3.278  0.2118  2.6354  0.7338
  136CHL1    C116294   5.631   1.028   3.264  0.1523 -1.1493 -0.1948
  136CHL1   H1A16295   5.720   1.094   3.263 -0.3774 -0.2265 -3.9870
  136CHL1   H1B16296   5.667   0.923   3.274 -0.4402 -1.3069  0.3154
  136CHL1    C216297   5.562   1.044   3.125  0.3644  0.6850  0.6390
  136CHL1   H2A16298   5.633   1.014   3.046 -1.0283  0.7700 -0.6912
  136CHL1   H2B16299   5.542   1.153   3.110 -0.5698  0.3249 -0.9073
  136CHL1   C2016300   5.840   1.106   4.019  0.1703  0.1580  0.0064
  136CHL1   H2016301   5.803   1.209   4.036  0.7648  0.0078  2.4875
  136CHL1   C2116302   5.974   1.117   3.958 -0.7750  0.0514  0.3736
  136CHL1  H21A16303   6.041   1.164   4.033 -1.3961 -0.2746  1.1431
  136CHL1  H21B16304   5.978   1.179   3.866 -2.1287  0.0765  0.3124
  136CHL1  H21C16305   6.008   1.015   3.931  0.3575  0.1071  1.5090
  136CHL1   C2216306   5.848   1.042   4.157  0.3834 -0.1560  0.2114
  136CHL1  H22A16307   5.904   1.122   4.209  1.7281 -1.3520  0.6629
  136CHL1  H22B16308   5.750   1.040   4.210  0.4122 -2.0469  0.2766
  136CHL1   C2316309   5.912   0.901   4.155  0.0273  0.2883 -0.4894
  136CHL1  H23A16310   5.845   0.840   4.090  0.7264 -1.3832  0.2905
  136CHL1  H23B16311   6.014   0.898   4.112  0.2944 -0.4506  0.1701
  136CHL1   C2416312   5.916   0.840   4.296  0.0659 -0.5425  0.4888
  136CHL1  H24A16313   5.981   0.910   4.352  1.5353 -0.0020 -1.7347
  136CHL1  H24B16314   5.811   0.843   4.332 -1.1562 -3.5901 -2.2561
  136CHL1   C2516315   5.968   0.695   4.301 -0.1851 -0.0101  0.0081
  136CHL1   H2516316   5.907   0.632   4.232 -1.3036  3.0739 -1.9947
  136CHL1   C2616317   6.123   0.684   4.250 -0.1807  0.5254  0.0040
  136CHL1  H26A16318   6.142   0.712   4.144  2.3234  3.7099  1.1248
  136CHL1  H26B16319   6.186   0.751   4.313 -0.7292 -0.3100  1.4833
  136CHL1  H26C16320   6.153   0.578   4.266 -0.6283  0.0850 -1.7974
  136CHL1   C2716321   5.949   0.644   4.440 -0.9211  0.4618 -0.5575
  136CHL1  H27A16322   5.996   0.543   4.445  0.1968  1.0001  0.2935
  136CHL1  H27B16323   6.012   0.696   4.516  1.4672 -1.7176 -0.9166
  136CHL1  H27C16324   5.840   0.647   4.466 -0.8189 -3.6827  1.1787
  137CHL1    C316325   1.038   1.773   3.212 -0.1343 -0.4098  0.2240
  137CHL1    H316326   1.109   1.700   3.256  0.5678  1.1949  1.8951
  137CHL1    O316327   1.010   1.745   3.071 -0.1483  0.0904 -0.5885
  137CHL1   H3'16328   1.096   1.742   3.030  1.2425  1.1862  1.9758
  137CHL1    C416329   0.897   1.752   3.299 -0.4910  0.2609 -0.5127
  137CHL1   H4A16330   0.814   1.803   3.246 -0.2052  0.0582 -1.1704
  137CHL1   H4B16331   0.881   1.644   3.284  3.2392 -1.1272  3.4648
  137CHL1    C516332   0.899   1.805   3.441  0.0706  0.4085 -0.0368
  137CHL1    C616333   0.863   1.728   3.545  0.1873 -0.0429  0.5393
  137CHL1    H616334   0.817   1.631   3.524  2.7677 -0.5735 -3.8246
  137CHL1    C716335   0.890   1.765   3.689  0.1264 -0.0173  0.5252
  137CHL1   H7A16336   0.812   1.722   3.756  2.3030 -1.0049  2.6081
  137CHL1   H7B16337   0.985   1.716   3.720  0.0366 -0.6770 -0.2071
  137CHL1    C816338   0.909   1.912   3.711  0.0695  0.4043 -0.8819
  137CHL1    H816339   0.812   1.964   3.697  1.7924  4.2584  0.0301
  137CHL1   C1416340   0.962   1.928   3.855  0.1363 -0.4443 -0.2078
  137CHL1   H1416341   1.066   1.891   3.866  0.3630  0.4254  0.7264
  137CHL1   C1516342   0.882   1.862   3.973  0.1181  0.1372  0.4675
  137CHL1  H15A16343   0.772   1.877   3.967 -0.3751 -2.6775  0.9937
  137CHL1  H15B16344   0.904   1.753   3.979 -0.7282 -0.0780 -0.0923
  137CHL1   C1616345   0.939   1.933   4.092  1.4596  0.3292  0.5010
  137CHL1  H16A16346   0.852   1.963   4.155  1.2699 -3.4978  2.3039
  137CHL1  H16B16347   0.999   1.856   4.144 -1.2805 -1.1748  1.6767
  137CHL1   C1716348   1.018   2.059   4.046 -0.1540 -0.8538 -0.2798
  137CHL1   H1716349   1.125   2.030   4.055 -0.0477  0.0008  1.8027
  137CHL1   C1316350   0.981   2.075   3.898  0.0151 -0.2800 -0.6839
  137CHL1   C1816351   0.840   2.150   3.890 -0.6310 -0.3110 -0.5661
  137CHL1  H18A16352   0.856   2.258   3.907 -3.2165  0.0823 -0.2632
  137CHL1  H18B16353   0.797   2.144   3.788 -0.1821 -2.1148 -0.6953
  137CHL1  H18C16354   0.765   2.106   3.960  0.3111  0.4830  1.0025
  137CHL1   C1216355   1.083   2.135   3.808 -0.3376 -0.0587  0.1921
  137CHL1  H12A16356   1.095   2.244   3.825 -1.0994  0.0043  0.3754
  137CHL1  H12B16357   1.178   2.085   3.838 -1.0772 -1.2969  0.5636
  137CHL1   C1116358   1.050   2.110   3.655 -0.6369  0.1034 -0.2141
  137CHL1  H11A16359   0.974   2.183   3.620 -1.2004 -1.4346 -2.4028
  137CHL1  H11B16360   1.148   2.134   3.608 -1.3202 -1.2435 -2.4838
  137CHL1    C916361   1.006   1.968   3.614  0.1577 -0.0525  0.2884
  137CHL1    H916362   1.089   1.895   3.622 -0.5396 -0.8872  0.0867
  137CHL1   C1016363   0.968   1.941   3.462  0.1648  0.0890 -0.2458
  137CHL1   C1916364   0.869   2.047   3.416  0.0387  1.0702 -0.2066
  137CHL1  H19A16365   0.833   2.027   3.313  0.6771  0.7052 -0.3590
  137CHL1  H19B16366   0.773   2.058   3.471 -0.9159 -0.9194 -1.3911
  137CHL1  H19C16367   0.912   2.149   3.423 -1.8041  1.9774 -1.2328
  137CHL1    C116368   1.095   1.958   3.375 -0.2287 -0.0656  0.5050
  137CHL1   H1A16369   1.114   2.067   3.380 -1.0766  0.1977 -1.3117
  137CHL1   H1B16370   1.181   1.898   3.412  0.6928 -1.4184 -3.4115
  137CHL1    C216371   1.080   1.923   3.227  0.7829 -0.2184  0.2667
  137CHL1   H2A16372   1.172   1.942   3.169  0.5259 -0.9931 -0.4053
  137CHL1   H2B16373   1.001   1.976   3.170  0.5590 -1.7932 -0.9461
  137CHL1   C2016374   0.992   2.179   4.139  1.2191  0.2061 -0.5410
  137CHL1   H2016375   0.883   2.200   4.130  0.8155 -2.4346 -3.7445
  137CHL1   C2116376   1.079   2.297   4.111 -0.4042 -0.2615 -0.6015
  137CHL1  H21A16377   1.077   2.336   4.007 -1.2835  0.6190 -0.2684
  137CHL1  H21B16378   1.181   2.258   4.133 -0.2583 -0.5919 -1.8180
  137CHL1  H21C16379   1.048   2.380   4.178  0.4726 -0.1053 -0.3770
  137CHL1   C2216380   1.004   2.145   4.292 -0.7954  0.7239 -0.0243
  137CHL1  H22A16381   0.954   2.047   4.307  2.3697 -0.8547  1.0579
  137CHL1  H22B16382   1.111   2.138   4.320 -0.9370 -3.2710  0.0991
  137CHL1   C2316383   0.929   2.245   4.379  1.1676 -0.5736  0.2691
  137CHL1  H23A16384   0.989   2.338   4.378 -2.4629  2.0030 -0.2981
  137CHL1  H23B16385   0.828   2.280   4.347  0.9461 -0.7631  0.7647
  137CHL1   C2416386   0.916   2.205   4.525  0.6420 -0.3232 -0.7506
  137CHL1  H24A16387   1.021   2.180   4.551  0.8158  1.8580  0.9347
  137CHL1  H24B16388   0.889   2.301   4.575 -1.2671 -1.8493  1.3463
  137CHL1   C2516389   0.821   2.092   4.553  0.1264  0.0670  0.1118
  137CHL1   H2516390   0.839   2.012   4.478  0.3518  0.1657  0.0624
  137CHL1   C2616391   0.845   2.029   4.693  0.3940 -0.5110 -0.3767
  137CHL1  H26A16392   0.770   1.951   4.721  0.1360 -0.4522 -0.8733
  137CHL1  H26B16393   0.943   1.978   4.706  0.5696  0.2850  1.6953
  137CHL1  H26C16394   0.824   2.109   4.766 -0.0587 -1.4721  0.5702
  137CHL1   C2716395   0.672   2.136   4.538  0.4015  0.4387  0.1814
  137CHL1  H27A16396   0.660   2.222   4.606 -0.4757 -0.5066  1.2589
  137CHL1  H27B16397   0.651   2.169   4.434  3.4074  3.6199  0.3960
  137CHL1  H27C16398   0.599   2.058   4.569  0.6901  0.3688  0.6948
  138CHL1    C316399   0.201   1.193   3.302  0.2158 -0.2034 -0.6428
  138CHL1    H316400   0.263   1.285   3.305 -2.4240  1.7146 -1.2482
  138CHL1    O316401   0.239   1.113   3.191  0.7517 -0.5996  0.1931
  138CHL1   H3'16402   0.203   1.149   3.110 -1.1437  0.4093  1.4349
  138CHL1    C416403   0.212   1.109   3.432  0.0908 -0.1517  1.0692
  138CHL1   H4A16404   0.141   1.023   3.423 -0.3664  0.3584 -0.7742
  138CHL1   H4B16405   0.312   1.062   3.434  0.7072  1.0996  0.6780
  138CHL1    C516406   0.185   1.200   3.543  0.6033 -0.3600 -0.3209
  138CHL1    C616407   0.264   1.219   3.648  0.2891 -0.1181 -0.0735
  138CHL1    H616408   0.366   1.179   3.644  1.8870  3.6245 -1.0337
  138CHL1    C716409   0.227   1.297   3.772  0.4028  0.9564 -0.7039
  138CHL1   H7A16410   0.263   1.246   3.864 -0.6835  1.7301  0.1755
  138CHL1   H7B16411   0.267   1.401   3.768  1.5343  0.7153  2.0111
  138CHL1    C816412   0.072   1.316   3.792  0.0802 -0.2613  0.8819
  138CHL1    H816413   0.034   1.219   3.832 -0.7963 -0.0376  0.5972
  138CHL1   C1416414   0.051   1.439   3.885  0.1688 -0.0748  0.8038
  138CHL1   H1416415   0.082   1.525   3.822  0.0246 -1.5448 -1.4212
  138CHL1   C1516416   0.130   1.444   4.021  0.2136  0.2157  0.0322
  138CHL1  H15A16417   0.116   1.342   4.061 -2.2581  0.8465  0.9509
  138CHL1  H15B16418   0.238   1.465   4.003  0.8559 -1.7205  1.3259
  138CHL1   C1616419   0.049   1.548   4.092 -0.2818  0.5054 -1.3524
  138CHL1  H16A16420   0.021   1.507   4.192  0.7344 -0.8762 -1.5904
  138CHL1  H16B16421   0.107   1.641   4.111 -3.6791  2.3820  0.9021
  138CHL1   C1716422  -0.087   1.570   4.019  0.3192  0.0224  0.1000
  138CHL1   H1716423  -0.066   1.662   3.960  1.0239 -0.2306 -0.0564
  138CHL1   C1316424  -0.097   1.465   3.908  0.0691 -0.3399  0.3846
  138CHL1   C1816425  -0.162   1.346   3.980 -0.1210  0.0689 -0.7477
  138CHL1  H18A16426  -0.148   1.251   3.925  1.7933 -1.0590  1.5319
  138CHL1  H18B16427  -0.114   1.332   4.079  0.9191 -1.6713 -1.4473
  138CHL1  H18C16428  -0.272   1.361   3.982 -0.1801 -0.3927  1.0772
  138CHL1   C1216429  -0.159   1.503   3.777 -0.1903 -0.3918  0.3643
  138CHL1  H12A16430  -0.266   1.524   3.797 -0.0744 -0.4590  1.0991
  138CHL1  H12B16431  -0.115   1.599   3.742 -0.7489 -0.3234 -0.1533
  138CHL1   C1116432  -0.140   1.402   3.666  0.2128  0.1635  0.2182
  138CHL1  H11A16433  -0.206   1.318   3.696 -0.6121  0.3215 -1.0932
  138CHL1  H11B16434  -0.180   1.442   3.570  0.1695 -0.0342  0.1521
  138CHL1    C916435   0.009   1.354   3.657 -0.4856 -0.3159 -0.2012
  138CHL1    H916436   0.065   1.446   3.628  1.2846 -0.7980  1.4905
  138CHL1   C1016437   0.038   1.260   3.539 -0.0022  0.5183 -0.1582
  138CHL1   C1916438  -0.067   1.148   3.549  0.8459  0.1420 -0.3228
  138CHL1  H19A16439  -0.050   1.065   3.476 -1.0350 -0.8813  0.3393
  138CHL1  H19B16440  -0.062   1.109   3.653 -1.1115 -0.1488 -0.3041
  138CHL1  H19C16441  -0.167   1.191   3.529  0.0421 -1.7607 -0.5974
  138CHL1    C116442   0.026   1.336   3.403  0.0852 -0.1963 -0.3204
  138CHL1   H1A16443  -0.074   1.381   3.386 -0.2801 -1.9855 -3.7656
  138CHL1   H1B16444   0.098   1.420   3.411 -0.6534  0.3496  0.8653
  138CHL1    C216445   0.060   1.254   3.276  0.6900  0.2584 -0.2512
  138CHL1   H2A16446   0.049   1.310   3.181  0.3045 -1.9244 -1.5733
  138CHL1   H2B16447  -0.015   1.171   3.273  1.8403 -1.1595  3.7682
  138CHL1   C2016448  -0.208   1.605   4.109  0.1479 -0.2775 -0.0465
  138CHL1   H2016449  -0.234   1.520   4.175 -2.3880  1.3802  1.2631
  138CHL1   C2116450  -0.324   1.648   4.019  0.0459 -0.7875 -0.8309
  138CHL1  H21A16451  -0.353   1.561   3.955  2.1524 -0.3681 -2.4411
  138CHL1  H21B16452  -0.298   1.731   3.951 -2.2569 -1.2154 -2.3802
  138CHL1  H21C16453  -0.406   1.684   4.085  0.1519 -0.5287 -0.8413
  138CHL1   C2216454  -0.178   1.718   4.205  0.5143  0.4311 -0.0807
  138CHL1  H22A16455  -0.079   1.709   4.255 -0.7035 -0.6670  2.3017
  138CHL1  H22B16456  -0.182   1.811   4.144  0.0171  0.6060  0.2144
  138CHL1   C2316457  -0.270   1.733   4.330  0.5680 -0.0786 -0.5346
  138CHL1  H23A16458  -0.376   1.733   4.296  0.9205  1.4794 -1.7750
  138CHL1  H23B16459  -0.258   1.642   4.392 -1.1041 -0.2875 -0.4503
  138CHL1   C2416460  -0.244   1.853   4.420 -0.3816 -0.4639 -0.0796
  138CHL1  H24A16461  -0.142   1.827   4.455  0.0759  0.7380 -0.4584
  138CHL1  H24B16462  -0.240   1.947   4.361 -0.8700 -0.0952  0.4706
  138CHL1   C2516463  -0.327   1.858   4.547 -0.2157  0.1889 -0.8803
  138CHL1   H2516464  -0.343   1.750   4.571  1.9172  0.3845  1.8513
  138CHL1   C2616465  -0.237   1.923   4.658 -0.0404 -0.1220  0.4948
  138CHL1  H26A16466  -0.233   2.033   4.647  2.1344 -0.2866 -0.8286
  138CHL1  H26B16467  -0.283   1.903   4.757 -1.4936  2.4837  0.4254
  138CHL1  H26C16468  -0.136   1.877   4.662 -0.4827 -1.1915 -0.1247
  138CHL1   C2716469  -0.456   1.932   4.548 -0.7025  0.0394 -0.1484
  138CHL1  H27A16470  -0.522   1.910   4.460  0.1662  2.6297 -1.5543
  138CHL1  H27B16471  -0.509   1.913   4.644 -0.3068 -0.2942  0.0032
  138CHL1  H27C16472  -0.433   2.040   4.541  1.8225 -0.5649 -3.5418
  139CHL1    C316473   0.381   6.578   3.271  0.1765  0.1941  0.7080
  139CHL1    H316474   0.319   6.558   3.360 -1.5855 -2.6008 -1.0165
  139CHL1    O316475   0.313   6.515   3.162 -0.0771 -0.0111 -0.1201
  139CHL1   H3'16476   0.376   6.523   3.090 -0.1668  0.8549 -0.1185
  139CHL1    C416477   0.395   6.730   3.244 -0.1393 -0.1224 -0.3424
  139CHL1   H4A16478   0.447   6.737   3.146 -2.0386  1.1004 -1.3412
  139CHL1   H4B16479   0.289   6.760   3.229 -0.3817 -1.5072 -1.6539
  139CHL1    C516480   0.464   6.790   3.361 -0.6056 -0.4735  0.1575
  139CHL1    C616481   0.392   6.881   3.426  0.0474 -0.0101 -0.4171
  139CHL1    H616482   0.290   6.908   3.395  0.3432 -0.5534 -1.9484
  139CHL1    C716483   0.447   6.961   3.544  0.6997  0.3164  0.1142
  139CHL1   H7A16484   0.430   7.069   3.521 -2.2625 -0.3289 -1.2468
  139CHL1   H7B16485   0.387   6.923   3.629 -2.5785  0.6005 -1.9139
  139CHL1    C816486   0.596   6.940   3.568  0.2156 -0.3072  0.7581
  139CHL1    H816487   0.650   7.009   3.500  0.5391  1.5020  2.7564
  139CHL1   C1416488   0.628   6.974   3.710 -0.0333 -0.2171 -0.3337
  139CHL1   H1416489   0.570   6.903   3.771 -1.9361  1.4524 -0.0705
  139CHL1   C1516490   0.585   7.105   3.767  0.1828  0.0004  0.3099
  139CHL1  H15A16491   0.600   7.200   3.711 -0.0053 -0.6331 -0.8310
  139CHL1  H15B16492   0.478   7.103   3.797 -0.4578  1.3000 -1.6801
  139CHL1   C1616493   0.659   7.110   3.906 -0.0564 -0.1723 -0.0042
  139CHL1  H16A16494   0.689   7.214   3.930 -1.9261  0.7300 -1.2964
  139CHL1  H16B16495   0.591   7.097   3.992  0.0294  3.6588  0.8553
  139CHL1   C1716496   0.772   6.998   3.904  0.0531  0.4779 -0.3976
  139CHL1   H1716497   0.719   6.918   3.959 -0.5239  1.4164  0.4524
  139CHL1   C1316498   0.777   6.952   3.760  0.5819  0.2749 -0.5986
  139CHL1   C1816499   0.867   7.052   3.682  0.1178  0.6363 -0.7449
  139CHL1  H18A16500   0.974   7.048   3.712 -0.7457 -1.9265  2.6230
  139CHL1  H18B16501   0.868   7.035   3.572  0.6851  1.6492 -0.9141
  139CHL1  H18C16502   0.828   7.155   3.692  1.1107  0.9462  0.0928
  139CHL1   C1216503   0.821   6.804   3.736 -0.6799 -0.2854  0.2666
  139CHL1  H12A16504   0.928   6.785   3.755 -0.9751  1.0720  4.2249
  139CHL1  H12B16505   0.775   6.740   3.815  0.3218 -2.9286 -1.1755
  139CHL1   C1116506   0.785   6.760   3.591  0.1610 -0.4360  0.2875
  139CHL1  H11A16507   0.844   6.830   3.528 -1.6300 -0.2937 -1.3151
  139CHL1  H11B16508   0.809   6.654   3.568  0.2914 -0.3011 -0.1980
  139CHL1    C916509   0.642   6.793   3.543 -0.0611 -0.0646 -0.0891
  139CHL1    H916510   0.588   6.723   3.611  1.5691 -1.3066  0.0153
  139CHL1   C1016511   0.603   6.738   3.397  0.0471  0.4107 -0.3094
  139CHL1   C1916512   0.708   6.787   3.291 -0.2735 -0.1760  0.5760
  139CHL1  H19A16513   0.809   6.743   3.304  0.5965  1.3181 -0.7476
  139CHL1  H19B16514   0.675   6.753   3.190 -0.5650 -0.7171  0.8477
  139CHL1  H19C16515   0.707   6.898   3.292  1.0506 -0.1436 -0.1343
  139CHL1    C116516   0.603   6.584   3.398  0.2401  0.0904  0.0995
  139CHL1   H1A16517   0.699   6.529   3.406 -1.4276 -2.8414  1.5034
  139CHL1   H1B16518   0.556   6.546   3.491  1.2957 -1.3156  0.0916
  139CHL1    C216519   0.521   6.512   3.282 -0.4950  0.0190  0.0338
  139CHL1   H2A16520   0.521   6.402   3.288  2.0393 -0.0747 -0.5826
  139CHL1   H2B16521   0.566   6.543   3.185 -0.9675  1.4122  0.2353
  139CHL1   C2016522   0.899   7.039   3.986 -0.2144  0.7099 -0.0650
  139CHL1   H2016523   0.948   7.128   3.940  0.2783  0.8122  0.6339
  139CHL1   C2116524   0.994   6.911   3.988  1.0083 -0.3284  0.6805
  139CHL1  H21A16525   1.026   6.893   3.883 -1.7839  1.4178 -0.6013
  139CHL1  H21B16526   0.928   6.829   4.023  0.2591 -0.1069 -0.1560
  139CHL1  H21C16527   1.082   6.921   4.056  2.8586 -1.2517 -1.4618
  139CHL1   C2216528   0.877   7.075   4.130  0.5503 -0.3869  0.4422
  139CHL1  H22A16529   0.795   7.149   4.137 -1.0894 -2.0169 -0.5703
  139CHL1  H22B16530   0.829   6.993   4.188  0.4863 -0.1097  0.7844
  139CHL1   C2316531   1.003   7.129   4.208  0.0945  0.0566  0.6954
  139CHL1  H23A16532   1.063   7.040   4.236  0.2121 -0.0182  0.2209
  139CHL1  H23B16533   1.065   7.199   4.147  1.7411 -0.6168  1.5403
  139CHL1   C2416534   0.963   7.213   4.331 -0.3480 -0.2997  0.5826
  139CHL1  H24A16535   0.897   7.295   4.296 -1.3059 -0.5641  1.7034
  139CHL1  H24B16536   0.898   7.153   4.399  1.4677 -0.7015  2.0561
  139CHL1   C2516537   1.074   7.276   4.410 -0.5349 -0.0571 -0.5262
  139CHL1   H2516538   1.140   7.332   4.341  1.8570 -2.7514 -0.5941
  139CHL1   C2616539   1.026   7.371   4.514  0.3239  0.7923 -0.8852
  139CHL1  H26A16540   0.967   7.457   4.474 -0.6160  1.5634  1.8918
  139CHL1  H26B16541   0.962   7.337   4.599  0.0122  0.6133 -1.1853
  139CHL1  H26C16542   1.117   7.407   4.565  1.4522  0.9676 -2.9178
  139CHL1   C2716543   1.177   7.168   4.465  0.0361 -0.2996  0.0737
  139CHL1  H27A16544   1.262   7.233   4.496  0.3351  0.6752 -2.4727
  139CHL1  H27B16545   1.131   7.124   4.556  1.6141  1.0536  1.5995
  139CHL1  H27C16546   1.205   7.095   4.387 -3.5048 -1.8511  0.1084
  140CHL1    C316547   7.154   0.746   3.460 -0.1882 -0.0232  0.1801
  140CHL1    H316548   7.176   0.854   3.447  1.0470 -0.4064 -1.2894
  140CHL1    O316549   7.089   0.700   3.347  0.1552 -0.5272  0.7332
  140CHL1   H3'16550   7.161   0.689   3.284 -0.3705  0.0585  0.0085
  140CHL1    C416551   7.289   0.678   3.500  0.5189  0.3280  0.0622
  140CHL1   H4A16552   7.275   0.568   3.505 -1.5277  0.6068  1.6775
  140CHL1   H4B16553   7.366   0.693   3.421  1.5271 -0.9335  0.7703
  140CHL1    C516554   7.338   0.733   3.628  0.1493 -0.9425  0.5167
  140CHL1    C616555   7.457   0.794   3.634  0.5978  0.2425 -0.5262
  140CHL1    H616556   7.528   0.796   3.550  0.6334  4.1238 -0.5976
  140CHL1    C716557   7.515   0.860   3.749  0.2394 -0.0886  0.1816
  140CHL1   H7A16558   7.620   0.823   3.753  0.2007 -0.1399  2.4064
  140CHL1   H7B16559   7.512   0.970   3.738  0.9124 -0.0696  0.1065
  140CHL1    C816560   7.439   0.825   3.873  0.5661  0.0569 -0.0179
  140CHL1    H816561   7.462   0.719   3.896 -0.6853 -0.4035 -0.7850
  140CHL1   C1416562   7.473   0.919   3.992 -0.3811 -0.4611  0.1292
  140CHL1   H1416563   7.436   1.021   3.969  1.4710  0.5545  1.3332
  140CHL1   C1516564   7.626   0.944   4.032 -0.4448 -0.4305 -0.6412
  140CHL1  H15A16565   7.678   0.846   4.037 -1.3861 -0.8973  2.5575
  140CHL1  H15B16566   7.672   1.015   3.961  1.1411  0.0177  0.7525
  140CHL1   C1616567   7.611   1.004   4.172 -0.4632  0.4989  0.2018
  140CHL1  H16A16568   7.690   0.959   4.237 -1.0777  0.3264  0.8482
  140CHL1  H16B16569   7.636   1.112   4.173  1.9471  0.0389 -1.7815
  140CHL1   C1716570   7.462   0.979   4.221  0.7767  0.4239  0.2383
  140CHL1   H1716571   7.413   1.076   4.197 -0.1325  0.2326  1.2270
  140CHL1   C1316572   7.396   0.879   4.123 -0.9068 -0.1789  1.0338
  140CHL1   C1816573   7.430   0.732   4.160  0.4331  0.0830  0.6907
  140CHL1  H18A16574   7.538   0.717   4.180  0.1691 -0.8280  1.5635
  140CHL1  H18B16575   7.373   0.702   4.251 -1.5177 -1.2440 -0.8890
  140CHL1  H18C16576   7.408   0.663   4.076  1.9958 -0.8486  0.9919
  140CHL1   C1216577   7.254   0.901   4.096  1.0659  0.3320 -0.0614
  140CHL1  H12A16578   7.194   0.874   4.185 -1.6048  1.8930 -1.2678
  140CHL1  H12B16579   7.224   1.006   4.077 -1.6842 -0.6461 -1.8628
  140CHL1   C1116580   7.193   0.813   3.985 -0.1213  0.8693 -0.0620
  140CHL1  H11A16581   7.214   0.712   4.027  0.5547  1.5490  1.3100
  140CHL1  H11B16582   7.082   0.825   3.981 -0.3195 -0.1520  1.4366
  140CHL1    C916583   7.286   0.822   3.852  0.2193 -0.1879  0.6987
  140CHL1    H916584   7.258   0.926   3.825 -1.2413 -0.5996  0.5181
  140CHL1   C1016585   7.234   0.740   3.740 -0.5293 -0.6868 -0.2540
  140CHL1   C1916586   7.212   0.591   3.781  0.3224  0.4966 -0.2897
  140CHL1  H19A16587   7.117   0.596   3.838 -0.8155  0.4000 -2.0978
  140CHL1  H19B16588   7.202   0.518   3.697  0.7914 -0.4043  0.4198
  140CHL1  H19C16589   7.298   0.552   3.841  0.5779 -0.0006 -0.9687
  140CHL1    C116590   7.103   0.803   3.696 -0.2026  0.2602 -0.0616
  140CHL1   H1A16591   7.036   0.791   3.784 -0.2157  1.7391  0.1488
  140CHL1   H1B16592   7.121   0.912   3.690  2.4220 -0.0422  1.0268
  140CHL1    C216593   7.051   0.741   3.571 -0.4019  0.4604  0.7996
  140CHL1   H2A16594   6.959   0.787   3.527  0.1413 -1.3313 -2.5077
  140CHL1   H2B16595   7.011   0.640   3.591 -0.1582  0.3367  0.6610
  140CHL1   C2016596   7.433   0.957   4.371 -0.7191 -0.2499  0.2526
  140CHL1   H2016597   7.486   1.047   4.407  0.2044  0.2079 -2.0750
  140CHL1   C2116598   7.505   0.838   4.435 -0.3889 -1.1798 -0.4336
  140CHL1  H21A16599   7.502   0.845   4.546 -3.3789 -0.0145 -0.4935
  140CHL1  H21B16600   7.613   0.830   4.409  0.1799  2.6706  0.0328
  140CHL1  H21C16601   7.456   0.743   4.408 -0.4022 -0.5061 -3.1121
  140CHL1   C2216602   7.290   0.983   4.422  0.3973 -0.5143  0.6483
  140CHL1  H22A16603   7.224   0.902   4.383  0.9699 -0.5945 -0.1829
  140CHL1  H22B16604   7.288   0.975   4.532 -3.0622  3.2388  1.0983
  140CHL1   C2316605   7.245   1.133   4.398  0.3389  0.1669  0.1974
  140CHL1  H23A16606   7.328   1.201   4.426  1.4753 -0.8219 -0.6575
  140CHL1  H23B16607   7.236   1.158   4.291  1.3203  0.7534  0.2429
  140CHL1   C2416608   7.108   1.172   4.461 -0.1361 -0.5109 -0.6970
  140CHL1  H24A16609   7.033   1.095   4.433  1.0575 -1.7960 -0.4640
  140CHL1  H24B16610   7.126   1.178   4.570 -1.5175  0.5926 -0.4944
  140CHL1   C2516611   7.057   1.318   4.426 -1.0460 -0.0403 -0.6453
  140CHL1   H2516612   7.152   1.375   4.435 -0.9709 -0.3384  0.6088
  140CHL1   C2616613   6.964   1.370   4.541  0.5916 -0.1329 -0.5440
  140CHL1  H26A16614   6.935   1.472   4.509  1.2455 -0.2800 -1.6768
  140CHL1  H26B16615   6.876   1.303   4.545 -0.4113  0.9421 -2.7737
  140CHL1  H26C16616   7.013   1.375   4.641 -1.0899  0.6483  0.2833
  140CHL1   C2716617   7.006   1.330   4.287  0.6758 -0.0154  0.4163
  140CHL1  H27A16618   7.082   1.290   4.216 -1.3998 -0.3195 -1.7353
  140CHL1  H27B16619   6.916   1.265   4.289  0.1868  0.6492  0.2401
  140CHL1  H27C16620   6.981   1.433   4.256  0.7221 -0.7779 -2.4279
  141DOPC     N16621   1.640   1.957   7.022 -0.2120 -0.2516 -0.5374
  141DOPC   C1216622   1.762   1.913   6.931 -0.4762  0.4798  0.7221
  141DOPC  H12A16623   1.857   1.923   6.982  0.4781  0.7763 -1.0547
  141DOPC  H12B16624   1.778   1.983   6.851  2.1076 -1.4402 -0.5970
  141DOPC   C1316625   1.511   1.910   6.964  1.3058  0.2743  0.3193
  141DOPC  H13A16626   1.509   1.803   6.980  1.4210  0.3298  0.7271
  141DOPC  H13B16627   1.417   1.946   7.004  0.9661  0.2763 -0.4686
  141DOPC  H13C16628   1.510   1.925   6.857  1.0454  1.5598  0.4795
  141DOPC   C1416629   1.626   2.108   7.028  0.0826  0.1992 -0.3816
  141DOPC  H14A16630   1.536   2.122   7.087 -0.8461 -1.9715 -1.1823
  141DOPC  H14B16631   1.709   2.154   7.079 -0.3210  0.4068  0.1031
  141DOPC  H14C16632   1.623   2.152   6.930  3.6381 -0.0534 -0.7406
  141DOPC   C1516633   1.663   1.903   7.160  0.2149  0.0832 -0.4764
  141DOPC  H15A16634   1.645   1.796   7.165 -2.5316  0.5079 -0.0865
  141DOPC  H15B16635   1.597   1.949   7.231  0.4107  1.6004 -1.2302
  141DOPC  H15C16636   1.762   1.928   7.197 -1.1955  3.1999  1.6038
  141DOPC   C1116637   1.755   1.773   6.862 -0.0448  0.4255  0.1013
  141DOPC  H11A16638   1.660   1.769   6.805 -0.3144  2.6509  0.2956
  141DOPC  H11B16639   1.845   1.777   6.797  0.6981  2.1806  1.1458
  141DOPC     P16640   1.895   1.631   7.039 -0.0506 -0.1732  0.8060
  141DOPC   O1316641   1.864   1.539   7.148 -0.3492  0.2634 -0.1143
  141DOPC   O1416642   1.963   1.756   7.073  0.4873  0.0896  0.3456
  141DOPC   O1216643   1.757   1.673   6.967  0.4372 -0.3369  0.1676
  141DOPC   O1116644   1.977   1.560   6.925  0.6118 -0.6273  0.0173
  141DOPC    C116645   1.929   1.472   6.827 -0.1469  0.2742 -0.4359
  141DOPC    HA16646   1.830   1.507   6.789  0.6807  3.2880 -0.0671
  141DOPC    HB16647   1.923   1.368   6.867 -0.7829  0.1986 -0.7150
  141DOPC    C216648   2.031   1.472   6.714  0.5108  0.1844  0.2288
  141DOPC    HS16649   2.124   1.415   6.734  0.4784 -0.5645 -1.5512
  141DOPC   O2116650   2.044   1.605   6.666 -0.3747 -0.4892 -0.0549
  141DOPC   C2116651   2.151   1.676   6.715 -0.0508 -0.4004  0.1349
  141DOPC   O2216652   2.236   1.636   6.792  0.9631 -0.0725  0.3537
  141DOPC   C2216653   2.157   1.812   6.651  1.1284 -0.2555  0.0390
  141DOPC   H2R16654   2.180   1.887   6.731 -0.2361  2.3835 -1.8792
  141DOPC   H2S16655   2.059   1.849   6.614  0.7348 -0.6310  0.6840
  141DOPC    C316656   1.978   1.387   6.594 -0.1883  0.1773 -0.2250
  141DOPC    HX16657   1.971   1.283   6.632 -0.1608  1.6232  4.2167
  141DOPC    HY16658   2.050   1.392   6.510  2.9478 -0.3652  2.2563
  141DOPC   O3116659   1.844   1.430   6.548  0.8039  0.6533 -0.4631
  141DOPC   C3116660   1.811   1.394   6.433  0.2633  1.0886  1.1641
  141DOPC   O3216661   1.870   1.322   6.351  0.2781 -0.3997  0.5532
  141DOPC   C3216662   1.676   1.456   6.406  0.1328  0.1279  0.0303
  141DOPC   H2X16663   1.686   1.464   6.296 -2.0558 -0.7156 -0.2869
  141DOPC   H2Y16664   1.591   1.384   6.411 -0.5817  1.0182  1.3442
  141DOPC   C2316665   2.255   1.806   6.532 -0.1834  0.6069  0.1060
  141DOPC   H3R16666   2.348   1.756   6.565  0.5830  3.1285  2.0513
  141DOPC   H3S16667   2.275   1.903   6.482 -2.5704  0.0632 -2.1520
  141DOPC   C2416668   2.211   1.715   6.408 -0.2482  0.1279 -0.4514
  141DOPC   H4R16669   2.199   1.771   6.313  2.9458  1.3169 -0.2964
  141DOPC   H4S16670   2.110   1.676   6.430  0.3594 -0.6590  1.1181
  141DOPC   C2516671   2.305   1.598   6.377  0.3422 -0.2492 -0.3287
  141DOPC   H5R16672   2.320   1.549   6.476  0.4128  2.9362  1.3928
  141DOPC   H5S16673   2.408   1.630   6.350  0.0787 -0.4057 -1.5938
  141DOPC   C2616674   2.264   1.493   6.273 -0.2630  0.1624 -0.4877
  141DOPC   H6R16675   2.166   1.458   6.313  0.8187  0.2761  2.5724
  141DOPC   H6S16676   2.334   1.408   6.284 -2.4559 -1.5717  1.1095
  141DOPC   C2716677   2.272   1.545   6.126 -0.3293  0.2943 -0.5208
  141DOPC   H7R16678   2.383   1.556   6.121 -0.1305 -1.0245  0.5067
  141DOPC   H7S16679   2.233   1.649   6.117 -1.9112 -0.2286 -0.0326
  141DOPC   C2816680   2.204   1.452   6.027 -0.2915 -0.2594 -0.0329
  141DOPC   H8R16681   2.244   1.349   6.040 -1.8468 -1.1059 -1.6229
  141DOPC   H8S16682   2.233   1.478   5.923 -0.3639 -0.9860 -0.2429
  141DOPC   C2916683   2.050   1.430   6.043 -0.1194 -0.8123  0.3233
  141DOPC   H9R16684   2.017   1.344   6.103 -1.2459 -0.1197  0.7195
  141DOPC  C21016685   1.963   1.519   5.996 -0.3215 -0.0415 -0.5026
  141DOPC  H10R16686   1.856   1.497   6.010 -0.8600  0.6950 -2.9250
  141DOPC  C21116687   1.986   1.630   5.900 -0.0516  0.2707  0.4679
  141DOPC  H11R16688   2.093   1.629   5.869 -0.3113  0.0309 -0.4419
  141DOPC  H11S16689   1.953   1.732   5.932 -2.6687 -0.2700 -0.2607
  141DOPC  C21216690   1.912   1.610   5.767 -0.0291 -0.0121 -0.1781
  141DOPC  H12R16691   1.930   1.687   5.689  0.5556  0.1031  0.0659
  141DOPC  H12S16692   1.802   1.614   5.778 -0.0279  1.9766 -0.3960
  141DOPC  C21316693   1.960   1.483   5.697 -0.1311 -0.2952 -0.6422
  141DOPC  H13R16694   1.943   1.392   5.759 -1.5034  0.0816 -0.4230
  141DOPC  H13S16695   2.070   1.495   5.687 -0.1208 -0.0105 -0.2057
  141DOPC  C21416696   1.884   1.460   5.567  0.1060  0.0522 -0.5865
  141DOPC  H14R16697   1.889   1.549   5.501 -0.8101 -1.1125 -2.3124
  141DOPC  H14S16698   1.776   1.445   5.587  0.1346  1.1354  0.4624
  141DOPC  C21516699   1.933   1.344   5.485 -0.0369  0.9602  0.7248
  141DOPC  H15R16700   1.942   1.259   5.557 -0.7860  0.9845  0.8463
  141DOPC  H15S16701   2.037   1.358   5.448  0.5855 -0.4818  1.8028
  141DOPC  C21616702   1.846   1.300   5.369 -0.5084  0.0757  0.1085
  141DOPC  H16R16703   1.875   1.198   5.334  1.4024  0.3988  0.6180
  141DOPC  H16S16704   1.871   1.362   5.280 -0.6907  0.4201  0.2992
  141DOPC  C21716705   1.692   1.296   5.381 -0.2776  0.9368  0.8787
  141DOPC  H17R16706   1.650   1.399   5.380 -0.0971  1.0054  0.0972
  141DOPC  H17S16707   1.663   1.247   5.477  1.4627 -3.2224 -0.4990
  141DOPC  C21816708   1.630   1.215   5.269 -0.2520 -0.5066  0.1336
  141DOPC  H18R16709   1.673   1.113   5.262 -1.6069 -1.2277  1.6581
  141DOPC  H18S16710   1.639   1.271   5.174 -3.3892 -1.7792 -1.0424
  141DOPC  H18T16711   1.527   1.192   5.304  0.3127  1.0417  3.1958
  141DOPC   C3316712   1.649   1.599   6.475 -0.0514 -0.0074  0.8660
  141DOPC   H3X16713   1.632   1.583   6.584 -2.1039  0.1646  0.6052
  141DOPC   H3Y16714   1.559   1.649   6.434 -0.2912  0.0686  1.4699
  141DOPC   C3416715   1.763   1.702   6.458  0.2143  0.2090  1.0195
  141DOPC   H4X16716   1.851   1.652   6.504  0.0715 -0.7757  0.2632
  141DOPC   H4Y16717   1.741   1.795   6.515 -0.0822  0.6728  0.1595
  141DOPC   C3516718   1.796   1.753   6.310 -0.2302 -0.4318 -0.3139
  141DOPC   H5X16719   1.702   1.769   6.253 -1.1990  0.1224  1.3765
  141DOPC   H5Y16720   1.847   1.680   6.243 -1.7662  0.4728 -2.5559
  141DOPC   C3616721   1.879   1.886   6.312  0.1447 -0.2490 -0.3220
  141DOPC   H6X16722   1.804   1.968   6.321 -0.1672 -0.4407 -1.0933
  141DOPC   H6Y16723   1.951   1.879   6.396  0.7491 -0.8382 -0.8767
  141DOPC   C3716724   1.961   1.907   6.186 -0.0250  0.4724  0.0019
  141DOPC   H7X16725   2.013   1.811   6.171  1.3066  1.3639 -1.3468
  141DOPC   H7Y16726   1.891   1.912   6.099  0.2027  0.5524 -0.1792
  141DOPC   C3816727   2.073   2.011   6.180 -0.4308 -0.2058  0.3429
  141DOPC   H8X16728   2.154   1.999   6.256  1.8760 -1.1948 -2.1273
  141DOPC   H8Y16729   2.025   2.107   6.207 -0.0337  0.2744 -0.6202
  141DOPC   C3916730   2.150   2.007   6.050 -0.5679 -0.3346  0.0073
  141DOPC   H9X16731   2.231   1.936   6.028 -0.0981  0.5310 -1.1919
  141DOPC  C31016732   2.131   2.100   5.950 -0.2053  0.3032  0.0328
  141DOPC  H10X16733   2.188   2.089   5.857  4.0978  1.4597  2.2835
  141DOPC  C31116734   2.014   2.192   5.935  0.5682 -0.1194 -0.8775
  141DOPC  H11X16735   2.063   2.291   5.938 -0.0533  0.1712  0.6433
  141DOPC  H11Y16736   1.944   2.195   6.022  1.3605  0.0718 -0.2394
  141DOPC  C31216737   1.952   2.171   5.793 -0.0845 -0.9683  0.1307
  141DOPC  H12X16738   2.038   2.171   5.722  0.4795 -2.4088  0.7746
  141DOPC  H12Y16739   1.882   2.253   5.765  1.9604  0.4815 -1.0327
  141DOPC  C31316740   1.879   2.028   5.780  0.2453  0.2973  0.4353
  141DOPC  H13X16741   1.938   1.965   5.709 -1.9559 -1.0605 -0.2757
  141DOPC  H13Y16742   1.896   1.990   5.883  0.3416  0.8367  0.6207
  141DOPC  C31416743   1.730   2.051   5.747 -0.8571 -0.2331 -0.0931
  141DOPC  H14X16744   1.675   2.075   5.841 -1.9027 -2.7568  0.0321
  141DOPC  H14Y16745   1.704   2.135   5.679  0.9212 -0.5216 -1.1806
  141DOPC  C31516746   1.661   1.926   5.688 -0.4800 -0.2170  0.1708
  141DOPC  H15X16747   1.554   1.945   5.663  0.2015  2.0511 -1.3815
  141DOPC  H15Y16748   1.667   1.844   5.763  4.8276 -0.2320  0.0924
  141DOPC  C31616749   1.736   1.875   5.562 -0.5600  0.2675 -0.2504
  141DOPC  H16X16750   1.755   1.966   5.502  1.8638  0.8510  1.2926
  141DOPC  H16Y16751   1.841   1.844   5.577 -0.3358  1.1050 -0.0564
  141DOPC  C31716752   1.654   1.768   5.484  0.1099 -0.6530 -0.1019
  141DOPC  H17X16753   1.674   1.676   5.543  0.3077 -1.7977 -1.8635
  141DOPC  H17Y16754   1.545   1.784   5.478  0.2700  1.1281  1.0344
  141DOPC  C31816755   1.712   1.751   5.340  0.5991  0.6224 -0.1476
  141DOPC  H18X16756   1.684   1.653   5.295 -0.6787  0.6259  0.5940
  141DOPC  H18Y16757   1.691   1.838   5.274  2.6986  2.9485  2.0525
  141DOPC  H18Z16758   1.823   1.759   5.352  0.5745 -0.2791  0.7708
  142DOPC     N16759   2.928   3.186   6.741  0.1156  0.3939 -0.5092
  142DOPC   C1216760   2.886   3.058   6.805  0.4293  0.0401 -0.1572
  142DOPC  H12A16761   2.805   3.085   6.871  0.0237 -2.9095  0.6925
  142DOPC  H12B16762   2.971   3.023   6.862  0.1710  1.2147  1.0055
  142DOPC   C1316763   2.962   3.279   6.855  0.6924  0.0801 -0.4375
  142DOPC  H13A16764   2.974   3.379   6.817  0.5825  0.2546 -0.0171
  142DOPC  H13B16765   2.884   3.278   6.929  1.0417 -1.3891 -0.0602
  142DOPC  H13C16766   3.054   3.250   6.903  1.3970 -0.2433 -1.9095
  142DOPC   C1416767   2.817   3.248   6.664 -0.7944  0.0124  0.3514
  142DOPC  H14A16768   2.855   3.341   6.626 -0.5463 -1.2708 -2.8394
  142DOPC  H14B16769   2.802   3.181   6.581 -2.4126  1.0631 -0.2510
  142DOPC  H14C16770   2.723   3.273   6.710 -2.4822 -0.5932 -2.5152
  142DOPC   C1516771   3.049   3.174   6.660  0.0885  0.5791 -0.2336
  142DOPC  H15A16772   3.136   3.157   6.721 -0.1373  1.4732  0.3609
  142DOPC  H15B16773   3.063   3.261   6.597 -1.9331  1.3017  0.2555
  142DOPC  H15C16774   3.028   3.094   6.591 -1.4746  0.6542  0.1123
  142DOPC   C1116775   2.846   2.942   6.716 -0.4632 -0.2734 -0.2864
  142DOPC  H11A16776   2.914   2.939   6.629 -1.7175  2.7936 -1.5452
  142DOPC  H11B16777   2.856   2.849   6.775 -0.1539 -0.9058 -1.3177
  142DOPC     P16778   2.584   2.907   6.740  0.1250 -0.3562  0.2415
  142DOPC   O1316779   2.470   2.964   6.670  0.3418 -0.1966 -0.0383
  142DOPC   O1416780   2.596   2.945   6.880 -0.2846 -0.1538 -0.3010
  142DOPC   O1216781   2.716   2.957   6.660 -0.0287  0.0918 -0.0530
  142DOPC   O1116782   2.586   2.753   6.713  0.6549 -0.0641 -0.3782
  142DOPC    C116783   2.599   2.714   6.575  0.0199  0.0702  0.4396
  142DOPC    HA16784   2.639   2.790   6.505 -2.6337  0.7176 -0.5194
  142DOPC    HB16785   2.494   2.703   6.540  0.6817  0.0234 -1.6747
  142DOPC    C216786   2.685   2.587   6.547  0.6759 -0.1987  0.7981
  142DOPC    HS16787   2.708   2.586   6.438  3.3896 -1.6827  1.2985
  142DOPC   O2116788   2.601   2.470   6.585  0.0526 -0.7397 -0.4967
  142DOPC   C2116789   2.644   2.364   6.524 -0.2308  0.3601  0.1656
  142DOPC   O2216790   2.712   2.356   6.423 -0.1410  0.2514 -0.4389
  142DOPC   C2216791   2.584   2.237   6.586  0.1133 -0.7388  0.2059
  142DOPC   H2R16792   2.474   2.254   6.594 -0.0665 -1.8673  0.3927
  142DOPC   H2S16793   2.627   2.222   6.687 -0.2962  0.0537  0.5081
  142DOPC    C316794   2.828   2.591   6.615  0.3549  0.4952  0.0828
  142DOPC    HX16795   2.807   2.580   6.723 -2.4925  1.2880 -0.3016
  142DOPC    HY16796   2.863   2.694   6.594 -0.4390  0.5369 -1.1891
  142DOPC   O3116797   2.923   2.491   6.566 -0.0129 -0.2924  0.5432
  142DOPC   C3116798   2.971   2.521   6.444 -0.0560  0.2348 -0.1807
  142DOPC   O3216799   2.935   2.617   6.380 -0.3857  0.5291 -0.2006
  142DOPC   C3216800   3.072   2.414   6.413 -0.6857  0.1984  0.4532
  142DOPC   H2X16801   3.115   2.364   6.503 -0.5353 -1.7030 -0.6176
  142DOPC   H2Y16802   3.024   2.338   6.347  0.8853  0.7722 -1.4429
  142DOPC   C2316803   2.618   2.109   6.516  0.3616 -0.1784  0.0783
  142DOPC   H3R16804   2.590   2.020   6.576 -1.7540 -0.0456 -0.6256
  142DOPC   H3S16805   2.727   2.103   6.495  0.6057 -1.4230  1.4887
  142DOPC   C2416806   2.534   2.091   6.385  0.8041 -0.5313 -0.2421
  142DOPC   H4R16807   2.554   2.173   6.313  0.6634  0.6076  0.9816
  142DOPC   H4S16808   2.429   2.092   6.421  0.8028 -0.7144 -0.2410
  142DOPC   C2516809   2.574   1.963   6.315  0.2555  0.6938  0.5004
  142DOPC   H5R16810   2.575   1.883   6.392  1.4737 -0.0518 -0.2551
  142DOPC   H5S16811   2.680   1.968   6.281 -0.0143 -0.2983 -0.5453
  142DOPC   C2616812   2.486   1.936   6.186  0.3555  0.2070 -0.6620
  142DOPC   H6R16813   2.488   2.030   6.127 -0.6440  1.9976  1.9753
  142DOPC   H6S16814   2.378   1.919   6.205  0.2662  0.5712 -0.8327
  142DOPC   C2716815   2.532   1.813   6.103 -0.3975  0.0472 -0.0830
  142DOPC   H7R16816   2.508   1.722   6.162 -0.6221  0.4519  0.4534
  142DOPC   H7S16817   2.642   1.832   6.093 -0.5580  1.8885  1.1774
  142DOPC   C2816818   2.476   1.806   5.962  0.3247  0.4611 -0.2488
  142DOPC   H8R16819   2.476   1.909   5.919 -1.6600 -0.2455 -2.0940
  142DOPC   H8S16820   2.370   1.777   5.977  0.9750 -1.5096  0.7980
  142DOPC   C2916821   2.550   1.701   5.880 -0.0472 -0.7447 -0.9947
  142DOPC   H9R16822   2.642   1.661   5.926  0.5098  0.8438 -0.6582
  142DOPC  C21016823   2.509   1.645   5.763  0.0713 -0.8627 -0.2965
  142DOPC  H10R16824   2.575   1.570   5.718 -0.8073 -1.8910  0.0967
  142DOPC  C21116825   2.382   1.680   5.697  0.5011 -0.3594  0.3697
  142DOPC  H11R16826   2.328   1.755   5.758 -0.5047 -0.2267 -0.6397
  142DOPC  H11S16827   2.311   1.597   5.676 -0.6397  0.7845 -0.4740
  142DOPC  C21216828   2.409   1.743   5.555  0.0494  0.2364 -0.0256
  142DOPC  H12R16829   2.486   1.683   5.502 -0.0491 -0.5623  0.6922
  142DOPC  H12S16830   2.441   1.847   5.576  0.6327  0.1007 -0.2515
  142DOPC  C21316831   2.274   1.757   5.478  0.0734  0.3198  0.8329
  142DOPC  H13R16832   2.201   1.820   5.533 -0.9564 -0.6784  0.6267
  142DOPC  H13S16833   2.238   1.654   5.458  1.7480 -0.5767  2.2002
  142DOPC  C21416834   2.288   1.829   5.342 -0.1586 -0.2511 -0.5168
  142DOPC  H14R16835   2.375   1.775   5.298  0.4435 -2.0896  2.5549
  142DOPC  H14S16836   2.326   1.932   5.362  0.0567 -0.5049  0.4645
  142DOPC  C21516837   2.168   1.823   5.242 -0.3041 -0.1659  0.5020
  142DOPC  H15R16838   2.168   1.901   5.164 -1.7097  1.4620  2.0509
  142DOPC  H15S16839   2.071   1.841   5.292 -1.1491 -0.3614 -1.0069
  142DOPC  C21616840   2.146   1.686   5.179 -0.0154 -0.1761  0.3593
  142DOPC  H16R16841   2.111   1.615   5.256 -1.0594  2.1188  2.1279
  142DOPC  H16S16842   2.244   1.651   5.141 -0.4892  0.4734 -1.5970
  142DOPC  C21716843   2.056   1.682   5.052  0.0842 -0.5043 -0.4273
  142DOPC  H17R16844   2.081   1.761   4.978 -2.6459  0.6771 -0.2132
  142DOPC  H17S16845   1.957   1.710   5.093  0.7626 -1.9578  2.4181
  142DOPC  C21816846   2.056   1.548   4.989 -0.3457  0.2234  0.1890
  142DOPC  H18R16847   2.154   1.540   4.937 -0.6232  1.0777 -0.4987
  142DOPC  H18S16848   1.974   1.546   4.914 -0.4961 -1.4351  0.3653
  142DOPC  H18T16849   2.054   1.458   5.053 -1.6580  0.0750 -0.0375
  142DOPC   C3316850   3.200   2.468   6.335 -0.8423 -0.5983 -0.1133
  142DOPC   H3X16851   3.284   2.396   6.323  1.5757  1.6693  1.9996
  142DOPC   H3Y16852   3.229   2.554   6.398 -2.7964 -0.1665  0.2727
  142DOPC   C3416853   3.154   2.519   6.196  0.8956  0.5979 -0.0367
  142DOPC   H4X16854   3.082   2.603   6.207 -1.5303 -1.5315  1.4284
  142DOPC   H4Y16855   3.103   2.438   6.139  3.9491 -1.2539 -0.3048
  142DOPC   C3516856   3.282   2.552   6.121 -0.3096  0.0690  0.9181
  142DOPC   H5X16857   3.343   2.460   6.108 -0.1668  0.2410  0.3054
  142DOPC   H5Y16858   3.337   2.633   6.175 -0.4358  0.9345 -0.2037
  142DOPC   C3616859   3.254   2.603   5.980 -0.8209  0.5541  0.2748
  142DOPC   H6X16860   3.206   2.522   5.922  0.8674 -0.1748 -0.1587
  142DOPC   H6Y16861   3.180   2.686   5.982 -0.7788  0.6207 -0.6210
  142DOPC   C3716862   3.367   2.663   5.900 -0.4756  0.3211  0.2334
  142DOPC   H7X16863   3.418   2.746   5.954  2.2011 -0.1914 -1.3212
  142DOPC   H7Y16864   3.450   2.593   5.877 -0.9017  0.1096 -0.7245
  142DOPC   C3816865   3.312   2.722   5.769 -0.0706 -0.4927  0.4725
  142DOPC   H8X16866   3.241   2.801   5.801 -0.1997 -0.4136 -0.0142
  142DOPC   H8Y16867   3.253   2.663   5.696 -0.0749  3.2667 -2.8319
  142DOPC   C3916868   3.429   2.791   5.706 -0.8769  0.3392  0.0255
  142DOPC   H9X16869   3.524   2.743   5.731 -0.5153  1.2539  0.4536
  142DOPC  C31016870   3.418   2.902   5.626 -0.7842 -0.2930 -0.0279
  142DOPC  H10X16871   3.503   2.956   5.582 -0.4283  0.1960  1.2187
  142DOPC  C31116872   3.286   2.971   5.604 -0.2228 -0.2177  0.5921
  142DOPC  H11X16873   3.271   3.061   5.669 -1.3279 -0.6384  0.9557
  142DOPC  H11Y16874   3.195   2.909   5.620  0.1262 -2.1355 -3.6116
  142DOPC  C31216875   3.274   3.014   5.454  0.5959 -0.0661 -0.6028
  142DOPC  H12X16876   3.357   3.083   5.428 -0.3182  1.9863  1.6108
  142DOPC  H12Y16877   3.179   3.070   5.441 -0.4064 -1.0766  1.7512
  142DOPC  C31316878   3.248   2.891   5.358  0.0777 -0.3022  0.6542
  142DOPC  H13X16879   3.334   2.821   5.366  1.7655  1.3066 -2.1521
  142DOPC  H13Y16880   3.154   2.843   5.394  0.6860 -0.5894  1.9269
  142DOPC  C31416881   3.242   2.928   5.211 -0.4986 -1.0638  0.0884
  142DOPC  H14X16882   3.149   2.983   5.188  0.5515  1.1507  0.8672
  142DOPC  H14Y16883   3.331   2.992   5.193 -0.0272 -0.9462  2.5187
  142DOPC  C31516884   3.243   2.798   5.131  0.0455 -1.0787  0.2888
  142DOPC  H15X16885   3.140   2.758   5.139  0.0657 -1.2292 -0.2239
  142DOPC  H15Y16886   3.326   2.734   5.169  0.6748 -0.1243  0.5930
  142DOPC  C31616887   3.284   2.828   4.985  0.6611 -0.0090  0.7478
  142DOPC  H16X16888   3.211   2.894   4.933  0.3686 -0.2870  0.8004
  142DOPC  H16Y16889   3.377   2.889   4.988  0.5851  0.4098 -2.1693
  142DOPC  C31716890   3.311   2.695   4.911  0.6429  0.1694  0.2380
  142DOPC  H17X16891   3.341   2.718   4.806 -0.2258  0.4583  0.0387
  142DOPC  H17Y16892   3.398   2.643   4.955  0.9861 -0.6098 -1.2869
  142DOPC  C31816893   3.185   2.606   4.908  0.7546  0.1571 -0.5167
  142DOPC  H18X16894   3.140   2.586   5.007  1.4763 -2.0315 -0.5823
  142DOPC  H18Y16895   3.109   2.664   4.851  0.3894 -2.2887 -2.6670
  142DOPC  H18Z16896   3.193   2.508   4.857 -0.1839 -0.7157  0.9476
  143DOPC     N16897   1.467   4.060   6.873 -0.0720  0.0041  0.3506
  143DOPC   C1216898   1.376   3.945   6.875  0.0069  0.6602 -0.4896
  143DOPC  H12A16899   1.405   3.870   6.802  1.5130 -0.3448  1.0556
  143DOPC  H12B16900   1.279   3.985   6.852 -0.4273  0.2864  0.6479
  143DOPC   C1316901   1.590   4.034   6.956  0.8368  0.7383 -0.2534
  143DOPC  H13A16902   1.559   4.019   7.059 -1.1561  2.1763 -0.5816
  143DOPC  H13B16903   1.628   3.938   6.924 -1.3058 -0.1920 -0.1779
  143DOPC  H13C16904   1.669   4.106   6.949  1.0949  0.3029 -2.4268
  143DOPC   C1416905   1.399   4.174   6.940 -0.6084 -0.4980  0.2457
  143DOPC  H14A16906   1.452   4.268   6.935 -2.6056  0.6725 -0.4820
  143DOPC  H14B16907   1.311   4.210   6.888  0.8999  1.3974 -1.1815
  143DOPC  H14C16908   1.368   4.150   7.041 -0.2292 -2.8903 -0.1724
  143DOPC   C1516909   1.504   4.105   6.737 -0.5635  0.4267  0.4207
  143DOPC  H15A16910   1.545   4.027   6.675  0.3271  1.8394 -0.8238
  143DOPC  H15B16911   1.571   4.188   6.748  1.0404 -1.1140  4.4429
  143DOPC  H15C16912   1.418   4.134   6.679 -0.4403 -1.7812 -0.9787
  143DOPC   C1116913   1.368   3.879   7.012 -0.0766 -0.4483  0.6241
  143DOPC  H11A16914   1.452   3.808   7.027 -0.8430 -1.6583 -0.5884
  143DOPC  H11B16915   1.380   3.951   7.096  0.0186 -0.6222  0.7603
  143DOPC     P16916   1.192   3.706   6.917  0.6729  0.0422  0.1256
  143DOPC   O1316917   1.088   3.628   6.997 -0.3308  0.1769  0.4758
  143DOPC   O1416918   1.304   3.634   6.865  0.0030  0.1414  0.0084
  143DOPC   O1216919   1.243   3.817   7.009 -0.4596  0.3005  0.0223
  143DOPC   O1116920   1.130   3.801   6.804  0.1828 -0.2212  0.2046
  143DOPC    C116921   1.033   3.752   6.706 -0.6463  0.1448  0.0038
  143DOPC    HA16922   0.938   3.810   6.705 -0.4856  0.5526  2.4155
  143DOPC    HB16923   1.002   3.648   6.730  1.1652 -0.5431 -0.4144
  143DOPC    C216924   1.094   3.742   6.561 -0.1289 -0.4741 -0.3998
  143DOPC    HS16925   1.003   3.708   6.507 -0.7339  0.3411  0.0825
  143DOPC   O2116926   1.202   3.646   6.546 -0.1199  0.3931  0.5116
  143DOPC   C2116927   1.158   3.518   6.533 -0.2754 -0.1997 -0.2881
  143DOPC   O2216928   1.042   3.486   6.526  0.1150 -0.1926 -0.1667
  143DOPC   C2216929   1.274   3.416   6.517  0.6983 -0.0182 -0.0892
  143DOPC   H2R16930   1.329   3.407   6.613  1.2623  0.8174 -0.3235
  143DOPC   H2S16931   1.346   3.450   6.440  1.1539  0.5208  0.5654
  143DOPC    C316932   1.143   3.883   6.509 -0.3115  0.0581  0.3311
  143DOPC    HX16933   1.245   3.901   6.548  0.1503  0.1189 -0.8891
  143DOPC    HY16934   1.080   3.969   6.542 -1.3023 -0.7442  0.5622
  143DOPC   O3116935   1.145   3.874   6.362 -1.1191 -0.4746  0.4494
  143DOPC   C3116936   1.221   3.971   6.307 -0.6500 -0.2405 -0.0014
  143DOPC   O3216937   1.263   4.065   6.376  0.2671 -0.1875  0.1227
  143DOPC   C3216938   1.246   3.941   6.160  1.1531 -0.2835  0.0460
  143DOPC   H2X16939   1.277   3.836   6.145 -0.2584 -0.6782 -0.2819
  143DOPC   H2Y16940   1.148   3.952   6.109  1.4314 -1.3409 -0.7461
  143DOPC   C2316941   1.215   3.273   6.499  0.2329 -0.0680 -0.1982
  143DOPC   H3R16942   1.151   3.258   6.589 -0.1847  0.7614 -0.3508
  143DOPC   H3S16943   1.298   3.200   6.499 -0.4071 -0.8146  0.0265
  143DOPC   C2416944   1.140   3.250   6.367 -0.1719 -0.2465 -0.2303
  143DOPC   H4R16945   1.043   3.303   6.381 -0.9818 -1.9308  0.9318
  143DOPC   H4S16946   1.125   3.140   6.360 -2.2595  0.0889 -2.6409
  143DOPC   C2516947   1.207   3.294   6.239 -0.2386 -0.4631 -0.2614
  143DOPC   H5R16948   1.205   3.405   6.233 -4.0960  0.0451  4.2146
  143DOPC   H5S16949   1.141   3.263   6.155 -0.1091  0.5466 -0.7412
  143DOPC   C2616950   1.349   3.249   6.221 -0.4213  0.0042  0.4280
  143DOPC   H6R16951   1.368   3.139   6.219 -0.5902 -0.0172 -0.3026
  143DOPC   H6S16952   1.414   3.283   6.305 -0.0885  0.3773  0.0239
  143DOPC   C2716953   1.415   3.300   6.088  0.7377  0.8694  0.3070
  143DOPC   H7R16954   1.439   3.405   6.115 -0.7411  0.9945  1.2696
  143DOPC   H7S16955   1.341   3.304   6.005 -0.5271  2.8280  1.4536
  143DOPC   C2816956   1.531   3.212   6.039  0.1715 -0.8496  0.0590
  143DOPC   H8R16957   1.556   3.244   5.936 -0.7206  3.5403  0.9585
  143DOPC   H8S16958   1.490   3.110   6.027 -1.4818 -0.4073  1.4454
  143DOPC   C2916959   1.652   3.230   6.138 -0.0133 -0.1636  0.5714
  143DOPC   H9R16960   1.614   3.232   6.241 -3.2629 -0.9288 -0.4651
  143DOPC  C21016961   1.781   3.242   6.105  0.3748 -0.3646 -0.6551
  143DOPC  H10R16962   1.846   3.274   6.188  0.7591  1.0030 -1.4557
  143DOPC  C21116963   1.849   3.237   5.966 -0.1227 -0.1303  0.2571
  143DOPC  H11R16964   1.806   3.150   5.911  0.8653 -2.0223  2.2972
  143DOPC  H11S16965   1.959   3.227   5.969  0.2934  2.5876 -1.9517
  143DOPC  C21216966   1.827   3.368   5.882 -0.3792 -0.4459 -0.6934
  143DOPC  H12R16967   1.877   3.453   5.933  2.9351 -1.1302 -2.5065
  143DOPC  H12S16968   1.718   3.390   5.870 -0.7086 -0.4142  1.8629
  143DOPC  C21316969   1.888   3.356   5.735  0.0496  0.5722 -0.9361
  143DOPC  H13R16970   1.987   3.305   5.726  0.5077  1.6147 -2.2439
  143DOPC  H13S16971   1.908   3.460   5.700  0.0799  0.6769 -0.6053
  143DOPC  C21416972   1.780   3.297   5.644  0.6519 -0.2522 -0.1678
  143DOPC  H14R16973   1.688   3.360   5.646 -0.8943 -2.3708  1.8533
  143DOPC  H14S16974   1.740   3.196   5.666  0.9372 -0.7973 -1.9818
  143DOPC  C21516975   1.830   3.271   5.502 -0.2165 -0.2195  0.4551
  143DOPC  H15R16976   1.744   3.222   5.453 -0.3853  0.2196  0.3025
  143DOPC  H15S16977   1.917   3.203   5.514  0.2236  0.7525  4.0178
  143DOPC  C21616978   1.863   3.395   5.409  0.0234  0.8456  0.4217
  143DOPC  H16R16979   1.945   3.457   5.449  2.4355 -0.0747 -2.7191
  143DOPC  H16S16980   1.770   3.455   5.406 -0.3817  0.2713  1.0310
  143DOPC  C21716981   1.901   3.348   5.272  0.4336 -0.4908 -0.0400
  143DOPC  H17R16982   1.812   3.302   5.223  0.0976  0.6243 -0.5093
  143DOPC  H17S16983   1.980   3.271   5.283 -0.3630 -1.6533 -1.9705
  143DOPC  C21816984   1.946   3.464   5.183  0.4513 -0.1747  0.0383
  143DOPC  H18R16985   1.865   3.539   5.168  0.9108  0.3949  0.3648
  143DOPC  H18S16986   1.966   3.413   5.087 -1.4237  1.0009 -1.0527
  143DOPC  H18T16987   2.035   3.512   5.227  0.1304  0.3475  0.1267
  143DOPC   C3316988   1.347   4.030   6.093 -0.2871 -0.5695  0.1076
  143DOPC   H3X16989   1.445   3.989   6.127  0.3904  2.6996  2.6207
  143DOPC   H3Y16990   1.334   4.134   6.129  0.0141 -0.2958 -0.5712
  143DOPC   C3416991   1.345   4.025   5.941  0.4710 -0.0202 -0.4545
  143DOPC   H4X16992   1.255   4.084   5.913  1.3096  1.1075 -0.8956
  143DOPC   H4Y16993   1.343   3.928   5.887  3.6160  0.1612 -1.0998
  143DOPC   C3516994   1.459   4.113   5.875  0.2376 -0.3994 -0.5944
  143DOPC   H5X16995   1.555   4.116   5.931 -0.4082 -0.6731  0.5534
  143DOPC   H5Y16996   1.416   4.215   5.885 -0.3345 -0.7132  0.2220
  143DOPC   C3616997   1.477   4.084   5.728 -0.2842  0.8993 -0.6337
  143DOPC   H6X16998   1.563   4.014   5.721  0.0755  0.4650  4.3855
  143DOPC   H6Y16999   1.383   4.040   5.691  0.2541 -1.2706  0.4126
  143DOPC   C3717000   1.517   4.209   5.653 -0.1228 -0.3205 -0.1996
  143DOPC   H7X17001   1.419   4.260   5.649  0.2074  0.3884  0.3993
  143DOPC   H7Y17002   1.590   4.267   5.715 -0.4385 -1.0841  0.9213
  143DOPC   C3817003   1.566   4.186   5.515  0.0887  0.4135  0.8202
  143DOPC   H8X17004   1.656   4.120   5.520 -0.7094 -0.8562 -0.7482
  143DOPC   H8Y17005   1.610   4.284   5.485  2.8455 -1.4677 -1.8901
  143DOPC   C3917006   1.464   4.146   5.414  0.0223 -0.0586 -0.2946
  143DOPC   H9X17007   1.459   4.037   5.399 -1.8682 -0.3491  1.9456
  143DOPC  C31017008   1.371   4.218   5.343 -0.1940  0.5386 -0.4908
  143DOPC  H10X17009   1.316   4.166   5.264 -1.4141 -1.9286  1.8066
  143DOPC  C31117010   1.339   4.366   5.373  0.4101 -0.0509  0.5832
  143DOPC  H11X17011   1.430   4.430   5.365  0.4441  0.0777  1.8045
  143DOPC  H11Y17012   1.316   4.381   5.481  1.9067 -0.8173  1.0303
  143DOPC  C31217013   1.218   4.424   5.289 -0.4589  0.2357  0.0591
  143DOPC  H12X17014   1.175   4.517   5.332  0.2216  0.3760  0.4656
  143DOPC  H12Y17015   1.141   4.345   5.293  0.0601 -0.3694 -1.4182
  143DOPC  C31317016   1.264   4.457   5.144  0.3561  0.1113  0.6689
  143DOPC  H13X17017   1.341   4.537   5.144 -0.2588  0.7127  1.5896
  143DOPC  H13Y17018   1.315   4.369   5.100  0.4717  1.0746 -1.2749
  143DOPC  C31417019   1.151   4.490   5.042  1.0872  0.2068  0.8072
  143DOPC  H14X17020   1.074   4.409   5.043  1.5752 -0.2691  0.5982
  143DOPC  H14Y17021   1.107   4.587   5.073  0.4349 -0.3016  1.5358
  143DOPC  C31517022   1.199   4.508   4.895  0.2333  0.0212  0.0628
  143DOPC  H15X17023   1.110   4.516   4.828  1.3860 -0.4415 -1.5923
  143DOPC  H15Y17024   1.251   4.418   4.858  0.5184 -0.6627  2.0485
  143DOPC  C31617025   1.284   4.632   4.882  0.1207  0.0711  0.2552
  143DOPC  H16X17026   1.231   4.710   4.941  0.7108 -0.9085  2.1442
  143DOPC  H16Y17027   1.382   4.606   4.925 -0.1532  1.0170  1.5069
  143DOPC  C31717028   1.320   4.684   4.741 -0.4037 -0.2622 -0.3525
  143DOPC  H17X17029   1.348   4.791   4.755  1.7375 -1.0273  1.9742
  143DOPC  H17Y17030   1.406   4.627   4.700 -0.1139  0.6956 -1.1357
  143DOPC  C31817031   1.205   4.676   4.646 -0.3564  0.4049  0.5750
  143DOPC  H18X17032   1.171   4.571   4.636 -0.6825  0.6693 -1.5736
  143DOPC  H18Y17033   1.107   4.704   4.692 -1.5190  0.2992 -1.6944
  143DOPC  H18Z17034   1.213   4.723   4.545 -0.0330 -0.2146  0.3123
  144DOPC     N17035   2.036   2.559   7.304 -0.1901 -0.0363  0.2737
  144DOPC   C1217036   2.035   2.484   7.173 -0.3572  0.0165  0.8490
  144DOPC  H12A17037   1.978   2.393   7.177  1.6422 -1.3085  0.5796
  144DOPC  H12B17038   2.136   2.460   7.142 -0.7281 -1.6537  0.8442
  144DOPC   C1317039   1.895   2.562   7.362 -0.5743 -0.9570 -0.1329
  144DOPC  H13A17040   1.828   2.597   7.285 -1.3779 -0.1531  0.9018
  144DOPC  H13B17041   1.852   2.465   7.383 -4.2266  0.0059 -2.3356
  144DOPC  H13C17042   1.880   2.629   7.446 -2.6470 -0.6406 -0.7100
  144DOPC   C1417043   2.084   2.698   7.292  0.9896  0.6799  0.4835
  144DOPC  H14A17044   2.086   2.750   7.386 -0.3088 -2.4119  2.3718
  144DOPC  H14B17045   2.182   2.703   7.246  0.1016 -2.9567 -2.3620
  144DOPC  H14C17046   2.026   2.754   7.220 -0.7150 -0.7442  0.6701
  144DOPC   C1517047   2.129   2.492   7.406 -0.1337  0.3235 -0.1016
  144DOPC  H15A17048   2.111   2.386   7.420 -0.7498  0.4290 -0.0581
  144DOPC  H15B17049   2.117   2.540   7.502 -1.0817 -0.6284  0.2810
  144DOPC  H15C17050   2.233   2.504   7.381 -0.4048  0.4240 -1.2281
  144DOPC   C1117051   1.992   2.555   7.040 -0.9151 -0.7462  0.2780
  144DOPC  H11A17052   2.042   2.653   7.038  0.3281 -1.3353  1.1315
  144DOPC  H11B17053   2.038   2.502   6.954 -1.9831  0.9381 -1.3746
  144DOPC     P17054   1.752   2.467   7.013 -0.1355 -0.7113 -0.1436
  144DOPC   O1317055   1.622   2.505   7.081 -0.6584 -0.5323  0.1545
  144DOPC   O1417056   1.809   2.338   7.059 -0.4342  0.5977 -0.4047
  144DOPC   O1217057   1.854   2.587   7.037  0.3127 -0.2446  0.0606
  144DOPC   O1117058   1.746   2.468   6.857 -0.0116  0.2254 -1.0367
  144DOPC    C117059   1.714   2.582   6.775 -0.5152  0.7980  0.5618
  144DOPC    HA17060   1.761   2.677   6.810  2.2562  0.1315 -1.0720
  144DOPC    HB17061   1.603   2.593   6.776 -0.6195 -0.1375 -0.2266
  144DOPC    C217062   1.771   2.559   6.630 -0.0772  0.4644 -0.7556
  144DOPC    HS17063   1.739   2.653   6.579 -1.4517  1.3900  1.6160
  144DOPC   O2117064   1.712   2.436   6.577 -0.6863 -0.0743  0.4197
  144DOPC   C2117065   1.712   2.438   6.441 -0.3644  0.1801  0.6395
  144DOPC   O2217066   1.733   2.541   6.374  0.6102 -0.3479  0.0207
  144DOPC   C2217067   1.675   2.308   6.381 -0.1038  0.2174 -1.2351
  144DOPC   H2R17068   1.591   2.261   6.436  0.0147 -1.1826 -2.2008
  144DOPC   H2S17069   1.760   2.237   6.389 -0.1826  0.1119 -1.3249
  144DOPC    C317070   1.925   2.545   6.630  0.1572  0.1654 -0.3061
  144DOPC    HX17071   1.950   2.455   6.691  1.9642  1.0895  0.3950
  144DOPC    HY17072   1.978   2.625   6.686  2.5483 -1.8657  0.5894
  144DOPC   O3117073   1.983   2.524   6.505 -0.2790  0.0377  0.5924
  144DOPC   C3117074   2.111   2.516   6.506  0.0082 -0.1976  0.5458
  144DOPC   O3217075   2.182   2.527   6.607 -0.2683  0.0654 -0.5219
  144DOPC   C3217076   2.157   2.491   6.365 -0.1260 -0.6394 -0.3560
  144DOPC   H2X17077   2.068   2.477   6.300  0.2372 -0.4508 -0.8955
  144DOPC   H2Y17078   2.214   2.579   6.329 -0.2904 -1.3304 -2.4411
  144DOPC   C2317079   1.645   2.336   6.236  0.3320  0.8826  0.4476
  144DOPC   H3R17080   1.733   2.383   6.186  0.3715 -0.3450 -0.6692
  144DOPC   H3S17081   1.548   2.388   6.226  0.6394  1.6207  1.1606
  144DOPC   C2417082   1.635   2.204   6.144 -0.4903  0.0390 -0.1330
  144DOPC   H4R17083   1.736   2.159   6.133 -0.2189 -0.0809  2.2046
  144DOPC   H4S17084   1.604   2.246   6.046  1.3687  0.6668 -0.4940
  144DOPC   C2517085   1.533   2.105   6.195 -0.1491 -1.1735  0.4733
  144DOPC   H5R17086   1.433   2.153   6.206 -0.2886 -1.6854  1.6000
  144DOPC   H5S17087   1.559   2.074   6.299 -0.8297  0.0361  1.0252
  144DOPC   C2617088   1.508   1.989   6.103  0.6840  0.1362 -0.2390
  144DOPC   H6R17089   1.599   1.934   6.073  1.3227  1.1191 -0.1287
  144DOPC   H6S17090   1.470   2.029   6.006  0.8101 -1.1501 -0.8480
  144DOPC   C2717091   1.396   1.909   6.163  0.2417 -0.0614 -0.6046
  144DOPC   H7R17092   1.302   1.967   6.174 -1.1122 -2.4790  1.5278
  144DOPC   H7S17093   1.436   1.880   6.262  0.3704 -0.0493 -0.6529
  144DOPC   C2817094   1.359   1.786   6.070 -0.3260  0.5906 -0.5765
  144DOPC   H8R17095   1.333   1.810   5.964 -1.1143  0.4318 -0.4301
  144DOPC   H8S17096   1.267   1.742   6.114  1.4427 -3.1558 -0.1908
  144DOPC   C2917097   1.464   1.676   6.085 -0.2946  0.2660  0.5760
  144DOPC   H9R17098   1.478   1.641   6.188 -0.7414 -1.8532 -0.0356
  144DOPC  C21017099   1.521   1.604   5.983 -0.5258 -0.1448  0.2869
  144DOPC  H10R17100   1.596   1.524   5.990 -0.5632 -0.0949  1.4765
  144DOPC  C21117101   1.483   1.624   5.838 -0.8863  0.4743 -0.5316
  144DOPC  H11R17102   1.562   1.602   5.762 -1.5868 -0.9348 -0.8817
  144DOPC  H11S17103   1.455   1.727   5.809 -0.6483  0.6186 -0.2598
  144DOPC  C21217104   1.371   1.533   5.780 -0.1952 -0.5531 -0.3806
  144DOPC  H12R17105   1.272   1.569   5.817 -0.2745  0.4758 -1.5125
  144DOPC  H12S17106   1.391   1.432   5.822 -1.9586 -0.0564  1.8812
  144DOPC  C21317107   1.387   1.522   5.631  0.1377 -0.6172 -0.2686
  144DOPC  H13R17108   1.485   1.471   5.616 -0.1948 -1.2157 -0.4627
  144DOPC  H13S17109   1.387   1.619   5.577  1.7358 -0.3720  0.1320
  144DOPC  C21417110   1.280   1.433   5.556  0.4188 -0.5213 -0.1337
  144DOPC  H14R17111   1.318   1.432   5.452 -0.8697  1.8469 -0.7133
  144DOPC  H14S17112   1.182   1.484   5.570  0.4944  0.2755 -2.2500
  144DOPC  C21517113   1.274   1.290   5.613  0.2391 -0.7158  0.3089
  144DOPC  H15R17114   1.255   1.291   5.722  1.2267 -2.9076  0.5558
  144DOPC  H15S17115   1.372   1.243   5.589 -0.2984 -1.8307  0.2183
  144DOPC  C21617116   1.165   1.205   5.551  0.9308 -0.5578  0.0418
  144DOPC  H16R17117   1.197   1.186   5.447 -0.9164 -1.0655 -0.4636
  144DOPC  H16S17118   1.066   1.253   5.534  0.8772 -1.4617 -2.5648
  144DOPC  C21717119   1.145   1.074   5.617  0.0725 -0.7718 -0.3152
  144DOPC  H17R17120   1.107   1.086   5.721  1.0377  0.5502 -0.0896
  144DOPC  H17S17121   1.240   1.020   5.634  0.1353 -0.0255  2.1489
  144DOPC  C21817122   1.052   0.983   5.536  0.1384  0.0234 -0.5874
  144DOPC  H18R17123   0.974   1.042   5.482 -0.6424 -1.3901 -1.0498
  144DOPC  H18S17124   1.008   0.902   5.598  1.3547  0.4534  0.9281
  144DOPC  H18T17125   1.117   0.940   5.457 -0.8335 -2.2023 -0.2464
  144DOPC   C3317126   2.258   2.374   6.361 -0.0489  0.0246 -0.1988
  144DOPC   H3X17127   2.206   2.288   6.408 -0.0699  0.5147  0.6906
  144DOPC   H3Y17128   2.350   2.393   6.420 -2.0145  0.1636  3.0508
  144DOPC   C3417129   2.278   2.317   6.220  0.1274  0.6126 -0.4412
  144DOPC   H4X17130   2.184   2.289   6.168  1.2816 -2.6834 -1.0181
  144DOPC   H4Y17131   2.327   2.217   6.219 -0.5554  0.2376  1.2396
  144DOPC   C3517132   2.361   2.410   6.126  0.1726 -0.2181 -0.9596
  144DOPC   H5X17133   2.333   2.518   6.131  0.4837 -0.1560 -0.4477
  144DOPC   H5Y17134   2.336   2.387   6.020 -0.1434 -0.3129 -0.8639
  144DOPC   C3617135   2.518   2.405   6.142  0.0366  0.8790  0.1239
  144DOPC   H6X17136   2.547   2.418   6.249 -1.4359  2.1602  0.4088
  144DOPC   H6Y17137   2.569   2.312   6.110  2.0218  1.6845  0.7798
  144DOPC   C3717138   2.590   2.523   6.062 -0.0790  0.4030  0.0712
  144DOPC   H7X17139   2.574   2.516   5.952  0.6330 -0.4109  0.0101
  144DOPC   H7Y17140   2.543   2.617   6.099  2.5363  1.5192  0.8012
  144DOPC   C3817141   2.742   2.517   6.078 -0.3315  0.4709  0.0103
  144DOPC   H8X17142   2.774   2.424   6.027  0.4525  1.6764 -1.7790
  144DOPC   H8Y17143   2.768   2.503   6.185  0.4725 -1.3926 -0.3988
  144DOPC   C3917144   2.811   2.635   6.023 -0.2823 -0.6150 -0.0502
  144DOPC   H9X17145   2.800   2.721   6.092  0.6659 -0.8612  0.4352
  144DOPC  C31017146   2.899   2.636   5.927  0.3131 -0.2029  0.0876
  144DOPC  H10X17147   2.946   2.731   5.899  1.0391 -0.6723 -0.3234
  144DOPC  C31117148   2.912   2.526   5.824 -0.2031 -1.1172 -0.4729
  144DOPC  H11X17149   2.816   2.470   5.816 -0.4000 -1.1455  1.5435
  144DOPC  H11Y17150   2.981   2.442   5.848  2.8739  1.0956 -1.0217
  144DOPC  C31217151   2.963   2.580   5.687  0.3157 -0.1600 -0.2137
  144DOPC  H12X17152   3.036   2.662   5.703 -1.6408  1.3899  1.3077
  144DOPC  H12Y17153   2.862   2.609   5.650 -1.0563 -3.0608  0.8914
  144DOPC  C31317154   3.017   2.466   5.591 -0.3469 -0.1745 -0.1896
  144DOPC  H13X17155   3.122   2.444   5.620 -0.2840  1.2739  0.7832
  144DOPC  H13Y17156   2.964   2.374   5.625  1.5415 -0.5905  1.9350
  144DOPC  C31417157   3.004   2.508   5.445  0.3800 -0.2040 -0.5577
  144DOPC  H14X17158   3.037   2.614   5.440  1.6735 -0.5017  0.8727
  144DOPC  H14Y17159   3.064   2.438   5.385 -1.6142 -1.6844 -0.9268
  144DOPC  C31517160   2.855   2.492   5.393  0.9615 -0.5186 -0.2945
  144DOPC  H15X17161   2.797   2.557   5.462  1.2064 -1.6566  1.0343
  144DOPC  H15Y17162   2.817   2.388   5.405 -2.4615  0.5321 -0.9390
  144DOPC  C31617163   2.830   2.529   5.241 -0.7219  0.8149 -0.5128
  144DOPC  H16X17164   2.724   2.526   5.207  0.2981 -2.1340 -4.1034
  144DOPC  H16Y17165   2.870   2.631   5.220 -1.0016  0.5541 -2.5580
  144DOPC  C31717166   2.896   2.426   5.142 -0.7632  0.0483  0.2241
  144DOPC  H17X17167   3.005   2.420   5.161 -1.1781 -0.7062  2.7229
  144DOPC  H17Y17168   2.847   2.327   5.149  1.7843 -1.2748  0.1302
  144DOPC  C31817169   2.881   2.476   4.995  0.1915 -0.5474  0.8431
  144DOPC  H18X17170   2.950   2.424   4.926 -0.7520 -1.1256  0.3163
  144DOPC  H18Y17171   2.777   2.485   4.957  0.5239  0.3830  0.1038
  144DOPC  H18Z17172   2.911   2.583   4.998 -1.7644  0.0439  1.8106
  145DOPC     N17173   4.151   5.900   6.689  0.2981 -0.0034  0.1184
  145DOPC   C1217174   4.291   5.856   6.688 -0.6074  0.6737 -0.0443
  145DOPC  H12A17175   4.335   5.903   6.601  2.3841 -1.2645  0.2629
  145DOPC  H12B17176   4.304   5.750   6.673 -1.3975  0.8177 -1.9017
  145DOPC   C1317177   4.083   5.869   6.826  0.0178  0.5792  0.0007
  145DOPC  H13A17178   4.066   5.766   6.852 -2.8422  1.2070  0.9930
  145DOPC  H13B17179   4.141   5.915   6.905 -0.0522 -0.3000  0.5790
  145DOPC  H13C17180   3.986   5.917   6.825  0.1882  0.9259 -0.4449
  145DOPC   C1417181   4.081   5.838   6.567  0.4889 -0.3733 -0.4855
  145DOPC  H14A17182   3.976   5.817   6.583  0.8863 -1.8979  0.2580
  145DOPC  H14B17183   4.101   5.887   6.473  1.9897 -2.4956 -1.3217
  145DOPC  H14C17184   4.123   5.741   6.549 -0.4266 -1.1732  1.4364
  145DOPC   C1517185   4.147   6.054   6.679  0.5114 -0.0522  0.1757
  145DOPC  H15A17186   4.045   6.088   6.667 -0.0051 -1.4275  0.4576
  145DOPC  H15B17187   4.207   6.083   6.595  3.6088  3.1866  3.1590
  145DOPC  H15C17188   4.195   6.099   6.765  0.9931 -2.9387  1.5751
  145DOPC   C1117189   4.369   5.900   6.821 -0.6293 -0.7650  0.2595
  145DOPC  H11A17190   4.478   5.887   6.807 -0.2379  0.4925  1.8991
  145DOPC  H11B17191   4.338   6.006   6.837 -0.6464 -0.3258 -2.1908
  145DOPC     P17192   4.363   5.677   6.958  0.3543  0.0754 -0.1420
  145DOPC   O1317193   4.280   5.614   7.056  0.3246 -0.1683 -0.3867
  145DOPC   O1417194   4.508   5.663   6.976  0.2432 -0.3479 -0.5184
  145DOPC   O1217195   4.323   5.827   6.934  0.1538 -0.2797 -0.2741
  145DOPC   O1117196   4.330   5.616   6.823  0.6865  0.5350  0.2233
  145DOPC    C117197   4.398   5.516   6.764 -0.3974  0.4751 -0.5240
  145DOPC    HA17198   4.420   5.432   6.833  0.0933  1.4102  0.4937
  145DOPC    HB17199   4.495   5.558   6.728 -1.0445  1.8828 -0.7093
  145DOPC    C217200   4.319   5.466   6.644 -0.0872  1.0108  0.5734
  145DOPC    HS17201   4.363   5.368   6.617 -2.6300 -0.3058  0.9397
  145DOPC   O2117202   4.350   5.549   6.531 -0.1217  0.2043 -0.1184
  145DOPC   C2117203   4.345   5.495   6.412 -0.8002  0.3344  0.2381
  145DOPC   O2217204   4.329   5.377   6.390 -0.4525  0.7440  0.1056
  145DOPC   C2217205   4.386   5.599   6.305  0.4246  0.3817  0.7186
  145DOPC   H2R17206   4.461   5.667   6.348 -0.1490  0.3731  1.7554
  145DOPC   H2S17207   4.298   5.667   6.295 -1.0875 -1.5338  0.2178
  145DOPC    C317208   4.163   5.463   6.681 -0.6745  0.3551  0.4759
  145DOPC    HX17209   4.116   5.559   6.712  2.0173  2.0772 -0.4303
  145DOPC    HY17210   4.166   5.398   6.771  0.3969 -1.8216 -1.0431
  145DOPC   O3117211   4.081   5.390   6.593 -0.4324  0.5608 -0.3472
  145DOPC   C3117212   4.033   5.460   6.486 -0.0929 -0.1798  0.2660
  145DOPC   O3217213   4.074   5.569   6.455 -0.2707 -0.5610  0.4781
  145DOPC   C3217214   3.953   5.359   6.397 -0.4144 -0.3469  0.2665
  145DOPC   H2X17215   4.033   5.284   6.381 -0.0206 -0.0286  0.7385
  145DOPC   H2Y17216   3.861   5.317   6.445 -0.8376 -0.2468 -0.4454
  145DOPC   C2317217   4.425   5.535   6.169 -0.2863 -0.6776 -0.3827
  145DOPC   H3R17218   4.341   5.474   6.129 -1.0138  0.2991 -0.3823
  145DOPC   H3S17219   4.517   5.476   6.190  1.5516  1.5091 -1.8560
  145DOPC   C2417220   4.461   5.650   6.066 -0.6681 -0.1554  0.3919
  145DOPC   H4R17221   4.494   5.734   6.132  0.6623  0.3484 -0.8549
  145DOPC   H4S17222   4.364   5.682   6.021 -0.6463  1.3003  1.3175
  145DOPC   C2517223   4.570   5.616   5.961  0.6388 -0.1104 -1.1014
  145DOPC   H5R17224   4.539   5.517   5.923 -2.5120  0.0321  0.7501
  145DOPC   H5S17225   4.670   5.613   6.008  0.8907  1.2313 -1.4847
  145DOPC   C2617226   4.576   5.725   5.860 -0.2529  0.6298  0.5873
  145DOPC   H6R17227   4.602   5.819   5.913 -0.2708  2.7295 -2.8367
  145DOPC   H6S17228   4.479   5.733   5.808  1.1143 -0.4148 -2.3383
  145DOPC   C2717229   4.681   5.699   5.746 -0.1244 -0.1960 -0.3085
  145DOPC   H7R17230   4.778   5.695   5.801  0.4337 -0.7639 -1.3066
  145DOPC   H7S17231   4.694   5.788   5.680  0.2699 -0.0657 -0.0601
  145DOPC   C2817232   4.675   5.568   5.671 -0.0383  0.1469  0.2683
  145DOPC   H8R17233   4.578   5.572   5.617 -0.4275  1.4704  1.0202
  145DOPC   H8S17234   4.668   5.486   5.746 -2.2018  1.2733  1.4058
  145DOPC   C2917235   4.790   5.552   5.575  0.0653 -0.3629 -0.0572
  145DOPC   H9R17236   4.870   5.488   5.616 -0.6498 -1.1300  0.1615
  145DOPC  C21017237   4.786   5.588   5.442 -0.4943  0.6061 -0.2507
  145DOPC  H10R17238   4.874   5.568   5.379 -0.0703 -0.0096  0.5278
  145DOPC  C21117239   4.666   5.669   5.385 -1.1163  0.8626 -0.3503
  145DOPC  H11R17240   4.601   5.708   5.466 -0.7360  1.5662 -0.3771
  145DOPC  H11S17241   4.604   5.601   5.322 -3.5495  1.4462  1.2659
  145DOPC  C21217242   4.716   5.785   5.294  0.0143 -0.5747 -0.0567
  145DOPC  H12R17243   4.801   5.754   5.230  1.2319  0.9166  0.7558
  145DOPC  H12S17244   4.751   5.872   5.354  0.5824  0.4120 -1.7262
  145DOPC  C21317245   4.599   5.832   5.199 -0.4678  0.3428  0.0693
  145DOPC  H13R17246   4.507   5.866   5.251 -1.5109  1.4880 -2.3716
  145DOPC  H13S17247   4.562   5.739   5.151  1.2491 -0.4136  0.1288
  145DOPC  C21417248   4.625   5.942   5.102 -0.1725 -0.1688  0.3058
  145DOPC  H14R17249   4.715   5.924   5.040  2.1214  0.9240  3.0934
  145DOPC  H14S17250   4.641   6.037   5.156 -1.7904  0.4101 -0.1679
  145DOPC  C21517251   4.502   5.954   5.012 -0.1786  0.0149  0.8936
  145DOPC  H15R17252   4.410   5.953   5.074 -1.2213 -2.3347 -0.5434
  145DOPC  H15S17253   4.494   5.866   4.944 -0.3082  0.4867  0.2823
  145DOPC  C21617254   4.485   6.077   4.919  0.8566 -0.8370 -0.1969
  145DOPC  H16R17255   4.564   6.063   4.842 -0.0801 -1.6559 -1.0457
  145DOPC  H16S17256   4.497   6.176   4.968  0.8678 -1.3890  0.9571
  145DOPC  C21717257   4.352   6.072   4.845  0.6035 -0.0805 -0.4783
  145DOPC  H17R17258   4.272   6.111   4.912 -0.5872 -1.3921 -1.0796
  145DOPC  H17S17259   4.322   5.969   4.816  0.4435  0.0543 -0.7920
  145DOPC  C21817260   4.362   6.155   4.710  0.6585  0.3216 -0.1125
  145DOPC  H18R17261   4.260   6.140   4.667  0.9366  1.5040 -1.2628
  145DOPC  H18S17262   4.443   6.123   4.640 -1.1661  0.2558 -2.3232
  145DOPC  H18T17263   4.386   6.262   4.728  2.1291 -0.0631  0.3453
  145DOPC   C3317264   3.902   5.414   6.263  0.9982 -0.1577  0.0559
  145DOPC   H3X17265   3.984   5.417   6.187 -0.2037 -1.0595 -1.3338
  145DOPC   H3Y17266   3.859   5.516   6.264  1.3233 -0.0253  0.9650
  145DOPC   C3417267   3.793   5.325   6.199  0.0908  0.0637  0.2982
  145DOPC   H4X17268   3.700   5.324   6.259 -1.0045  1.6009 -1.2552
  145DOPC   H4Y17269   3.836   5.223   6.202  0.5754  0.2652  0.2884
  145DOPC   C3517270   3.763   5.351   6.051  0.1628  0.9737  0.1546
  145DOPC   H5X17271   3.863   5.351   6.003  0.4057 -1.3844  0.5361
  145DOPC   H5Y17272   3.711   5.449   6.060  0.0243  1.0493 -1.2378
  145DOPC   C3617273   3.670   5.245   5.995  0.3427 -0.0534  0.2579
  145DOPC   H6X17274   3.726   5.149   5.990 -2.1332 -1.5200 -3.1315
  145DOPC   H6Y17275   3.584   5.238   6.064  0.3865 -0.0851  0.3087
  145DOPC   C3717276   3.631   5.292   5.856  0.5639 -0.0342 -0.0188
  145DOPC   H7X17277   3.581   5.392   5.852 -1.6925 -1.1195 -0.4790
  145DOPC   H7Y17278   3.722   5.313   5.796 -0.0489 -0.4210 -1.1129
  145DOPC   C3817279   3.550   5.187   5.785 -0.2610  0.3076 -0.5213
  145DOPC   H8X17280   3.450   5.187   5.834 -0.0870 -1.5860 -0.0935
  145DOPC   H8Y17281   3.590   5.084   5.795  1.0504  0.9434  1.7488
  145DOPC   C3917282   3.554   5.225   5.633  0.6471 -0.1344  0.1402
  145DOPC   H9X17283   3.475   5.296   5.605 -0.9410 -2.0125 -0.3674
  145DOPC  C31017284   3.641   5.180   5.544 -0.1233 -0.4735  0.0588
  145DOPC  H10X17285   3.634   5.215   5.440  0.5275 -1.3386 -0.2872
  145DOPC  C31117286   3.760   5.095   5.572 -0.1793  0.4255  0.5220
  145DOPC  H11X17287   3.734   4.998   5.525  2.8764  0.1836 -0.9098
  145DOPC  H11Y17288   3.760   5.073   5.681  0.0214  0.6382  0.5651
  145DOPC  C31217289   3.882   5.158   5.505  0.4425  0.2129 -0.1370
  145DOPC  H12X17290   3.873   5.267   5.519  1.8011  0.4856 -1.2059
  145DOPC  H12Y17291   3.878   5.128   5.398 -0.1921 -0.9827  0.1995
  145DOPC  C31317292   4.019   5.120   5.567  0.1539  0.8023 -0.0468
  145DOPC  H13X17293   4.091   5.170   5.500  0.5714  1.1074  0.6198
  145DOPC  H13Y17294   4.025   5.184   5.658 -1.3634  0.5974  0.2374
  145DOPC  C31417295   4.042   4.969   5.589  0.4730  0.1216 -0.5140
  145DOPC  H14X17296   3.979   4.948   5.677  1.2836 -1.9643 -0.3840
  145DOPC  H14Y17297   4.014   4.907   5.501  2.9814 -1.7342 -0.1250
  145DOPC  C31517298   4.182   4.937   5.628 -0.4444  0.2178 -0.2813
  145DOPC  H15X17299   4.210   5.004   5.713  0.2554  0.3162 -0.5876
  145DOPC  H15Y17300   4.250   4.964   5.544 -1.3318  2.0648 -0.4749
  145DOPC  C31617301   4.198   4.791   5.666 -0.2164 -0.1860  0.5120
  145DOPC  H16X17302   4.135   4.768   5.754  2.9734 -2.4881  2.4244
  145DOPC  H16Y17303   4.173   4.720   5.584 -0.1535 -0.2898  0.5824
  145DOPC  C31717304   4.338   4.765   5.717  0.1034  0.5241 -0.5245
  145DOPC  H17X17305   4.401   4.802   5.633 -0.3714 -1.0616 -1.6286
  145DOPC  H17Y17306   4.354   4.837   5.800 -0.1012  0.3975 -0.3740
  145DOPC  C31817307   4.371   4.626   5.768  0.6993  0.3131 -0.3814
  145DOPC  H18X17308   4.477   4.633   5.800  1.0897 -2.0566 -1.0171
  145DOPC  H18Y17309   4.302   4.607   5.853 -0.0360 -0.6640 -1.1691
  145DOPC  H18Z17310   4.351   4.549   5.691 -2.0184 -0.2359  0.7263
  146DOPC     N17311   4.448   2.415   7.153  0.0245 -0.3624 -0.3411
  146DOPC   C1217312   4.350   2.430   7.031  0.2984 -0.2483 -0.3703
  146DOPC  H12A17313   4.250   2.450   7.066 -0.1607 -0.4469 -1.5403
  146DOPC  H12B17314   4.343   2.335   6.979  0.4055 -0.9429  0.8408
  146DOPC   C1317315   4.388   2.330   7.253  0.1857  0.1929  0.6265
  146DOPC  H13A17316   4.290   2.356   7.290 -0.3333 -0.0870 -0.5011
  146DOPC  H13B17317   4.386   2.230   7.212 -0.5496  0.0076  1.0951
  146DOPC  H13C17318   4.456   2.327   7.336  0.6713 -0.0830  0.2262
  146DOPC   C1417319   4.476   2.549   7.214  0.6321 -0.1152 -0.7320
  146DOPC  H14A17320   4.388   2.593   7.258  1.7768  1.6768 -0.1476
  146DOPC  H14B17321   4.538   2.536   7.301 -0.5615  0.3534  0.2124
  146DOPC  H14C17322   4.525   2.617   7.146  0.0315  0.3647 -0.6908
  146DOPC   C1517323   4.582   2.357   7.113 -0.8942 -0.4154  0.7892
  146DOPC  H15A17324   4.563   2.268   7.054  2.3505 -0.9365  0.3655
  146DOPC  H15B17325   4.642   2.344   7.202  0.9107  1.9187 -0.0118
  146DOPC  H15C17326   4.642   2.429   7.060 -2.8046  1.0262  0.4673
  146DOPC   C1117327   4.393   2.522   6.911 -0.4146  0.4357  0.1989
  146DOPC  H11A17328   4.312   2.519   6.834 -0.1891  0.3181 -0.0350
  146DOPC  H11B17329   4.402   2.625   6.953 -3.0189  0.6226  0.4983
  146DOPC     P17330   4.531   2.396   6.734 -0.3985 -0.4532  0.2372
  146DOPC   O1317331   4.446   2.282   6.761 -0.2593  0.6182  0.4612
  146DOPC   O1417332   4.674   2.381   6.696 -0.0988  0.4666 -0.3005
  146DOPC   O1217333   4.523   2.487   6.866 -0.4709 -0.2539 -0.3228
  146DOPC   O1117334   4.460   2.488   6.624  0.3941  0.4330 -0.5845
  146DOPC    C117335   4.491   2.631   6.622  0.1801 -0.2604  0.1330
  146DOPC    HA17336   4.596   2.645   6.656 -0.4818  1.7437  1.5492
  146DOPC    HB17337   4.430   2.682   6.700 -0.9993  0.6326 -1.3215
  146DOPC    C217338   4.493   2.691   6.476 -0.1275  0.2757 -0.9149
  146DOPC    HS17339   4.536   2.793   6.482  1.8279 -0.3652 -2.6470
  146DOPC   O2117340   4.362   2.683   6.419 -0.5088 -0.0541  0.2233
  146DOPC   C2117341   4.271   2.772   6.460 -0.2665  0.4473  0.0503
  146DOPC   O2217342   4.285   2.852   6.552  0.2278  0.3613 -0.1499
  146DOPC   C2217343   4.158   2.766   6.356 -0.2224  0.2547 -0.3728
  146DOPC   H2R17344   4.084   2.839   6.396 -0.6038  0.4080 -1.3063
  146DOPC   H2S17345   4.116   2.663   6.355 -1.5726  0.7833 -1.1303
  146DOPC    C317346   4.599   2.615   6.388 -0.0878 -0.2392 -0.5642
  146DOPC    HX17347   4.567   2.509   6.393  0.5549 -0.4842 -1.3308
  146DOPC    HY17348   4.699   2.624   6.435 -0.1070 -0.4384 -0.4852
  146DOPC   O3117349   4.603   2.668   6.256 -0.3142 -0.3340  1.0565
  146DOPC   C3117350   4.645   2.592   6.157  0.6130  0.8713  0.1171
  146DOPC   O3217351   4.677   2.476   6.171  0.0232  0.5466  0.3657
  146DOPC   C3217352   4.645   2.671   6.021 -0.2491  0.9478 -0.0704
  146DOPC   H2X17353   4.544   2.714   6.008 -0.4075  0.1755 -1.5972
  146DOPC   H2Y17354   4.710   2.760   6.032 -0.3443  1.0705 -0.4838
  146DOPC   C2317355   4.197   2.826   6.224  0.7341  0.1303  0.7866
  146DOPC   H3R17356   4.285   2.770   6.187  1.0004  2.4410 -2.4573
  146DOPC   H3S17357   4.205   2.937   6.223 -1.2621  0.3373 -1.0803
  146DOPC   C2417358   4.092   2.802   6.112  0.1142  0.3515  0.0298
  146DOPC   H4R17359   4.056   2.697   6.116 -1.4759  0.9173  2.4900
  146DOPC   H4S17360   4.147   2.828   6.019  0.4664 -1.0146 -0.1650
  146DOPC   C2517361   3.970   2.887   6.126  0.1281  0.3382 -0.4086
  146DOPC   H5R17362   4.012   2.990   6.116  0.5419  0.1414 -0.6966
  146DOPC   H5S17363   3.920   2.873   6.224  0.5858  3.6286  0.4279
  146DOPC   C2617364   3.876   2.877   6.010  0.2889 -0.1565 -0.3217
  146DOPC   H6R17365   3.778   2.909   6.050  0.9457  0.9607  0.4518
  146DOPC   H6S17366   3.859   2.773   5.977 -0.0225 -0.2883  0.2565
  146DOPC   C2717367   3.906   2.967   5.895 -0.2408  0.1747 -0.5131
  146DOPC   H7R17368   4.008   2.953   5.854  0.5633 -0.5765  1.6245
  146DOPC   H7S17369   3.902   3.071   5.934 -1.0555 -1.1484  3.2960
  146DOPC   C2817370   3.812   2.956   5.765 -0.2154  0.6848 -0.0571
  146DOPC   H8R17371   3.728   3.028   5.779 -1.8237 -1.1064 -0.1379
  146DOPC   H8S17372   3.757   2.860   5.765 -2.9481  2.1331  1.2615
  146DOPC   C2917373   3.884   2.993   5.635 -0.6357 -0.2231 -0.9366
  146DOPC   H9R17374   3.957   3.075   5.640  0.2279 -0.8351 -2.6687
  146DOPC  C21017375   3.861   2.938   5.514 -0.3327  0.0924 -0.3264
  146DOPC  H10R17376   3.938   2.950   5.436 -1.1772  1.0091 -1.0315
  146DOPC  C21117377   3.757   2.841   5.483  0.2242 -0.6236 -0.4713
  146DOPC  H11R17378   3.684   2.831   5.567  1.4311 -0.3956  0.6425
  146DOPC  H11S17379   3.817   2.748   5.491 -0.0327 -0.9465 -2.0199
  146DOPC  C21217380   3.691   2.846   5.350  0.2447  0.3669  0.0558
  146DOPC  H12R17381   3.665   2.946   5.310  1.2494  0.0080 -1.6409
  146DOPC  H12S17382   3.603   2.780   5.340 -0.4244  0.9620  1.6736
  146DOPC  C21317383   3.789   2.810   5.235  0.6419  0.0742 -0.3271
  146DOPC  H13R17384   3.823   2.705   5.250  0.0020 -0.1780 -0.5906
  146DOPC  H13S17385   3.876   2.875   5.257 -0.1578  1.1892 -0.3329
  146DOPC  C21417386   3.731   2.833   5.098 -0.0207 -0.7483 -0.1513
  146DOPC  H14R17387   3.676   2.929   5.093  0.0474 -0.7220 -0.3774
  146DOPC  H14S17388   3.654   2.759   5.066 -0.0406 -1.1728  0.8385
  146DOPC  C21517389   3.849   2.823   5.004 -0.0784  0.4845  0.7459
  146DOPC  H15R17390   3.891   2.722   4.988  0.1756  0.7221 -0.1135
  146DOPC  H15S17391   3.936   2.868   5.057  0.1524 -0.9704  1.6539
  146DOPC  C21617392   3.840   2.886   4.860  0.0367 -0.1961 -0.1490
  146DOPC  H16R17393   3.944   2.895   4.822  1.5575 -3.2985  2.7249
  146DOPC  H16S17394   3.784   2.981   4.867 -1.7422 -1.1416 -0.7233
  146DOPC  C21717395   3.771   2.786   4.762  0.4356 -0.1779  0.8413
  146DOPC  H17R17396   3.686   2.741   4.817 -0.3321 -2.0000 -1.6411
  146DOPC  H17S17397   3.836   2.697   4.750  0.2341 -0.1036 -1.3793
  146DOPC  C21817398   3.735   2.848   4.627 -0.1604 -0.0202 -0.9770
  146DOPC  H18R17399   3.682   2.782   4.556  1.9296 -1.5548 -1.1976
  146DOPC  H18S17400   3.834   2.881   4.586  1.0857  0.9587  2.4773
  146DOPC  H18T17401   3.667   2.931   4.656 -1.8550 -1.4732 -0.6765
  146DOPC   C3317402   4.684   2.584   5.900 -0.1317  0.2242  0.4405
  146DOPC   H3X17403   4.654   2.635   5.806  0.1623  1.0524  0.7899
  146DOPC   H3Y17404   4.619   2.494   5.897 -0.4153  0.4453 -1.2660
  146DOPC   C3417405   4.838   2.543   5.900  0.1197 -0.1394  0.7936
  146DOPC   H4X17406   4.842   2.435   5.926  1.1331 -0.3922 -0.3188
  146DOPC   H4Y17407   4.887   2.590   5.988  0.7877  3.4526 -1.3283
  146DOPC   C3517408   4.913   2.573   5.769 -0.2630 -0.1919 -0.8389
  146DOPC   H5X17409   4.939   2.680   5.757 -0.3874  0.2773  2.2263
  146DOPC   H5Y17410   4.841   2.542   5.690 -1.2411  2.0223 -0.8958
  146DOPC   C3617411   5.037   2.482   5.744  0.1886 -0.4083  0.1176
  146DOPC   H6X17412   5.136   2.531   5.759  0.0321  0.1072 -0.4981
  146DOPC   H6Y17413   5.025   2.391   5.806 -3.0014  0.0579  0.3282
  146DOPC   C3717414   5.035   2.436   5.597  0.0652  0.0777  0.2357
  146DOPC   H7X17415   5.105   2.351   5.582  0.2678  0.3511 -0.4360
  146DOPC   H7Y17416   4.933   2.398   5.576  0.2218  0.4018 -1.2265
  146DOPC   C3817417   5.056   2.555   5.493  0.1947  0.6214 -0.1641
  146DOPC   H8X17418   5.151   2.594   5.536  0.9438 -1.9332  0.6743
  146DOPC   H8Y17419   4.970   2.626   5.497  2.2276  3.2233 -0.0955
  146DOPC   C3917420   5.073   2.504   5.352 -0.0030  0.1364 -0.8892
  146DOPC   H9X17421   5.041   2.401   5.335  1.4514 -0.5792  0.4806
  146DOPC  C31017422   5.125   2.576   5.250 -0.5334 -0.3271 -0.3256
  146DOPC  H10X17423   5.137   2.532   5.150 -2.3665 -0.0626 -0.6949
  146DOPC  C31117424   5.161   2.724   5.246 -0.2905  0.3027 -0.5921
  146DOPC  H11X17425   5.142   2.782   5.338  0.9458 -0.1610 -0.0180
  146DOPC  H11Y17426   5.104   2.778   5.167 -0.0443 -0.6694 -1.4576
  146DOPC  C31217427   5.315   2.736   5.212  0.2907  0.5500 -0.0772
  146DOPC  H12X17428   5.379   2.685   5.287  0.3904 -1.2047 -1.2999
  146DOPC  H12Y17429   5.345   2.843   5.217 -0.3048  0.8510 -2.0542
  146DOPC  C31317430   5.363   2.682   5.079 -0.4772 -0.0313  0.2068
  146DOPC  H13X17431   5.356   2.571   5.087  0.3349 -0.0956  0.1457
  146DOPC  H13Y17432   5.298   2.719   4.997 -2.0876  0.1749  1.5134
  146DOPC  C31417433   5.517   2.717   5.033  0.1803 -0.4513  0.1014
  146DOPC  H14X17434   5.542   2.667   4.937 -0.6875  0.4062 -0.5809
  146DOPC  H14Y17435   5.522   2.825   5.007 -0.2450 -0.1701  1.1140
  146DOPC  C31517436   5.622   2.692   5.148  0.4241  0.4211  0.0359
  146DOPC  H15X17437   5.626   2.587   5.184 -1.7885  0.3805  0.2978
  146DOPC  H15Y17438   5.590   2.751   5.237 -0.4686  0.0396 -0.0241
  146DOPC  C31617439   5.767   2.738   5.107  0.4888 -0.5733 -0.5686
  146DOPC  H16X17440   5.841   2.694   5.179  1.7228  0.1268 -1.3797
  146DOPC  H16Y17441   5.804   2.708   5.007  0.6981  0.8324 -0.9226
  146DOPC  C31717442   5.792   2.891   5.126  0.5627 -0.7911 -0.3373
  146DOPC  H17X17443   5.725   2.961   5.072  0.0212 -0.2827  0.9544
  146DOPC  H17Y17444   5.759   2.924   5.227 -0.5405  2.3729 -1.6268
  146DOPC  C31817445   5.929   2.942   5.102  0.7674  0.1173 -0.4297
  146DOPC  H18X17446   5.968   2.931   4.998  2.8868  2.0355  0.0677
  146DOPC  H18Y17447   5.930   3.043   5.149  0.4083  0.4280 -1.0773
  146DOPC  H18Z17448   6.007   2.891   5.163  1.3957  0.4697 -0.9286
  147DOPC     N17449   0.784   3.419   6.948 -0.1149 -0.1188 -0.0845
  147DOPC   C1217450   0.695   3.298   6.958 -0.3241 -0.9159 -0.4524
  147DOPC  H12A17451   0.613   3.297   6.887  0.6722 -1.2235 -1.6273
  147DOPC  H12B17452   0.641   3.310   7.051 -1.3537  1.9092 -1.3132
  147DOPC   C1317453   0.857   3.443   7.073  0.0927  0.2285 -0.1200
  147DOPC  H13A17454   0.891   3.353   7.122 -1.3859  0.3684  1.2474
  147DOPC  H13B17455   0.944   3.504   7.054  0.9788 -1.0194 -0.2084
  147DOPC  H13C17456   0.798   3.502   7.141 -0.9081 -0.8940  0.0187
  147DOPC   C1417457   0.708   3.549   6.912  0.6413  0.4853 -0.2881
  147DOPC  H14A17458   0.663   3.542   6.814  0.5901  0.8969 -0.2960
  147DOPC  H14B17459   0.631   3.564   6.985  1.2056 -0.4980  0.5379
  147DOPC  H14C17460   0.771   3.637   6.905  0.5401  0.6288  0.5551
  147DOPC   C1517461   0.883   3.401   6.841  0.3130 -0.4988  0.7113
  147DOPC  H15A17462   0.958   3.325   6.858  1.4936  0.4897  0.0968
  147DOPC  H15B17463   0.935   3.495   6.837 -1.1380  0.2975 -0.8274
  147DOPC  H15C17464   0.836   3.374   6.747 -0.4915  0.3083  0.8685
  147DOPC   C1117465   0.756   3.156   6.967  1.2552  0.1147 -0.2709
  147DOPC  H11A17466   0.672   3.083   6.968  1.4957 -0.2396  2.5479
  147DOPC  H11B17467   0.808   3.132   6.872 -0.3068 -2.6451 -0.5406
  147DOPC     P17468   0.933   3.010   7.085  0.0923 -0.3231  0.4182
  147DOPC   O1317469   0.959   2.981   7.227  0.3745  0.3434 -0.2591
  147DOPC   O1417470   1.050   3.042   7.001  0.7610 -0.3322 -0.2162
  147DOPC   O1217471   0.833   3.133   7.081  0.1285 -0.6739 -0.4160
  147DOPC   O1117472   0.845   2.891   7.016 -0.0362 -0.1118 -0.9165
  147DOPC    C117473   0.922   2.773   6.969 -0.2503  0.0179 -0.2809
  147DOPC    HA17474   0.846   2.692   6.970 -0.8723  0.5484  2.4734
  147DOPC    HB17475   1.004   2.741   7.037  1.1471  1.8408 -1.0236
  147DOPC    C217476   0.985   2.791   6.828 -0.4272  0.0477 -1.0194
  147DOPC    HS17477   1.062   2.871   6.832 -1.3338  0.8789  1.7700
  147DOPC   O2117478   0.878   2.814   6.738  0.6273 -0.6531  0.1899
  147DOPC   C2117479   0.894   2.915   6.650 -0.2679  0.3221  0.4111
  147DOPC   O2217480   0.998   2.976   6.635 -0.0808  0.1369 -0.3699
  147DOPC   C2217481   0.765   2.940   6.567 -0.3165  0.3486 -0.5626
  147DOPC   H2R17482   0.679   2.923   6.636  0.2587  0.5150  0.2136
  147DOPC   H2S17483   0.755   2.866   6.486 -3.4170 -0.8440  0.7563
  147DOPC    C317484   1.074   2.659   6.791  0.1551 -0.3373  0.8712
  147DOPC    HX17485   0.999   2.577   6.786  0.9971 -1.0701  0.0313
  147DOPC    HY17486   1.146   2.635   6.872  1.8728  0.9502 -0.2065
  147DOPC   O3117487   1.142   2.674   6.658  0.3803  0.6312 -0.3355
  147DOPC   C3117488   1.254   2.743   6.664  0.4284  1.3299  0.0046
  147DOPC   O3217489   1.316   2.773   6.764 -0.8253  0.1746 -0.5348
  147DOPC   C3217490   1.270   2.819   6.526 -0.1152 -0.4708 -0.0673
  147DOPC   H2X17491   1.174   2.816   6.471 -0.3697 -0.7620  0.3918
  147DOPC   H2Y17492   1.296   2.925   6.551 -1.2944 -0.4905  1.3822
  147DOPC   C2317493   0.746   3.078   6.507 -0.6706 -0.9355  0.2788
  147DOPC   H3R17494   0.828   3.107   6.438  0.4566 -0.0575  1.9230
  147DOPC   H3S17495   0.755   3.163   6.579  2.3312 -1.0254  0.1163
  147DOPC   C2417496   0.610   3.098   6.434 -0.0342 -0.3481 -0.4990
  147DOPC   H4R17497   0.614   3.204   6.399  2.9110 -0.1951  0.0420
  147DOPC   H4S17498   0.527   3.086   6.506 -0.7457  2.7821 -0.6635
  147DOPC   C2517499   0.574   3.012   6.315 -0.7389 -0.2670  0.3616
  147DOPC   H5R17500   0.475   3.041   6.273 -0.7757 -1.8433 -0.7189
  147DOPC   H5S17501   0.570   2.909   6.355 -3.3040 -0.8258 -1.0899
  147DOPC   C2617502   0.680   3.029   6.208  0.0586  0.0545 -0.0310
  147DOPC   H6R17503   0.768   2.988   6.263  0.0797 -0.3996 -0.3925
  147DOPC   H6S17504   0.694   3.134   6.174 -1.0961  0.8028  1.6850
  147DOPC   C2717505   0.636   2.945   6.085  0.4164 -0.1743 -0.0610
  147DOPC   H7R17506   0.556   3.007   6.037  0.3651 -1.4078 -1.6610
  147DOPC   H7S17507   0.586   2.854   6.124  0.0647  0.3865  0.8449
  147DOPC   C2817508   0.745   2.893   5.993  0.1544 -0.2938  0.0205
  147DOPC   H8R17509   0.717   2.792   5.954  0.9382 -0.3140 -0.5069
  147DOPC   H8S17510   0.829   2.878   6.064 -0.3163 -0.0857  0.6224
  147DOPC   C2917511   0.806   2.978   5.886 -0.4494  0.0537  0.3505
  147DOPC   H9R17512   0.834   3.081   5.913  0.9655 -0.8709  2.7200
  147DOPC  C21017513   0.824   2.936   5.763  0.0205  0.4368 -0.0214
  147DOPC  H10R17514   0.886   2.998   5.697 -1.1510  1.9345  0.2139
  147DOPC  C21117515   0.791   2.800   5.698  0.0178 -0.7271  0.1917
  147DOPC  H11R17516   0.756   2.824   5.595  2.8417  0.7278 -0.5351
  147DOPC  H11S17517   0.710   2.741   5.746  0.0692 -1.0618 -0.1267
  147DOPC  C21217518   0.910   2.703   5.690  0.1609  1.0144  0.6595
  147DOPC  H12R17519   0.904   2.630   5.774  0.4142 -0.9624 -0.9516
  147DOPC  H12S17520   1.011   2.743   5.711  1.5300 -0.6221 -2.2545
  147DOPC  C21317521   0.928   2.619   5.568 -0.0753 -0.0939  0.5433
  147DOPC  H13R17522   0.832   2.577   5.531  0.3489 -1.0058  0.4529
  147DOPC  H13S17523   0.995   2.531   5.580 -0.7940 -0.7713 -0.2370
  147DOPC  C21417524   0.985   2.720   5.464  0.0857  0.0041 -0.1581
  147DOPC  H14R17525   1.085   2.754   5.498  0.1186  2.2565 -2.2259
  147DOPC  H14S17526   0.923   2.810   5.445  0.3134  0.0858 -0.5408
  147DOPC  C21517527   1.027   2.653   5.339  0.1768 -0.2231 -0.8089
  147DOPC  H15R17528   0.946   2.599   5.286 -1.1148 -0.0261  0.8880
  147DOPC  H15S17529   1.099   2.575   5.372  2.0430  1.3819 -0.9066
  147DOPC  C21617530   1.095   2.739   5.234 -0.5492 -0.2904  0.3973
  147DOPC  H16R17531   1.166   2.804   5.288 -2.5327  1.4221  1.1151
  147DOPC  H16S17532   1.015   2.811   5.204 -1.9563 -1.6272  0.8208
  147DOPC  C21717533   1.149   2.661   5.115  0.3363  0.8883 -0.2356
  147DOPC  H17R17534   1.073   2.585   5.087 -0.0016  0.7364  1.0342
  147DOPC  H17S17535   1.239   2.605   5.148 -1.1977 -2.3645 -1.1562
  147DOPC  C21817536   1.165   2.758   4.991  0.2375  0.1316 -0.7737
  147DOPC  H18R17537   1.220   2.705   4.911  1.8587  0.6960 -0.0755
  147DOPC  H18S17538   1.216   2.847   5.032 -0.5562 -0.1620  0.9422
  147DOPC  H18T17539   1.060   2.792   4.974  0.7119  3.1414  1.5528
  147DOPC   C3317540   1.382   2.750   6.449 -0.3005  0.2147 -0.1820
  147DOPC   H3X17541   1.339   2.654   6.414  0.0416  0.1980 -0.5593
  147DOPC   H3Y17542   1.469   2.728   6.514 -1.5122 -1.7696  0.8657
  147DOPC   C3417543   1.425   2.817   6.312  0.0556 -0.2375  0.2940
  147DOPC   H4X17544   1.520   2.783   6.266 -0.1939  0.0986 -0.4881
  147DOPC   H4Y17545   1.434   2.923   6.345 -0.9839 -0.7107  2.3049
  147DOPC   C3517546   1.302   2.821   6.209  0.7239  0.6800 -0.5375
  147DOPC   H5X17547   1.219   2.887   6.241 -2.3892 -2.5611 -1.2931
  147DOPC   H5Y17548   1.258   2.720   6.214 -0.1970  1.0205 -1.4113
  147DOPC   C3617549   1.337   2.866   6.069 -0.2755  0.0388  0.4446
  147DOPC   H6X17550   1.348   2.976   6.068 -0.3668  0.0437 -0.1285
  147DOPC   H6Y17551   1.435   2.828   6.035  0.3604  0.2025  1.9824
  147DOPC   C3717552   1.228   2.848   5.960 -0.2122 -0.8515 -0.6715
  147DOPC   H7X17553   1.194   2.743   5.948  0.7728 -1.2861  0.1341
  147DOPC   H7Y17554   1.135   2.901   5.988 -0.2511 -0.6385 -1.1995
  147DOPC   C3817555   1.273   2.890   5.816  0.0344  0.7919 -0.4672
  147DOPC   H8X17556   1.184   2.858   5.758  1.0311  1.3190 -2.4044
  147DOPC   H8Y17557   1.367   2.838   5.789 -0.8004 -1.4489  0.6969
  147DOPC   C3917558   1.285   3.044   5.802 -0.9171 -0.4935  0.0657
  147DOPC   H9X17559   1.220   3.102   5.868  0.7736 -1.5222  2.7799
  147DOPC  C31017560   1.368   3.110   5.712  0.2010  0.1036 -0.1853
  147DOPC  H10X17561   1.342   3.216   5.696  1.0396  0.5761  1.3694
  147DOPC  C31117562   1.468   3.049   5.618 -0.2818  0.4722  0.4829
  147DOPC  H11X17563   1.512   2.965   5.675 -0.4430 -0.1847 -0.3444
  147DOPC  H11Y17564   1.553   3.113   5.586  1.5644 -1.5594  1.0699
  147DOPC  C31217565   1.414   2.986   5.487  0.0665  0.1960  0.3700
  147DOPC  H12X17566   1.363   3.062   5.425 -1.9745 -1.5434 -0.2017
  147DOPC  H12Y17567   1.335   2.911   5.512 -0.5644  0.8032  0.2226
  147DOPC  C31317568   1.523   2.919   5.396 -0.4516 -0.5050  0.3215
  147DOPC  H13X17569   1.614   2.983   5.392 -0.9574  0.1565 -1.1818
  147DOPC  H13Y17570   1.555   2.824   5.444  1.7230  0.9127  1.8847
  147DOPC  C31417571   1.478   2.895   5.252 -0.2557  0.6505  0.3589
  147DOPC  H14X17572   1.397   2.820   5.265 -1.1214  1.1785 -1.6876
  147DOPC  H14Y17573   1.433   2.985   5.204  1.5186  0.6919 -1.3689
  147DOPC  C31517574   1.594   2.836   5.170 -0.0035  0.3285 -0.5044
  147DOPC  H15X17575   1.561   2.785   5.077  0.9645  1.2784 -1.4031
  147DOPC  H15Y17576   1.642   2.757   5.232  2.6517  0.3119 -2.3912
  147DOPC  C31617577   1.702   2.936   5.118 -0.2432  0.2428  0.1044
  147DOPC  H16X17578   1.662   3.008   5.044  1.0202  1.6516  0.7193
  147DOPC  H16Y17579   1.738   3.000   5.202  3.1633  0.3091 -1.2359
  147DOPC  C31717580   1.814   2.853   5.039 -0.0224  0.0213 -0.3446
  147DOPC  H17X17581   1.881   2.804   5.112  0.6832  0.8053 -0.4570
  147DOPC  H17Y17582   1.765   2.766   4.989 -3.7952  2.1547 -0.7307
  147DOPC  C31817583   1.900   2.936   4.948  0.0612 -0.1233 -0.3188
  147DOPC  H18X17584   1.975   2.881   4.887  0.9330 -0.6150  1.1570
  147DOPC  H18Y17585   1.836   2.998   4.882  0.8033 -0.4424 -1.3729
  147DOPC  H18Z17586   1.964   3.003   5.009  0.3365  0.5817 -1.3458
  148DOPC     N17587   3.464   4.785   7.108 -0.1690  0.4579  1.0050
  148DOPC   C1217588   3.553   4.828   6.985 -0.2215 -0.2368 -0.2189
  148DOPC  H12A17589   3.570   4.738   6.928 -1.5540 -0.3052 -0.5360
  148DOPC  H12B17590   3.655   4.840   7.021 -0.4787  0.6503  0.2323
  148DOPC   C1317591   3.528   4.671   7.172 -0.3068  0.0099  0.8423
  148DOPC  H13A17592   3.517   4.579   7.117 -0.2162 -0.0606  0.9404
  148DOPC  H13B17593   3.633   4.678   7.197  0.1852 -0.8471 -0.8287
  148DOPC  H13C17594   3.475   4.649   7.263  0.7122 -0.4010  1.3497
  148DOPC   C1417595   3.335   4.742   7.047  0.3269 -0.3286 -0.0434
  148DOPC  H14A17596   3.345   4.657   6.983 -1.0837 -1.4555  1.1350
  148DOPC  H14B17597   3.272   4.708   7.128  1.1766 -1.1925  0.2669
  148DOPC  H14C17598   3.283   4.825   7.001  0.8921  1.1385  1.8125
  148DOPC   C1517599   3.449   4.904   7.190  0.5962  0.4946 -0.2991
  148DOPC  H15A17600   3.446   4.990   7.126 -0.3530  1.7565  1.3698
  148DOPC  H15B17601   3.530   4.922   7.260 -0.1603  1.4106  0.3665
  148DOPC  H15C17602   3.356   4.894   7.244  0.9194  2.0021  0.5927
  148DOPC   C1117603   3.519   4.957   6.901 -0.0949 -0.1542  0.0148
  148DOPC  H11A17604   3.577   4.952   6.806  0.4007 -0.5988  0.3395
  148DOPC  H11B17605   3.410   4.961   6.879 -0.8186 -0.7422  3.0041
  148DOPC     P17606   3.712   5.123   6.979  0.4798 -0.1963 -0.1511
  148DOPC   O1317607   3.814   5.015   7.008 -0.4063 -0.0570 -0.4021
  148DOPC   O1417608   3.723   5.244   7.063  0.0973  0.0589 -0.1439
  148DOPC   O1217609   3.556   5.068   6.981  0.0057 -0.4798  0.1353
  148DOPC   O1117610   3.732   5.164   6.826 -0.6677 -0.2654 -0.0507
  148DOPC    C117611   3.665   5.287   6.779  0.1707 -0.2382 -0.1708
  148DOPC    HA17612   3.745   5.361   6.760 -1.3479  0.9739 -2.2025
  148DOPC    HB17613   3.572   5.315   6.833  1.0395  0.7567  0.8568
  148DOPC    C217614   3.610   5.268   6.629  0.4810 -0.3361  0.1470
  148DOPC    HS17615   3.512   5.217   6.638  0.5324 -0.3519  0.6346
  148DOPC   O2117616   3.707   5.198   6.551 -0.4564 -0.0108 -0.0787
  148DOPC   C2117617   3.666   5.076   6.514 -0.0196  0.6458 -0.3701
  148DOPC   O2217618   3.551   5.036   6.534 -0.2003 -0.7438 -0.0051
  148DOPC   C2217619   3.768   4.991   6.439 -0.6332 -0.0257  0.2258
  148DOPC   H2R17620   3.838   4.965   6.522 -0.3450  0.5332  0.1618
  148DOPC   H2S17621   3.820   5.051   6.361 -0.4129 -0.9816 -0.3824
  148DOPC    C317622   3.576   5.406   6.553  0.0967 -0.0030  0.9426
  148DOPC    HX17623   3.662   5.477   6.553 -0.5754  0.8359  0.4336
  148DOPC    HY17624   3.499   5.450   6.621  0.3132 -0.3302  1.4091
  148DOPC   O3117625   3.520   5.381   6.421  0.3906 -0.0686 -0.2849
  148DOPC   C3117626   3.494   5.495   6.356  0.9851  0.0194 -0.1382
  148DOPC   O3217627   3.522   5.605   6.395 -0.0632 -0.0494 -0.1307
  148DOPC   C3217628   3.421   5.460   6.227  0.2231  0.4743 -0.3920
  148DOPC   H2X17629   3.463   5.373   6.173  0.8003 -0.4150  1.4128
  148DOPC   H2Y17630   3.315   5.457   6.261  1.2097  4.0250  4.1011
  148DOPC   C2317631   3.708   4.861   6.371 -0.1191  0.7079 -0.5838
  148DOPC   H3R17632   3.665   4.888   6.272  0.7839  2.5416 -0.5231
  148DOPC   H3S17633   3.626   4.819   6.434  0.4668 -0.2144 -0.4177
  148DOPC   C2417634   3.821   4.759   6.349  0.6552  0.3494  0.1789
  148DOPC   H4R17635   3.876   4.736   6.442 -2.7828 -0.8283  2.1110
  148DOPC   H4S17636   3.899   4.799   6.281 -0.5287 -1.3003 -2.2931
  148DOPC   C2517637   3.782   4.627   6.277 -0.0211 -0.5767  0.1314
  148DOPC   H5R17638   3.728   4.644   6.181  1.1127  1.7444 -0.1449
  148DOPC   H5S17639   3.715   4.566   6.342 -0.4240  1.3040  1.5688
  148DOPC   C2617640   3.906   4.541   6.263  0.3437 -0.4871 -0.1114
  148DOPC   H6R17641   3.956   4.528   6.362 -0.1811 -0.8827  0.1032
  148DOPC   H6S17642   3.982   4.588   6.196  0.8893 -0.7633  0.2998
  148DOPC   C2717643   3.884   4.394   6.202 -0.2989 -0.1207 -0.6141
  148DOPC   H7R17644   3.832   4.324   6.271  1.6942 -0.8668  0.1972
  148DOPC   H7S17645   3.989   4.360   6.198 -0.1728  0.2491 -0.5396
  148DOPC   C2817646   3.820   4.384   6.066  0.2393  0.3347  0.6270
  148DOPC   H8R17647   3.714   4.415   6.075  0.3587  0.7296  0.7035
  148DOPC   H8S17648   3.808   4.280   6.029  1.8102 -0.2415  1.6083
  148DOPC   C2917649   3.902   4.466   5.965  0.0531  0.0411 -0.1120
  148DOPC   H9R17650   4.007   4.491   5.985 -0.6448  4.5105 -0.9911
  148DOPC  C21017651   3.863   4.524   5.849 -0.3039  0.7010  0.3514
  148DOPC  H10R17652   3.942   4.581   5.798  0.9317  4.4928  5.6264
  148DOPC  C21117653   3.727   4.515   5.770 -0.4928 -0.0022  0.2872
  148DOPC  H11R17654   3.661   4.432   5.802  1.4054 -1.2139  1.2678
  148DOPC  H11S17655   3.758   4.491   5.666  0.8979  1.2778  0.3701
  148DOPC  C21217656   3.649   4.641   5.761  0.0762 -0.7445 -0.4048
  148DOPC  H12R17657   3.560   4.629   5.696  0.1993  2.6143 -1.4260
  148DOPC  H12S17658   3.706   4.722   5.710 -2.0919  1.7902  0.9394
  148DOPC  C21317659   3.599   4.689   5.906 -0.3324 -0.0635  0.2451
  148DOPC  H13R17660   3.687   4.726   5.963 -0.0765 -1.6698  0.9763
  148DOPC  H13S17661   3.565   4.601   5.965  1.2007  0.2492  1.6607
  148DOPC  C21417662   3.498   4.802   5.909 -0.4415  0.1195 -0.0591
  148DOPC  H14R17663   3.392   4.780   5.881 -0.5803  1.7057 -0.9420
  148DOPC  H14S17664   3.533   4.873   5.830  1.0548  1.5528  1.8093
  148DOPC  C21517665   3.501   4.875   6.044 -0.0717 -0.2507 -0.1392
  148DOPC  H15R17666   3.599   4.923   6.061 -1.4630  2.2946  1.2883
  148DOPC  H15S17667   3.496   4.791   6.116  0.7074  1.3408  1.8650
  148DOPC  C21617668   3.388   4.978   6.069 -0.7241  0.1522  0.8396
  148DOPC  H16R17669   3.288   4.932   6.082 -0.5688 -0.3855  0.1680
  148DOPC  H16S17670   3.396   5.063   5.997 -0.2749 -1.1171 -0.6657
  148DOPC  C21717671   3.414   5.042   6.209  0.0052 -0.0956 -0.9264
  148DOPC  H17R17672   3.505   5.106   6.210  0.2161 -0.3946 -0.8008
  148DOPC  H17S17673   3.425   4.963   6.286  0.8087  0.6684 -0.2380
  148DOPC  C21817674   3.305   5.139   6.257 -0.0411  0.0563  0.2510
  148DOPC  H18R17675   3.343   5.182   6.352  0.9449  0.8215 -0.4604
  148DOPC  H18S17676   3.211   5.081   6.263  0.4191 -0.6182  1.1085
  148DOPC  H18T17677   3.282   5.226   6.192 -2.1384  0.0147  0.8712
  148DOPC   C3317678   3.434   5.576   6.122 -0.1484 -0.1646 -0.0075
  148DOPC   H3X17679   3.542   5.589   6.102 -0.1600 -1.6480 -1.1517
  148DOPC   H3Y17680   3.405   5.673   6.167 -2.1206 -0.2518 -0.9717
  148DOPC   C3417681   3.348   5.550   6.001 -0.3550  0.0260  0.6150
  148DOPC   H4X17682   3.238   5.550   6.019 -0.6178 -0.1705 -0.8688
  148DOPC   H4Y17683   3.369   5.446   5.968 -1.6960 -0.2072  0.4122
  148DOPC   C3517684   3.378   5.653   5.894 -0.2202 -0.5189 -0.7516
  148DOPC   H5X17685   3.485   5.674   5.872 -0.5299  2.0181 -0.1241
  148DOPC   H5Y17686   3.358   5.746   5.951  2.6936 -0.9203  1.1122
  148DOPC   C3617687   3.293   5.635   5.762 -0.2451  0.0639  0.4482
  148DOPC   H6X17688   3.185   5.633   5.786 -1.5880  0.9619 -4.3797
  148DOPC   H6Y17689   3.306   5.729   5.704 -0.8558 -0.7931 -1.1521
  148DOPC   C3717690   3.347   5.518   5.686  0.5489 -0.1037 -0.2329
  148DOPC   H7X17691   3.455   5.534   5.667  1.0372 -1.0900  1.4849
  148DOPC   H7Y17692   3.338   5.419   5.736  0.1259 -0.4897 -1.0537
  148DOPC   C3817693   3.275   5.507   5.547 -0.2302  0.0792 -0.6053
  148DOPC   H8X17694   3.166   5.524   5.561 -0.3147 -0.5827 -0.4432
  148DOPC   H8Y17695   3.277   5.400   5.520 -1.3270 -0.2255  0.4447
  148DOPC   C3917696   3.323   5.588   5.432 -0.3879  0.0829  0.9431
  148DOPC   H9X17697   3.292   5.694   5.435  2.2809  0.9323  0.6698
  148DOPC  C31017698   3.399   5.555   5.326  0.3823  0.2243  0.1933
  148DOPC  H10X17699   3.409   5.633   5.248 -0.6565  2.5579  2.2526
  148DOPC  C31117700   3.459   5.423   5.298 -0.1035 -0.3162 -0.4331
  148DOPC  H11X17701   3.438   5.362   5.388 -0.6839  1.2454  0.5228
  148DOPC  H11Y17702   3.568   5.445   5.296  0.4404 -2.1418  2.8746
  148DOPC  C31217703   3.404   5.361   5.163 -0.2307 -0.9815 -1.3351
  148DOPC  H12X17704   3.294   5.347   5.158 -0.4189  0.2661 -0.9446
  148DOPC  H12Y17705   3.445   5.257   5.166 -0.6207 -1.1210 -0.5242
  148DOPC  C31317706   3.442   5.436   5.026 -0.3628  0.5609 -1.2272
  148DOPC  H13X17707   3.363   5.507   4.992 -0.2513  1.4204  0.2278
  148DOPC  H13Y17708   3.535   5.494   5.044 -1.3514  2.1265 -0.9061
  148DOPC  C31417709   3.461   5.333   4.915 -0.1467  0.1758  0.3671
  148DOPC  H14X17710   3.545   5.264   4.937 -0.9196 -1.3267 -1.1767
  148DOPC  H14Y17711   3.377   5.262   4.903 -0.7676  1.0166 -0.3519
  148DOPC  C31517712   3.479   5.398   4.787 -0.0464 -0.0110  0.9364
  148DOPC  H15X17713   3.572   5.457   4.792 -0.2295  0.7584 -2.1830
  148DOPC  H15Y17714   3.406   5.480   4.769  0.0349  0.2373  1.6943
  148DOPC  C31617715   3.490   5.295   4.670  0.4989 -0.1620 -0.0431
  148DOPC  H16X17716   3.575   5.232   4.704  1.5953  1.7139  0.8251
  148DOPC  H16Y17717   3.395   5.237   4.671 -0.9430  2.0081  1.7523
  148DOPC  C31717718   3.497   5.369   4.536  0.0967 -0.4331  0.6882
  148DOPC  H17X17719   3.397   5.417   4.535 -0.2124 -1.0813 -0.2855
  148DOPC  H17Y17720   3.574   5.449   4.528  2.0563 -2.3436 -1.0753
  148DOPC  C31817721   3.514   5.289   4.400 -0.1670  0.4661 -0.2756
  148DOPC  H18X17722   3.431   5.216   4.402 -0.2306  0.5132 -1.0138
  148DOPC  H18Y17723   3.490   5.351   4.312 -2.2287 -2.0545 -1.6296
  148DOPC  H18Z17724   3.614   5.242   4.393  0.5217  1.9154 -0.5321
  149DOPC     N17725   0.908   1.936   7.133 -0.1502 -0.1346  0.9597
  149DOPC   C1217726   0.864   1.850   7.013  0.1707  0.5276  0.3494
  149DOPC  H12A17727   0.763   1.870   6.981  0.3990 -1.2767 -1.7951
  149DOPC  H12B17728   0.874   1.748   7.048  0.6806  0.5816  0.3667
  149DOPC   C1317729   1.043   1.902   7.187  0.3522 -0.0488  0.5533
  149DOPC  H13A17730   1.104   1.895   7.098 -3.0291 -1.3121 -1.8525
  149DOPC  H13B17731   1.099   1.969   7.251 -0.2947  2.9072 -1.7592
  149DOPC  H13C17732   1.050   1.804   7.232 -0.6994 -1.2399 -1.7491
  149DOPC   C1417733   0.807   1.930   7.243 -0.3566  0.4276  0.2420
  149DOPC  H14A17734   0.811   1.831   7.285 -1.2287 -0.6251 -1.9800
  149DOPC  H14B17735   0.833   1.998   7.322  1.3926  0.1938 -0.0965
  149DOPC  H14C17736   0.704   1.943   7.211 -0.1628  1.6349  0.0584
  149DOPC   C1517737   0.921   2.074   7.085 -0.2893  0.0566  0.3119
  149DOPC  H15A17738   0.958   2.136   7.165  2.9934 -2.0120  0.5872
  149DOPC  H15B17739   0.829   2.112   7.042  0.5492  0.1562 -1.5114
  149DOPC  H15C17740   1.001   2.082   7.013  0.5750  1.6442  1.3858
  149DOPC   C1117741   0.941   1.861   6.874  0.3277  0.6860  0.0193
  149DOPC  H11A17742   0.897   1.789   6.803  0.1240 -0.5807  1.3889
  149DOPC  H11B17743   0.927   1.962   6.829 -0.9224  0.3886 -0.2779
  149DOPC     P17744   1.143   1.696   6.911 -0.4217  0.1031  0.0780
  149DOPC   O1317745   1.032   1.607   6.955 -0.1594 -0.2669 -0.0321
  149DOPC   O1417746   1.273   1.699   6.984  0.2908 -0.0437 -0.3910
  149DOPC   O1217747   1.085   1.839   6.897 -0.5542  0.0742 -0.0594
  149DOPC   O1117748   1.175   1.650   6.765  0.1094 -0.7094  0.4667
  149DOPC    C117749   1.254   1.724   6.675  0.2682  0.0086 -0.2862
  149DOPC    HA17750   1.357   1.727   6.715  0.4522  1.1688 -0.7803
  149DOPC    HB17751   1.227   1.832   6.679  2.2737  0.4937  1.3234
  149DOPC    C217752   1.245   1.674   6.523  0.5047  0.3209 -0.2492
  149DOPC    HS17753   1.303   1.741   6.454  1.6402 -0.9927 -0.6161
  149DOPC   O2117754   1.111   1.649   6.478 -0.4811 -0.0039  0.3354
  149DOPC   C2117755   1.048   1.763   6.461 -0.0608  0.0528  0.3609
  149DOPC   O2217756   1.102   1.872   6.468 -0.2081  0.4487 -0.0627
  149DOPC   C2217757   0.903   1.736   6.422  0.2761 -0.3756  0.2072
  149DOPC   H2R17758   0.843   1.820   6.462 -0.3919  1.3178 -3.8673
  149DOPC   H2S17759   0.850   1.650   6.469  0.6363  0.3570  2.0625
  149DOPC    C317760   1.310   1.529   6.514  0.0020  0.3506 -0.6212
  149DOPC    HX17761   1.244   1.456   6.565  2.9776 -0.7782  1.8914
  149DOPC    HY17762   1.404   1.527   6.572 -0.4631  1.5510  0.2336
  149DOPC   O3117763   1.337   1.498   6.379 -0.5428 -0.5165  0.2889
  149DOPC   C3117764   1.251   1.412   6.314  0.0903 -0.5531  0.2311
  149DOPC   O3217765   1.149   1.368   6.360  0.0390 -0.5130 -0.5627
  149DOPC   C3217766   1.294   1.387   6.168 -0.0454  0.1264  0.2686
  149DOPC   H2X17767   1.277   1.478   6.106 -0.5975 -0.4347 -0.4047
  149DOPC   H2Y17768   1.404   1.379   6.157 -0.3811 -1.9208 -2.5740
  149DOPC   C2317769   0.883   1.731   6.266  1.0130 -0.0147 -0.4668
  149DOPC   H3R17770   0.907   1.826   6.214  3.9567 -1.2448 -1.5743
  149DOPC   H3S17771   0.777   1.705   6.249  1.3879 -1.3826 -0.8220
  149DOPC   C2417772   0.976   1.633   6.204  0.4407 -0.3360  0.2191
  149DOPC   H4R17773   0.955   1.539   6.258  0.1414  0.0879  0.8558
  149DOPC   H4S17774   1.084   1.651   6.223  0.3290  0.4744  0.1256
  149DOPC   C2517775   0.952   1.612   6.048  0.0465 -0.4031  0.0777
  149DOPC   H5R17776   0.841   1.601   6.039 -0.1235  0.5476  0.8162
  149DOPC   H5S17777   0.990   1.515   6.008 -2.3554 -0.9483 -1.0840
  149DOPC   C2617778   0.993   1.729   5.949  0.4586 -0.1965  0.2297
  149DOPC   H6R17779   1.103   1.745   5.954  0.1466  2.7339 -0.1772
  149DOPC   H6S17780   0.941   1.823   5.980 -3.0543 -1.7518 -0.5005
  149DOPC   C2717781   0.955   1.709   5.803 -0.2038 -0.7479 -0.1063
  149DOPC   H7R17782   0.845   1.698   5.799 -0.4765  1.8028 -2.3012
  149DOPC   H7S17783   1.008   1.616   5.773 -0.9767 -0.9646 -0.8477
  149DOPC   C2817784   0.995   1.825   5.708 -0.0611 -0.6606 -0.4785
  149DOPC   H8R17785   0.930   1.914   5.722  1.8247  1.2038 -2.8095
  149DOPC   H8S17786   0.966   1.790   5.606 -2.4527 -2.6373  0.7724
  149DOPC   C2917787   1.138   1.871   5.707 -0.2222  0.2863  0.2887
  149DOPC   H9R17788   1.192   1.874   5.803 -1.2117  1.6707  0.8371
  149DOPC  C21017789   1.203   1.903   5.594  0.1020 -0.0223  0.2437
  149DOPC  H10R17790   1.306   1.937   5.615  0.6123 -1.9687  1.0785
  149DOPC  C21117791   1.164   1.891   5.445 -0.3594  0.4542 -0.3283
  149DOPC  H11R17792   1.092   1.969   5.412  1.4990  2.0826 -0.6710
  149DOPC  H11S17793   1.109   1.795   5.435  0.1585  0.3468 -2.7729
  149DOPC  C21217794   1.286   1.872   5.352  0.0311 -0.2292 -0.2872
  149DOPC  H12R17795   1.350   1.793   5.398  0.5239  0.0191 -0.5397
  149DOPC  H12S17796   1.360   1.955   5.359 -1.8516  1.7221 -2.1359
  149DOPC  C21317797   1.243   1.848   5.206 -0.5263  0.1982 -0.0794
  149DOPC  H13R17798   1.196   1.941   5.165  0.0168 -0.2812 -1.8676
  149DOPC  H13S17799   1.161   1.774   5.213 -1.3539  1.1910  1.2507
  149DOPC  C21417800   1.364   1.810   5.126 -0.6848  0.6608  0.6325
  149DOPC  H14R17801   1.437   1.767   5.198  0.5889 -0.4440 -1.2333
  149DOPC  H14S17802   1.416   1.901   5.089 -1.0632  1.2398  1.4763
  149DOPC  C21517803   1.336   1.707   5.016  0.1937 -0.0418 -0.1594
  149DOPC  H15R17804   1.308   1.768   4.928 -0.0128  2.4105  1.4918
  149DOPC  H15S17805   1.252   1.640   5.044 -1.5703  1.0720 -2.4637
  149DOPC  C21617806   1.460   1.612   5.001  0.0194 -0.4097  0.2698
  149DOPC  H16R17807   1.417   1.525   4.946  0.0229  0.6160 -1.4137
  149DOPC  H16S17808   1.477   1.576   5.105 -2.8421  2.8278  2.1103
  149DOPC  C21717809   1.593   1.667   4.952  0.3076  0.6429 -0.8083
  149DOPC  H17R17810   1.646   1.711   5.039 -0.4443 -1.1880  0.6264
  149DOPC  H17S17811   1.570   1.749   4.881 -1.4690  0.2236 -0.7607
  149DOPC  C21817812   1.687   1.562   4.895 -0.4569  0.0592  0.1083
  149DOPC  H18R17813   1.643   1.498   4.816  0.7913 -2.4206  1.3224
  149DOPC  H18S17814   1.734   1.499   4.973  0.1834 -1.5313 -1.5003
  149DOPC  H18T17815   1.778   1.605   4.848 -0.4327  0.9485  0.9307
  149DOPC   C3317816   1.223   1.273   6.101  0.0515  0.2232 -0.6902
  149DOPC   H3X17817   1.240   1.274   5.991  0.9600  1.1867 -0.5625
  149DOPC   H3Y17818   1.114   1.285   6.120  0.2077  0.2682  0.2244
  149DOPC   C3417819   1.256   1.130   6.147  0.4806 -0.2771 -0.2653
  149DOPC   H4X17820   1.313   1.138   6.242 -2.1766  0.9491  1.3650
  149DOPC   H4Y17821   1.319   1.073   6.076  1.7715  1.5286 -0.6429
  149DOPC   C3517822   1.126   1.047   6.176 -0.3122  0.0370 -0.0978
  149DOPC   H5X17823   1.053   1.106   6.235 -1.7692 -0.8851 -0.9078
  149DOPC   H5Y17824   1.158   0.964   6.243  0.5299  0.0356 -0.4917
  149DOPC   C3617825   1.048   0.982   6.057  0.3993  0.9645 -0.7959
  149DOPC   H6X17826   0.997   1.063   6.001 -2.4198  1.2640  1.9466
  149DOPC   H6Y17827   1.117   0.933   5.985  2.5662 -0.4618  2.0327
  149DOPC   C3717828   0.945   0.877   6.094 -0.2633 -0.3221 -0.2335
  149DOPC   H7X17829   0.996   0.784   6.128  0.2379 -0.5455 -1.5094
  149DOPC   H7Y17830   0.873   0.913   6.171 -0.6268 -1.9877  0.2495
  149DOPC   C3817831   0.860   0.839   5.966  0.0459  0.0497 -0.3483
  149DOPC   H8X17832   0.924   0.806   5.882 -1.0554  1.3024 -1.7233
  149DOPC   H8Y17833   0.806   0.927   5.925  1.5910  1.4257  0.4198
  149DOPC   C3917834   0.767   0.721   6.003 -0.5073  0.3233  0.5005
  149DOPC   H9X17835   0.819   0.643   6.059  1.5628  1.0664 -0.2858
  149DOPC  C31017836   0.638   0.718   5.973  0.2029 -0.3942  0.2656
  149DOPC  H10X17837   0.582   0.626   5.998 -0.7220  0.6759  2.4091
  149DOPC  C31117838   0.552   0.824   5.908 -0.9112 -0.2756 -0.2978
  149DOPC  H11X17839   0.592   0.926   5.927  1.3672 -1.3155  0.9780
  149DOPC  H11Y17840   0.451   0.806   5.950 -0.9168 -2.2712 -1.0538
  149DOPC  C31217841   0.528   0.813   5.754 -0.2142  0.1601  0.0506
  149DOPC  H12X17842   0.429   0.864   5.749 -0.1517  0.2692 -0.0994
  149DOPC  H12Y17843   0.517   0.705   5.734  3.0082 -0.3517  0.4326
  149DOPC  C31317844   0.632   0.878   5.664  0.4926 -0.5996 -0.7874
  149DOPC  H13X17845   0.657   0.981   5.698  2.5866 -1.3297  0.1036
  149DOPC  H13Y17846   0.719   0.808   5.670  0.9061 -0.0060  0.9929
  149DOPC  C31417847   0.575   0.896   5.520 -0.3721 -0.4881 -0.8224
  149DOPC  H14X17848   0.507   0.983   5.516  1.2886  1.0018  1.0032
  149DOPC  H14Y17849   0.666   0.924   5.463  0.3125 -0.6521  0.1621
  149DOPC  C31517850   0.506   0.773   5.456  0.4870 -0.0355 -0.0289
  149DOPC  H15X17851   0.416   0.745   5.514  0.9375 -1.5615 -0.0072
  149DOPC  H15Y17852   0.583   0.693   5.455 -1.5178 -2.0582 -0.6606
  149DOPC  C31617853   0.462   0.800   5.314 -0.7136  0.5830  0.0344
  149DOPC  H16X17854   0.395   0.888   5.317  1.4996  2.3538  0.2655
  149DOPC  H16Y17855   0.554   0.824   5.257  0.2419 -2.1187  0.2923
  149DOPC  C31717856   0.391   0.684   5.244 -0.1782  0.1868  0.2863
  149DOPC  H17X17857   0.471   0.613   5.214 -0.4744 -0.3929  0.8437
  149DOPC  H17Y17858   0.309   0.636   5.302  0.5537 -0.2412  0.9768
  149DOPC  C31817859   0.328   0.725   5.108  0.9208 -0.6612  0.7959
  149DOPC  H18X17860   0.399   0.799   5.064  0.2238 -0.4427  0.0241
  149DOPC  H18Y17861   0.310   0.654   5.025  2.0114  0.9374 -0.9092
  149DOPC  H18Z17862   0.238   0.785   5.134  1.2150 -0.1417  0.6405
  150DOPC     N17863   6.283   3.932   7.184 -0.3963 -0.1207  0.1631
  150DOPC   C1217864   6.146   3.990   7.167 -0.0645 -0.4837 -0.5797
  150DOPC  H12A17865   6.127   4.047   7.256 -0.6824 -1.6317  0.0413
  150DOPC  H12B17866   6.071   3.913   7.160  1.0644 -1.4923 -2.8520
  150DOPC   C1317867   6.386   4.039   7.204 -0.0559 -0.0493 -0.7486
  150DOPC  H13A17868   6.365   4.093   7.295  0.2665 -0.0092 -0.6958
  150DOPC  H13B17869   6.485   3.999   7.221  0.0507 -0.9393 -3.0870
  150DOPC  H13C17870   6.395   4.108   7.122  0.7622 -1.0978 -1.5676
  150DOPC   C1417871   6.315   3.849   7.064  0.1471  0.9897  0.2180
  150DOPC  H14A17872   6.251   3.762   7.068  0.5446  0.7127  0.7793
  150DOPC  H14B17873   6.297   3.905   6.974 -0.9020 -0.6538 -0.6469
  150DOPC  H14C17874   6.415   3.808   7.061 -0.9967 -2.0415 -0.3416
  150DOPC   C1517875   6.296   3.846   7.313  0.4246 -0.0529  0.3841
  150DOPC  H15A17876   6.228   3.763   7.299 -0.4352  0.7071 -0.1080
  150DOPC  H15B17877   6.255   3.910   7.390 -3.3243 -1.3098 -0.3505
  150DOPC  H15C17878   6.398   3.824   7.339  0.3012 -0.1125  0.8275
  150DOPC   C1117879   6.119   4.096   7.057  0.3252  0.4721 -0.2211
  150DOPC  H11A17880   6.027   4.150   7.087 -0.7397 -3.0158  3.8556
  150DOPC  H11B17881   6.201   4.171   7.057 -0.6673  1.6296 -2.0091
  150DOPC     P17882   5.983   3.937   6.893  0.3050  0.1181  0.1720
  150DOPC   O1317883   5.932   3.868   7.015  0.0610  0.4270  0.5768
  150DOPC   O1417884   6.027   3.844   6.789 -0.5034  0.3362 -0.4333
  150DOPC   O1217885   6.104   4.033   6.928  0.0766  0.2002 -0.4168
  150DOPC   O1117886   5.876   4.036   6.832 -0.0241 -0.0649  0.7533
  150DOPC    C117887   5.901   4.169   6.790 -0.7565  0.7158  0.8149
  150DOPC    HA17888   5.979   4.227   6.843  1.3742  1.0105 -2.3665
  150DOPC    HB17889   5.809   4.223   6.819 -1.8379 -0.4816 -0.2328
  150DOPC    C217890   5.910   4.188   6.631  0.4358  0.5908 -0.2342
  150DOPC    HS17891   5.865   4.289   6.615 -1.1965 -0.3728 -2.0463
  150DOPC   O2117892   5.842   4.091   6.542  0.0384  0.5127  0.3724
  150DOPC   C2117893   5.709   4.090   6.565 -0.0873 -0.6068  0.2478
  150DOPC   O2217894   5.650   4.157   6.642  0.4104 -0.3604  0.1467
  150DOPC   C2217895   5.650   3.985   6.469 -0.3814 -0.1163 -0.8961
  150DOPC   H2R17896   5.641   3.894   6.533  0.9642  0.9347  0.8991
  150DOPC   H2S17897   5.714   3.980   6.379  1.0902  3.8295 -0.2816
  150DOPC    C317898   6.062   4.192   6.587  0.0369 -0.2152  0.3850
  150DOPC    HX17899   6.087   4.085   6.601 -2.2373 -0.8191  0.2340
  150DOPC    HY17900   6.120   4.257   6.657 -0.1424  0.1816  0.1688
  150DOPC   O3117901   6.074   4.225   6.449  0.0112  0.1448  0.0157
  150DOPC   C3117902   6.052   4.348   6.411  0.0530  1.0439 -0.0437
  150DOPC   O3217903   6.028   4.447   6.484 -0.5627  0.7955  0.9685
  150DOPC   C3217904   6.055   4.349   6.254  0.0347  0.4059 -0.0768
  150DOPC   H2X17905   6.115   4.262   6.219 -1.1845 -1.3000  1.8555
  150DOPC   H2Y17906   5.946   4.342   6.232 -0.4989  1.4850  1.9846
  150DOPC   C2317907   5.505   4.014   6.420  0.8508 -0.1066  0.3765
  150DOPC   H3R17908   5.434   4.029   6.504 -0.2405 -2.2947 -0.0720
  150DOPC   H3S17909   5.473   3.926   6.359  3.2302  0.6666 -2.2028
  150DOPC   C2417910   5.494   4.124   6.309  0.1234 -0.3679 -1.0120
  150DOPC   H4R17911   5.539   4.081   6.217  2.5490  0.6362 -0.3611
  150DOPC   H4S17912   5.555   4.214   6.330 -0.2702  0.0256 -1.5294
  150DOPC   C2517913   5.343   4.159   6.299  0.1559  0.3416  0.5040
  150DOPC   H5R17914   5.320   4.211   6.394 -1.2127 -2.4349  1.8353
  150DOPC   H5S17915   5.286   4.065   6.285  1.3249 -0.4609  0.9100
  150DOPC   C2617916   5.302   4.252   6.180  0.4783 -0.4051  0.6485
  150DOPC   H6R17917   5.312   4.212   6.077 -0.9369  0.4451  0.1514
  150DOPC   H6S17918   5.361   4.346   6.184  0.8347 -0.6710  2.2979
  150DOPC   C2717919   5.151   4.299   6.186  0.2120 -0.0276  0.2744
  150DOPC   H7R17920   5.139   4.346   6.286 -1.0749 -0.7423  0.4676
  150DOPC   H7S17921   5.095   4.204   6.190  2.2680 -1.3050 -0.0732
  150DOPC   C2817922   5.116   4.389   6.066  0.2018 -0.7231  0.3876
  150DOPC   H8R17923   5.103   4.316   5.983 -0.7771 -1.0267  0.7892
  150DOPC   H8S17924   5.204   4.456   6.056  0.1532  0.0603  3.9304
  150DOPC   C2917925   4.988   4.465   6.091 -0.3368 -0.0333  0.4794
  150DOPC   H9R17926   4.945   4.455   6.192  3.3578 -1.4786  2.0996
  150DOPC  C21017927   4.934   4.540   6.001 -0.0324 -0.4077 -0.0812
  150DOPC  H10R17928   4.841   4.595   6.022  1.2376  1.2379  1.6518
  150DOPC  C21117929   5.008   4.578   5.869 -0.4253  0.0064  0.7160
  150DOPC  H11R17930   5.117   4.559   5.870 -0.6435 -1.4737  0.2523
  150DOPC  H11S17931   4.998   4.687   5.849  0.9616  0.3707  1.9117
  150DOPC  C21217932   4.967   4.511   5.735 -0.1352 -0.8548 -0.1810
  150DOPC  H12R17933   4.961   4.401   5.749 -2.0481 -0.5663  1.7771
  150DOPC  H12S17934   5.028   4.548   5.650 -0.8837  0.6638 -0.0893
  150DOPC  C21317935   4.823   4.576   5.711  0.0635  0.0456  0.1843
  150DOPC  H13R17936   4.818   4.682   5.742  3.0607  0.5214 -0.5771
  150DOPC  H13S17937   4.752   4.520   5.775 -1.2569  1.2456 -0.1838
  150DOPC  C21417938   4.792   4.573   5.559  0.3786 -0.2362 -0.2322
  150DOPC  H14R17939   4.796   4.464   5.537  0.8885 -0.0302 -1.2482
  150DOPC  H14S17940   4.873   4.626   5.503 -1.5231  2.4348 -0.6456
  150DOPC  C21517941   4.655   4.634   5.524  0.4826 -0.2832  0.5483
  150DOPC  H15R17942   4.672   4.742   5.547  0.6343 -0.2658  0.3613
  150DOPC  H15S17943   4.581   4.585   5.590 -0.1122  1.1743  1.0006
  150DOPC  C21617944   4.619   4.616   5.381 -0.9819  0.8514 -0.0081
  150DOPC  H16R17945   4.627   4.505   5.375 -2.1163  0.5074  3.1669
  150DOPC  H16S17946   4.691   4.663   5.310  1.8135 -1.3509  1.1535
  150DOPC  C21717947   4.469   4.653   5.352  0.0497 -0.0853 -0.2626
  150DOPC  H17R17948   4.455   4.678   5.245 -1.5687 -2.2820 -0.6131
  150DOPC  H17S17949   4.434   4.741   5.411  0.3588 -1.1114  1.5364
  150DOPC  C21817950   4.373   4.530   5.365 -0.4197  0.0860 -0.0054
  150DOPC  H18R17951   4.343   4.511   5.470 -0.2221  0.8601  0.1961
  150DOPC  H18S17952   4.437   4.447   5.328  1.9548  1.8509 -0.1192
  150DOPC  H18T17953   4.281   4.561   5.310 -0.1966 -0.0306 -0.4510
  150DOPC   C3317954   6.118   4.481   6.200 -0.4650  0.1549 -0.1216
  150DOPC   H3X17955   6.228   4.486   6.204 -0.4746  0.0174  0.3497
  150DOPC   H3Y17956   6.083   4.561   6.268  0.1877 -1.8033  2.6616
  150DOPC   C3417957   6.086   4.518   6.051  0.1207  0.3142 -0.1048
  150DOPC   H4X17958   6.123   4.434   5.989 -0.1631 -0.0969  0.2765
  150DOPC   H4Y17959   6.141   4.612   6.029  0.8403 -0.2695 -0.8528
  150DOPC   C3517960   5.933   4.539   6.020 -0.1034  0.5486 -0.3939
  150DOPC   H5X17961   5.896   4.598   6.107  1.1623  1.7569 -0.6539
  150DOPC   H5Y17962   5.898   4.433   6.020 -0.3608  0.6274 -1.0837
  150DOPC   C3617963   5.911   4.610   5.886 -0.3607 -0.0313 -0.7001
  150DOPC   H6X17964   5.808   4.650   5.888  0.0126  1.0107 -1.2803
  150DOPC   H6Y17965   5.976   4.700   5.878  0.8509 -1.0017 -2.6109
  150DOPC   C3717966   5.950   4.513   5.775  0.3795  0.3985 -0.4724
  150DOPC   H7X17967   6.061   4.517   5.774  0.5213  0.4469  2.8907
  150DOPC   H7Y17968   5.920   4.408   5.797  0.3207  0.4655 -0.2249
  150DOPC   C3817969   5.904   4.544   5.629 -0.1362 -0.5104 -0.4038
  150DOPC   H8X17970   5.916   4.654   5.622 -0.4025 -0.3903  0.8194
  150DOPC   H8Y17971   5.796   4.521   5.617  0.3762 -3.2538 -0.4626
  150DOPC   C3917972   5.986   4.469   5.526 -0.1544 -0.2454  0.2522
  150DOPC   H9X17973   6.095   4.482   5.532 -0.3873  2.2581  0.1946
  150DOPC  C31017974   5.940   4.372   5.447 -0.6843  0.0884 -0.0689
  150DOPC  H10X17975   6.009   4.322   5.378 -0.3039  2.4943 -1.5541
  150DOPC  C31117976   5.804   4.318   5.430  0.2136  0.0702 -0.5760
  150DOPC  H11X17977   5.758   4.338   5.529 -0.1106  0.9865 -0.8951
  150DOPC  H11Y17978   5.788   4.209   5.417  0.5151 -0.0007 -0.3686
  150DOPC  C31217979   5.708   4.404   5.343  0.9587  0.1130  0.0268
  150DOPC  H12X17980   5.749   4.401   5.240  1.9562  0.2462  0.3978
  150DOPC  H12Y17981   5.706   4.508   5.384 -0.6011 -0.5816  1.8623
  150DOPC  C31317982   5.560   4.364   5.329  0.0222  0.2884  0.2902
  150DOPC  H13X17983   5.499   4.447   5.287 -2.3074 -1.8220 -0.6964
  150DOPC  H13Y17984   5.547   4.273   5.268 -1.9417 -1.2307  2.7819
  150DOPC  C31417985   5.484   4.340   5.463 -0.8125 -0.2955  0.6821
  150DOPC  H14X17986   5.380   4.310   5.438 -0.5393 -2.2644  1.6680
  150DOPC  H14Y17987   5.527   4.257   5.523  0.8941 -0.2934 -0.4685
  150DOPC  C31517988   5.486   4.461   5.554  0.4614  0.9847 -0.1503
  150DOPC  H15X17989   5.472   4.552   5.492  1.4824 -0.1156 -2.0877
  150DOPC  H15Y17990   5.584   4.484   5.601  1.4197  1.9482 -2.4756
  150DOPC  C31617991   5.377   4.467   5.664  0.5343  0.3143 -0.3481
  150DOPC  H16X17992   5.376   4.564   5.717 -2.2741  0.2280 -0.1028
  150DOPC  H16Y17993   5.276   4.449   5.621  0.8067 -1.9511 -0.1736
  150DOPC  C31717994   5.386   4.349   5.767  0.3534  0.4189 -0.0599
  150DOPC  H17X17995   5.287   4.338   5.817  0.2010 -0.1730 -0.4853
  150DOPC  H17Y17996   5.411   4.259   5.706 -0.4911  0.3660 -0.3432
  150DOPC  C31817997   5.492   4.377   5.872 -0.7383  0.2474 -0.6371
  150DOPC  H18X17998   5.495   4.483   5.905  0.9692  1.1564 -3.3734
  150DOPC  H18Y17999   5.492   4.296   5.948 -0.9842 -1.2776 -2.1997
  150DOPC  H18Z18000   5.589   4.368   5.819 -1.0480  1.2200 -1.3826
  151DOPC     N18001   0.874   4.976   6.753  0.1011  0.3486  0.4427
  151DOPC   C1218002   0.920   4.882   6.641 -0.0334 -0.0626  0.2820
  151DOPC  H12A18003   1.019   4.848   6.665 -0.4417 -1.4284  0.0909
  151DOPC  H12B18004   0.918   4.933   6.546 -1.6243 -1.1321 -0.3006
  151DOPC   C1318005   0.949   5.109   6.748 -0.4668  0.4029 -0.1462
  151DOPC  H13A18006   0.928   5.173   6.832 -0.1161 -0.0309  0.2803
  151DOPC  H13B18007   1.056   5.094   6.750 -0.0021  3.1537  0.6862
  151DOPC  H13C18008   0.920   5.168   6.662 -1.5693  0.6965  0.4213
  151DOPC   C1418009   0.893   4.902   6.885 -0.0132 -0.2689  0.4025
  151DOPC  H14A18010   0.996   4.871   6.896  0.0804  0.4577  1.7295
  151DOPC  H14B18011   0.875   4.974   6.964 -1.4535 -0.2857  0.1156
  151DOPC  H14C18012   0.825   4.819   6.890 -2.3084  1.6025  2.1686
  151DOPC   C1518013   0.729   5.006   6.737  0.5275  0.1024 -0.2387
  151DOPC  H15A18014   0.675   4.912   6.747  1.1042 -0.6204 -2.9597
  151DOPC  H15B18015   0.708   5.056   6.643  2.3295  1.5113  0.0640
  151DOPC  H15C18016   0.689   5.066   6.817  1.7560  1.2650 -0.4800
  151DOPC   C1118017   0.826   4.765   6.602 -0.2473  0.5712 -0.4634
  151DOPC  H11A18018   0.726   4.811   6.591  0.5516  2.1184 -1.6796
  151DOPC  H11B18019   0.856   4.724   6.503 -1.4206  0.2059 -0.6783
  151DOPC     P18020   0.698   4.599   6.761  0.2752  0.2693 -0.1207
  151DOPC   O1318021   0.644   4.703   6.859  0.1917 -0.0772  0.6156
  151DOPC   O1418022   0.729   4.465   6.812 -0.2135  0.3665  0.1608
  151DOPC   O1218023   0.832   4.659   6.696 -0.5380 -0.3894 -0.2157
  151DOPC   O1118024   0.592   4.587   6.650  0.4008  0.8097  0.0752
  151DOPC    C118025   0.602   4.479   6.563 -0.6964  0.6949 -0.1014
  151DOPC    HA18026   0.555   4.386   6.599  1.1236 -0.3207 -0.2286
  151DOPC    HB18027   0.705   4.463   6.524 -0.1613 -0.4790  1.6442
  151DOPC    C218028   0.506   4.511   6.440 -0.2533  0.1215  0.7710
  151DOPC    HS18029   0.400   4.520   6.471 -0.6865 -1.1330 -0.2711
  151DOPC   O2118030   0.530   4.401   6.352 -0.1751  0.2850 -0.0286
  151DOPC   C2118031   0.444   4.302   6.354 -0.7085 -0.0489  0.2471
  151DOPC   O2218032   0.351   4.295   6.432  0.5639 -0.0140 -0.6219
  151DOPC   C2218033   0.481   4.199   6.249 -0.2232 -0.3016 -0.1282
  151DOPC   H2R18034   0.401   4.122   6.248 -1.3170  0.7996 -0.1000
  151DOPC   H2S18035   0.578   4.148   6.265  1.0131  0.4477 -4.0253
  151DOPC    C318036   0.553   4.646   6.379 -0.3504 -0.1807 -0.7091
  151DOPC    HX18037   0.663   4.649   6.368 -0.3526  0.1213 -0.6548
  151DOPC    HY18038   0.523   4.720   6.456 -1.3624  0.2120 -1.4577
  151DOPC   O3118039   0.478   4.684   6.261  0.0187 -0.2274  0.5553
  151DOPC   C3118040   0.523   4.634   6.146 -0.6282 -0.2306  0.3553
  151DOPC   O3218041   0.627   4.569   6.128 -0.2458  0.2096 -0.5317
  151DOPC   C3218042   0.431   4.679   6.039  0.7872 -0.1308  0.6430
  151DOPC   H2X18043   0.327   4.678   6.080  0.9708 -1.9508  1.1667
  151DOPC   H2Y18044   0.460   4.785   6.021 -0.7927  0.0885 -0.8726
  151DOPC   C2318045   0.499   4.265   6.110 -0.2139 -0.1269  0.0701
  151DOPC   H3R18046   0.586   4.334   6.104 -0.0935 -0.4065 -2.5743
  151DOPC   H3S18047   0.410   4.328   6.086  1.5513  2.8311  0.7946
  151DOPC   C2418048   0.519   4.165   5.996  0.4950  0.2462  0.1019
  151DOPC   H4R18049   0.505   4.219   5.899  0.5034  0.8353  0.4226
  151DOPC   H4S18050   0.443   4.084   6.002  0.2599  0.4980  0.5834
  151DOPC   C2518051   0.654   4.110   5.998 -0.5432 -0.0788 -0.0901
  151DOPC   H5R18052   0.675   4.053   6.091 -1.0964 -0.6304 -0.2973
  151DOPC   H5S18053   0.717   4.201   5.996 -1.1718  0.3515 -0.6384
  151DOPC   C2618054   0.683   4.019   5.875 -0.2203  0.4184 -0.0668
  151DOPC   H6R18055   0.668   4.069   5.777 -2.2785  1.2018  0.5910
  151DOPC   H6S18056   0.619   3.928   5.876  1.2039 -0.7568 -3.3064
  151DOPC   C2718057   0.826   3.966   5.872  0.9655  1.0642  0.9824
  151DOPC   H7R18058   0.846   3.924   5.973  0.5094  0.4814  0.8384
  151DOPC   H7S18059   0.896   4.052   5.873  0.9395  1.1102  0.0554
  151DOPC   C2818060   0.857   3.876   5.754  0.5557 -0.1068  0.0416
  151DOPC   H8R18061   0.813   3.924   5.665  0.2942 -0.3473  0.0409
  151DOPC   H8S18062   0.803   3.781   5.776  2.3578 -1.2319 -0.1407
  151DOPC   C2918063   1.004   3.852   5.743  0.5250  0.0725  0.5465
  151DOPC   H9R18064   1.032   3.764   5.802 -0.0051 -1.0765 -0.8863
  151DOPC  C21018065   1.092   3.927   5.680  0.0671  0.9939  0.1161
  151DOPC  H10R18066   1.199   3.901   5.670 -0.6834 -1.4359 -3.1657
  151DOPC  C21118067   1.053   4.052   5.607  0.0982 -0.7924 -0.1791
  151DOPC  H11R18068   1.124   4.130   5.643 -3.1805  2.4356 -0.0928
  151DOPC  H11S18069   0.955   4.098   5.634  0.3033  0.3095 -1.2488
  151DOPC  C21218070   1.060   4.056   5.452  0.6356  0.2742  0.0121
  151DOPC  H12R18071   1.157   4.019   5.414 -0.4906  0.6677 -3.6451
  151DOPC  H12S18072   1.046   4.163   5.425  2.5347  0.8370  1.0423
  151DOPC  C21318073   0.950   3.977   5.377 -0.0237 -0.1713 -0.3753
  151DOPC  H13R18074   0.923   4.027   5.282 -0.8826  0.8516  0.3821
  151DOPC  H13S18075   0.861   3.983   5.443  0.6327 -1.4419  0.6895
  151DOPC  C21418076   0.998   3.835   5.340  0.1021  0.2476  0.5056
  151DOPC  H14R18077   0.999   3.763   5.425  0.7939 -1.1979 -0.6631
  151DOPC  H14S18078   1.102   3.842   5.301 -0.1642 -0.3090 -0.3154
  151DOPC  C21518079   0.914   3.762   5.231 -0.3659  0.0605 -0.0194
  151DOPC  H15R18080   0.979   3.686   5.184  0.5576  1.5042 -1.1573
  151DOPC  H15S18081   0.887   3.827   5.145 -0.6456  0.1434  0.1310
  151DOPC  C21618082   0.795   3.694   5.285  0.6488 -0.5409  0.1257
  151DOPC  H16R18083   0.713   3.765   5.307  0.4932 -0.6675 -0.0303
  151DOPC  H16S18084   0.816   3.644   5.381  0.1096  1.0770  1.1169
  151DOPC  C21718085   0.747   3.586   5.181 -0.2727  0.2135 -0.6003
  151DOPC  H17R18086   0.669   3.525   5.230  1.0618 -0.3343  0.9035
  151DOPC  H17S18087   0.836   3.528   5.147 -0.7579  0.0773 -1.6807
  151DOPC  C21818088   0.683   3.646   5.056 -0.3826  0.0397 -0.3749
  151DOPC  H18R18089   0.589   3.698   5.083  0.3962  1.1587  0.2450
  151DOPC  H18S18090   0.661   3.566   4.982 -0.7797  0.3809 -0.6293
  151DOPC  H18T18091   0.753   3.717   5.007 -1.6492 -0.2416 -2.7011
  151DOPC   C3318092   0.444   4.606   5.899 -0.1397  0.2607 -0.7615
  151DOPC   H3X18093   0.416   4.499   5.910  0.9212 -0.0549 -1.0285
  151DOPC   H3Y18094   0.550   4.621   5.870 -0.0764  0.8967 -0.2114
  151DOPC   C3418095   0.364   4.661   5.781 -0.7297  0.1979  0.4507
  151DOPC   H4X18096   0.377   4.771   5.781 -0.9491  0.2278 -0.0186
  151DOPC   H4Y18097   0.260   4.629   5.801 -0.3576 -2.1177 -0.9037
  151DOPC   C3518098   0.405   4.591   5.651  0.3744 -0.0288  0.2569
  151DOPC   H5X18099   0.397   4.481   5.665 -0.8621  0.0264  0.1405
  151DOPC   H5Y18100   0.510   4.622   5.631  0.4866  0.8474  2.0201
  151DOPC   C3618101   0.307   4.632   5.539  0.4611 -0.0836 -0.1391
  151DOPC   H6X18102   0.199   4.634   5.565  0.6404 -2.4962  0.9796
  151DOPC   H6Y18103   0.338   4.735   5.509  2.8551 -0.8687 -0.5527
  151DOPC   C3718104   0.311   4.539   5.417 -0.7998  1.5143 -0.0606
  151DOPC   H7X18105   0.416   4.504   5.410 -1.8175 -2.3559  1.3521
  151DOPC   H7Y18106   0.248   4.450   5.439  1.9912 -0.7107 -0.5399
  151DOPC   C3818107   0.269   4.601   5.282 -0.5732 -0.6208  0.1963
  151DOPC   H8X18108   0.329   4.694   5.287 -1.2112 -0.2052  0.1207
  151DOPC   H8Y18109   0.161   4.623   5.289 -0.1860  2.1613 -1.1370
  151DOPC   C3918110   0.313   4.530   5.158  0.3301  0.9055  0.7489
  151DOPC   H9X18111   0.422   4.513   5.161  0.5629  1.0030 -2.9096
  151DOPC  C31018112   0.235   4.491   5.052 -0.3236 -0.4320  0.4867
  151DOPC  H10X18113   0.274   4.429   4.970 -1.9296  0.9012 -1.3617
  151DOPC  C31118114   0.088   4.519   5.029  0.3987 -0.4873  0.2773
  151DOPC  H11X18115   0.037   4.536   5.127  1.4525 -1.1504  0.9664
  151DOPC  H11Y18116   0.047   4.429   4.980 -1.7905 -1.1463  3.0465
  151DOPC  C31218117   0.056   4.624   4.924 -0.4804  0.4629  0.6378
  151DOPC  H12X18118   0.088   4.725   4.956 -0.0751 -0.2094  2.4815
  151DOPC  H12Y18119  -0.054   4.633   4.911 -0.3377  0.2495 -0.9422
  151DOPC  C31318120   0.106   4.596   4.776 -0.4555  0.9021 -0.4035
  151DOPC  H13X18121   0.216   4.602   4.768 -0.5095  2.0127 -0.4346
  151DOPC  H13Y18122   0.074   4.494   4.745 -0.2242  0.7537 -0.1613
  151DOPC  C31418123   0.037   4.697   4.687 -0.6042  0.3066  0.0749
  151DOPC  H14X18124  -0.073   4.709   4.692 -0.9020 -1.2887 -1.5932
  151DOPC  H14Y18125   0.077   4.792   4.728  3.3455 -1.6786  1.3995
  151DOPC  C31518126   0.083   4.674   4.538  0.0654  0.2865 -0.0095
  151DOPC  H15X18127   0.065   4.571   4.501  0.2410 -0.0110  0.7046
  151DOPC  H15Y18128   0.191   4.695   4.522  0.0813  0.3034  0.1194
  151DOPC  C31618129   0.005   4.767   4.437 -0.2529 -0.2761  0.6396
  151DOPC  H16X18130  -0.102   4.738   4.426 -0.5563 -0.3212  3.0925
  151DOPC  H16Y18131   0.017   4.870   4.478 -0.2476 -0.0309  0.0303
  151DOPC  C31718132   0.076   4.761   4.294  0.2170  0.5526  0.2217
  151DOPC  H17X18133   0.043   4.848   4.234  0.0083 -0.6725 -1.5130
  151DOPC  H17Y18134   0.184   4.770   4.316  0.3864 -1.1566  0.1963
  151DOPC  C31818135   0.037   4.642   4.218 -1.2429  0.2423 -0.1019
  151DOPC  H18X18136  -0.072   4.629   4.203 -1.2613 -0.6519  0.6961
  151DOPC  H18Y18137   0.085   4.640   4.118 -1.7484 -0.9891 -0.3413
  151DOPC  H18Z18138   0.072   4.548   4.266  1.7823  0.4523 -1.6174
  152DOPC     N18139   3.099   0.589   7.089  0.3797 -0.4663 -0.1992
  152DOPC   C1218140   3.154   0.617   6.946  0.1740  0.4771  0.3356
  152DOPC  H12A18141   3.194   0.717   6.941 -0.3883  0.6470 -3.7458
  152DOPC  H12B18142   3.065   0.604   6.887  0.5091  1.0803 -0.3077
  152DOPC   C1318143   3.043   0.457   7.094  0.1628 -0.4169  0.0513
  152DOPC  H13A18144   2.955   0.446   7.033  0.6270 -0.1269 -0.6731
  152DOPC  H13B18145   3.115   0.385   7.059 -1.9230 -0.7586 -4.2142
  152DOPC  H13C18146   3.011   0.417   7.190 -1.5113 -2.3472 -1.2376
  152DOPC   C1418147   2.995   0.693   7.124 -0.0555 -0.3973  0.4966
  152DOPC  H14A18148   2.969   0.660   7.224 -0.7334 -0.8061  0.1948
  152DOPC  H14B18149   3.028   0.796   7.126 -2.4483  0.4253  1.3476
  152DOPC  H14C18150   2.909   0.681   7.060  0.4630 -0.7595 -0.1413
  152DOPC   C1518151   3.207   0.602   7.194 -0.5435 -0.1223 -0.1879
  152DOPC  H15A18152   3.288   0.535   7.169 -0.4647  0.3969 -1.4351
  152DOPC  H15B18153   3.177   0.591   7.297  2.2865  2.2123  1.0343
  152DOPC  H15C18154   3.247   0.700   7.174 -1.3203  0.5009  1.2101
  152DOPC   C1118155   3.262   0.533   6.872  0.0701 -0.4848  0.0714
  152DOPC  H11A18156   3.233   0.426   6.880  1.8268 -0.9801  0.4228
  152DOPC  H11B18157   3.258   0.566   6.766 -0.7886  0.5611  0.4095
  152DOPC     P18158   3.468   0.682   6.954  0.2200  0.1931 -0.1224
  152DOPC   O1318159   3.603   0.663   7.005  0.4529 -0.0359 -0.1144
  152DOPC   O1418160   3.380   0.778   7.022 -0.0704 -0.1907  0.2718
  152DOPC   O1218161   3.389   0.541   6.938  0.2982  0.1892 -0.3089
  152DOPC   O1118162   3.482   0.722   6.803 -1.0134  0.4956  0.3806
  152DOPC    C118163   3.467   0.856   6.757  0.6168  0.0988 -0.0744
  152DOPC    HA18164   3.562   0.894   6.714 -0.2704 -1.0081 -3.2207
  152DOPC    HB18165   3.444   0.924   6.842  2.3251  1.1340 -0.3832
  152DOPC    C218166   3.355   0.881   6.649  0.5819 -0.2601 -0.1368
  152DOPC    HS18167   3.255   0.861   6.691 -0.2554  1.5645 -1.1436
  152DOPC   O2118168   3.381   0.796   6.529 -0.3921  0.1942 -0.6491
  152DOPC   C2118169   3.305   0.699   6.508  0.2793  1.1603 -0.3692
  152DOPC   O2218170   3.203   0.669   6.566 -0.2675  0.1335  0.2291
  152DOPC   C2218171   3.358   0.620   6.393 -0.5002 -0.0061 -0.3062
  152DOPC   H2R18172   3.435   0.550   6.432 -0.8656 -0.1811  0.1093
  152DOPC   H2S18173   3.421   0.681   6.325  1.9921 -2.0149  0.0221
  152DOPC    C318174   3.354   1.028   6.606 -0.2616  0.1786  0.4923
  152DOPC    HX18175   3.460   1.061   6.606  0.3900 -1.7752 -0.7478
  152DOPC    HY18176   3.309   1.088   6.688  0.2613 -1.4268  2.0140
  152DOPC   O3118177   3.287   1.055   6.481  0.4545 -0.1010 -0.3212
  152DOPC   C3118178   3.161   1.034   6.473 -0.7214  0.5177 -0.1794
  152DOPC   O3218179   3.083   1.007   6.566 -0.4051 -0.1370  0.2404
  152DOPC   C3218180   3.126   1.031   6.320  0.6526  0.0809  0.4079
  152DOPC   H2X18181   3.023   0.992   6.310  1.2455 -0.9583 -2.8031
  152DOPC   H2Y18182   3.126   1.140   6.299 -0.5183  0.2806  1.3615
  152DOPC   C2318183   3.252   0.534   6.314  0.0456  0.4768 -0.1539
  152DOPC   H3R18184   3.168   0.601   6.285  0.0816  1.3755  1.6619
  152DOPC   H3S18185   3.202   0.468   6.387 -0.2902  1.5626  0.6276
  152DOPC   C2418186   3.322   0.449   6.197 -0.1421  0.4365 -0.1169
  152DOPC   H4R18187   3.391   0.368   6.228 -2.4790 -1.9345 -0.6966
  152DOPC   H4S18188   3.381   0.521   6.136  0.7968  1.6369  2.0737
  152DOPC   C2518189   3.215   0.390   6.096 -0.7589 -0.1429  0.4492
  152DOPC   H5R18190   3.145   0.343   6.168  0.8035 -0.4005  1.8731
  152DOPC   H5S18191   3.268   0.310   6.041 -1.2384  0.3445 -0.7711
  152DOPC   C2618192   3.150   0.485   5.996  0.2231 -0.0262 -0.3982
  152DOPC   H6R18193   3.139   0.590   6.032 -2.9343 -0.5801  0.5434
  152DOPC   H6S18194   3.043   0.460   5.977  0.0177  0.7190 -0.2784
  152DOPC   C2718195   3.235   0.493   5.869  0.0287 -0.2592  0.4239
  152DOPC   H7R18196   3.237   0.398   5.813  1.0738 -0.8150  1.3643
  152DOPC   H7S18197   3.338   0.518   5.902  0.3615 -0.2358 -0.6128
  152DOPC   C2818198   3.181   0.603   5.776  0.6494 -0.2320 -0.2846
  152DOPC   H8R18199   3.247   0.628   5.690 -0.1828 -0.0340 -0.8756
  152DOPC   H8S18200   3.168   0.694   5.839  0.1006  0.1538 -0.9513
  152DOPC   C2918201   3.048   0.566   5.716 -0.0151 -0.4617 -0.3657
  152DOPC   H9R18202   2.997   0.481   5.765  1.5361 -0.6843  0.9439
  152DOPC  C21018203   2.991   0.615   5.602  0.0068 -0.2354  0.0021
  152DOPC  H10R18204   2.890   0.575   5.584  0.1995 -0.5464 -0.3931
  152DOPC  C21118205   3.034   0.738   5.530 -0.5284 -0.1899  0.0490
  152DOPC  H11R18206   3.122   0.794   5.568 -0.9208  1.6991 -1.6675
  152DOPC  H11S18207   2.947   0.807   5.535 -2.9152 -2.7017 -2.5474
  152DOPC  C21218208   3.056   0.728   5.377 -0.4836  0.5788 -1.1651
  152DOPC  H12R18209   3.132   0.651   5.356 -2.7435 -1.6735 -1.5782
  152DOPC  H12S18210   3.092   0.823   5.331 -2.1951  2.5953  1.3565
  152DOPC  C21318211   2.928   0.700   5.307 -0.5170 -0.3114  0.1494
  152DOPC  H13R18212   2.856   0.779   5.337  2.2598  2.7503 -0.5339
  152DOPC  H13S18213   2.897   0.596   5.329 -1.0873  0.0013  0.8768
  152DOPC  C21418214   2.949   0.706   5.156 -0.3700  0.1152  0.7701
  152DOPC  H14R18215   3.019   0.621   5.140 -3.0984 -1.9192 -1.1194
  152DOPC  H14S18216   3.001   0.795   5.113 -1.3731 -0.1507 -1.0896
  152DOPC  C21518217   2.816   0.696   5.074 -0.1931 -0.1524 -0.1137
  152DOPC  H15R18218   2.735   0.727   5.142  0.1145  0.2166  0.0841
  152DOPC  H15S18219   2.785   0.593   5.044 -1.9666  0.3846 -0.2057
  152DOPC  C21618220   2.809   0.782   4.943  0.2232 -0.1949  0.0233
  152DOPC  H16R18221   2.711   0.765   4.893  0.6235  0.0629 -0.8658
  152DOPC  H16S18222   2.881   0.751   4.865 -1.1395  1.0130 -1.7834
  152DOPC  C21718223   2.827   0.931   4.972  0.3185 -0.3528 -0.3863
  152DOPC  H17R18224   2.917   0.945   5.036  1.3106 -0.2139 -1.7606
  152DOPC  H17S18225   2.734   0.964   5.021 -0.3966 -3.2679  0.4386
  152DOPC  C21818226   2.840   1.024   4.854 -0.4040 -0.2175  0.6390
  152DOPC  H18R18227   2.852   0.977   4.754  1.2285 -0.3510  0.8734
  152DOPC  H18S18228   2.917   1.102   4.873 -0.4598 -0.0559  0.2131
  152DOPC  H18T18229   2.751   1.087   4.832  0.0011 -0.6103 -2.6052
  152DOPC   C3318230   3.225   0.955   6.229 -0.1618 -0.2180 -0.4734
  152DOPC   H3X18231   3.245   0.853   6.268  3.4008  0.0912 -1.1576
  152DOPC   H3Y18232   3.321   1.010   6.239 -0.2319 -0.2382  0.3619
  152DOPC   C3418233   3.180   0.944   6.086  0.4619 -0.4304  0.2142
  152DOPC   H4X18234   3.091   0.878   6.088 -0.7371  1.1514  1.3758
  152DOPC   H4Y18235   3.251   0.886   6.022  0.0951  1.6921 -2.2931
  152DOPC   C3518236   3.140   1.080   6.022  0.3574 -0.0600 -1.2344
  152DOPC   H5X18237   3.218   1.158   6.025  0.6699 -0.4030  0.4501
  152DOPC   H5Y18238   3.055   1.120   6.081  0.8538  1.3953 -1.4791
  152DOPC   C3618239   3.096   1.063   5.878  0.0222 -0.0661 -0.3662
  152DOPC   H6X18240   3.168   1.009   5.813 -1.5003  1.4047 -3.5089
  152DOPC   H6Y18241   3.016   0.987   5.891  1.3226 -1.2580  1.1159
  152DOPC   C3718242   3.050   1.194   5.816  0.3461 -0.2661  0.4684
  152DOPC   H7X18243   2.961   1.228   5.873  0.4571  0.3644  0.2679
  152DOPC   H7Y18244   3.134   1.267   5.818  0.7361 -0.6154 -1.4380
  152DOPC   C3818245   3.005   1.166   5.668  0.2394 -0.1719  0.0516
  152DOPC   H8X18246   2.904   1.121   5.666  1.4567 -3.1374 -0.1244
  152DOPC   H8Y18247   3.073   1.101   5.609 -1.0216 -0.0974 -1.5258
  152DOPC   C3918248   3.024   1.289   5.584 -0.2286 -0.7482 -0.2940
  152DOPC   H9X18249   3.124   1.336   5.588  0.0746 -1.3173 -0.8559
  152DOPC  C31018250   2.935   1.327   5.490  0.0097  0.0593  0.3244
  152DOPC  H10X18251   2.944   1.423   5.437 -1.4381  1.0113  1.7161
  152DOPC  C31118252   2.798   1.270   5.459  0.0662 -0.4229 -0.2985
  152DOPC  H11X18253   2.723   1.352   5.459 -0.8213 -1.2222 -0.4437
  152DOPC  H11Y18254   2.757   1.202   5.536 -0.2075 -0.6963 -0.6815
  152DOPC  C31218255   2.789   1.210   5.324 -0.3595  0.2240 -0.0877
  152DOPC  H12X18256   2.698   1.148   5.313 -0.1395 -0.0385 -0.4700
  152DOPC  H12Y18257   2.876   1.140   5.324 -1.3189 -0.9947  0.0155
  152DOPC  C31318258   2.791   1.323   5.220 -0.1424  0.2576  0.0725
  152DOPC  H13X18259   2.860   1.405   5.248 -0.6169  0.8625 -0.4852
  152DOPC  H13Y18260   2.822   1.275   5.125 -1.6558  1.4382 -1.0726
  152DOPC  C31418261   2.661   1.386   5.169  0.4787  0.0736  0.1436
  152DOPC  H14X18262   2.597   1.298   5.147 -0.4574  0.8398 -0.2753
  152DOPC  H14Y18263   2.609   1.443   5.250  1.1498  2.9353 -1.2801
  152DOPC  C31518264   2.687   1.456   5.030  0.0300 -0.6206 -0.1839
  152DOPC  H15X18265   2.727   1.377   4.963 -1.3935 -0.1083 -1.6822
  152DOPC  H15Y18266   2.763   1.536   5.046 -1.0759  0.4840 -0.2860
  152DOPC  C31618267   2.563   1.519   4.982  1.3670  0.1564  1.0441
  152DOPC  H16X18268   2.474   1.453   4.990 -0.3823  2.2865  0.1641
  152DOPC  H16Y18269   2.532   1.599   5.053 -1.3660  0.1603 -0.0431
  152DOPC  C31718270   2.572   1.564   4.834 -0.0823 -0.4601  0.3454
  152DOPC  H17X18271   2.652   1.641   4.839 -0.5408 -0.0278  1.3448
  152DOPC  H17Y18272   2.599   1.481   4.765  0.3837  1.7466 -2.2859
  152DOPC  C31818273   2.443   1.628   4.782  0.3400 -0.0519  0.4517
  152DOPC  H18X18274   2.379   1.538   4.772  0.9580 -0.3591 -0.8573
  152DOPC  H18Y18275   2.412   1.706   4.855 -1.0920  0.1792 -0.3821
  152DOPC  H18Z18276   2.472   1.667   4.682  1.5860 -0.7388  0.5298
  153DOPC     N18277   4.805   6.571   7.124  0.6244 -0.0746 -0.3456
  153DOPC   C1218278   4.803   6.446   7.045 -0.1311  0.1961 -0.3567
  153DOPC  H12A18279   4.737   6.374   7.092  0.9080 -0.1187  0.6673
  153DOPC  H12B18280   4.899   6.397   7.051  0.2962  1.0244 -0.3582
  153DOPC   C1318281   4.678   6.647   7.111  0.9581 -0.1101  0.3627
  153DOPC  H13A18282   4.588   6.589   7.126 -1.1121  2.1201 -2.2520
  153DOPC  H13B18283   4.671   6.730   7.180  0.6928  0.9509 -0.8852
  153DOPC  H13C18284   4.662   6.680   7.009  2.1847 -0.6591 -0.0119
  153DOPC   C1418285   4.923   6.657   7.088 -0.0335  0.2103  0.5116
  153DOPC  H14A18286   4.930   6.747   7.147  1.6831  0.6826 -0.3314
  153DOPC  H14B18287   5.018   6.608   7.104  0.5587  0.1368 -2.5943
  153DOPC  H14C18288   4.906   6.705   6.992  1.4946  1.2828  0.7374
  153DOPC   C1518289   4.824   6.529   7.266 -0.7524  0.1886 -0.1378
  153DOPC  H15A18290   4.908   6.460   7.271 -0.9336 -0.2071 -1.7645
  153DOPC  H15B18291   4.741   6.471   7.304  0.2515 -0.3982  1.2301
  153DOPC  H15C18292   4.852   6.610   7.331  1.9448 -1.1130  0.4720
  153DOPC   C1118293   4.768   6.463   6.896  0.0020  0.3388  0.8020
  153DOPC  H11A18294   4.810   6.563   6.876  0.3870  0.0032 -0.1155
  153DOPC  H11B18295   4.827   6.392   6.834  1.4319 -0.1827  2.6655
  153DOPC     P18296   4.538   6.337   6.905  0.4678  0.3973 -0.1311
  153DOPC   O1318297   4.400   6.386   6.923 -0.1369 -0.0953 -0.0092
  153DOPC   O1418298   4.591   6.263   7.022  0.3042 -0.0103 -0.1068
  153DOPC   O1218299   4.623   6.460   6.871 -0.8140  0.2037 -0.4915
  153DOPC   O1118300   4.537   6.247   6.771  0.2792 -0.2179  0.0371
  153DOPC    C118301   4.649   6.209   6.698  0.3615  0.0175 -1.0006
  153DOPC    HA18302   4.718   6.152   6.764  2.5105  0.6103 -2.6328
  153DOPC    HB18303   4.703   6.298   6.659  0.0132  0.6956  0.0172
  153DOPC    C218304   4.608   6.122   6.572  0.2167 -0.1859  0.4662
  153DOPC    HS18305   4.515   6.078   6.614 -0.4115 -2.2246 -2.7107
  153DOPC   O2118306   4.714   6.027   6.546 -0.5481 -0.0555 -0.5412
  153DOPC   C2118307   4.671   5.903   6.510  0.2263  0.1657 -0.6480
  153DOPC   O2218308   4.549   5.879   6.503 -0.3841  0.2605 -0.0240
  153DOPC   C2218309   4.795   5.815   6.480  0.2656 -0.4641  0.3830
  153DOPC   H2R18310   4.831   5.781   6.579 -2.0241  2.6500  2.4480
  153DOPC   H2S18311   4.873   5.885   6.442  1.2284 -1.2313  0.8785
  153DOPC    C318312   4.588   6.217   6.450  0.5214  0.8950 -0.1461
  153DOPC    HX18313   4.685   6.269   6.433 -0.0845  1.4345 -2.2202
  153DOPC    HY18314   4.508   6.291   6.473 -1.4303 -1.9487  3.4042
  153DOPC   O3118315   4.553   6.146   6.332 -0.4238  0.3672 -0.4022
  153DOPC   C3118316   4.423   6.108   6.334  0.5646  0.1154 -0.3033
  153DOPC   O3218317   4.348   6.116   6.429  0.3924  0.2328  0.7492
  153DOPC   C3218318   4.393   6.061   6.193  0.1395 -0.3546 -0.6419
  153DOPC   H2X18319   4.398   6.155   6.134  2.1356 -0.5027 -0.7833
  153DOPC   H2Y18320   4.469   5.991   6.152 -0.5767  0.4145 -3.4590
  153DOPC   C2318321   4.778   5.690   6.390  0.2385  0.3509 -0.6395
  153DOPC   H3R18322   4.733   5.726   6.295  1.0100 -1.7815 -1.9029
  153DOPC   H3S18323   4.706   5.628   6.448  2.0768 -1.5336 -0.2489
  153DOPC   C2418324   4.914   5.622   6.378 -1.0143 -0.3869  0.1370
  153DOPC   H4R18325   4.920   5.512   6.366  2.6681 -0.5124  1.5481
  153DOPC   H4S18326   4.962   5.634   6.478 -2.2194 -2.3028  0.9834
  153DOPC   C2518327   5.011   5.680   6.268 -0.6078  0.5105  0.2756
  153DOPC   H5R18328   5.059   5.772   6.306 -0.2931  0.6219 -0.3738
  153DOPC   H5S18329   4.947   5.702   6.180  1.5688 -0.7741 -1.7588
  153DOPC   C2618330   5.129   5.584   6.232  0.1777  0.3496  0.3352
  153DOPC   H6R18331   5.160   5.536   6.327 -0.2129  0.7439  0.6649
  153DOPC   H6S18332   5.214   5.647   6.198 -0.6916  1.4293  0.1142
  153DOPC   C2718333   5.099   5.476   6.128 -0.4453  0.1864  0.2541
  153DOPC   H7R18334   5.025   5.411   6.179  0.7353 -1.0295  0.4573
  153DOPC   H7S18335   5.188   5.409   6.126  1.7959  2.7788  3.3666
  153DOPC   C2818336   5.053   5.525   5.992 -0.5650  0.0791  0.3491
  153DOPC   H8R18337   5.128   5.596   5.950  0.9305 -0.4997  1.9038
  153DOPC   H8S18338   4.956   5.574   6.012 -1.5159 -0.8865 -1.6269
  153DOPC   C2918339   5.013   5.408   5.917 -0.2557  0.1830  0.1562
  153DOPC   H9R18340   4.926   5.357   5.960 -0.0194 -2.6873 -2.4204
  153DOPC  C21018341   5.075   5.341   5.820 -0.4434  0.9249  0.7068
  153DOPC  H10R18342   5.023   5.256   5.773  0.8204  2.0452 -3.0851
  153DOPC  C21118343   5.200   5.384   5.745  0.0111  0.6240 -0.2611
  153DOPC  H11R18344   5.271   5.299   5.734  1.5884  1.5194  2.1958
  153DOPC  H11S18345   5.260   5.458   5.802 -1.2540 -0.1795  2.3138
  153DOPC  C21218346   5.159   5.437   5.605 -0.0941 -0.1326 -0.5517
  153DOPC  H12R18347   5.098   5.530   5.616  0.6287  0.6610 -2.7055
  153DOPC  H12S18348   5.090   5.365   5.556  0.6398 -0.6166 -0.8959
  153DOPC  C21318349   5.272   5.473   5.503 -0.3521  0.4099  0.9807
  153DOPC  H13R18350   5.329   5.562   5.537  0.4346  0.5864 -0.7103
  153DOPC  H13S18351   5.221   5.512   5.412 -1.5118 -0.0999  1.3938
  153DOPC  C21418352   5.354   5.353   5.478 -0.3754 -0.4151 -0.4888
  153DOPC  H14R18353   5.300   5.278   5.416 -2.6110  0.1416  0.6919
  153DOPC  H14S18354   5.384   5.304   5.573  0.9893  0.7999 -0.2582
  153DOPC  C21518355   5.486   5.386   5.405  0.2844 -0.2300  0.1220
  153DOPC  H15R18356   5.562   5.438   5.467  0.1154  0.9905 -0.6808
  153DOPC  H15S18357   5.465   5.450   5.317  1.7472 -0.6756 -0.5771
  153DOPC  C21618358   5.560   5.263   5.340  0.2302 -0.3231  0.5261
  153DOPC  H16R18359   5.509   5.225   5.249  4.1605  0.0415 -2.0549
  153DOPC  H16S18360   5.550   5.186   5.420 -0.3272 -1.4325 -0.5843
  153DOPC  C21718361   5.703   5.302   5.312 -0.1420 -0.5662  0.1423
  153DOPC  H17R18362   5.774   5.219   5.332 -0.9082 -1.3843 -0.4939
  153DOPC  H17S18363   5.735   5.387   5.376  0.3446 -0.2921 -0.4616
  153DOPC  C21818364   5.719   5.350   5.162  0.2881 -0.1799  0.5480
  153DOPC  H18R18365   5.649   5.433   5.140 -2.5520 -2.3633  0.7175
  153DOPC  H18S18366   5.699   5.272   5.085 -2.2323  0.3708  0.5813
  153DOPC  H18T18367   5.827   5.378   5.164  0.2087  0.3232  4.0892
  153DOPC   C3318368   4.254   6.001   6.181  0.4400  0.2604  0.7825
  153DOPC   H3X18369   4.179   6.046   6.249 -0.0932 -0.5560  0.7476
  153DOPC   H3Y18370   4.259   5.896   6.217 -0.4791 -0.6859 -1.6709
  153DOPC   C3418371   4.199   6.006   6.033 -0.0430  0.4275 -0.2203
  153DOPC   H4X18372   4.146   6.099   6.005  1.0624  1.0750 -0.2355
  153DOPC   H4Y18373   4.114   5.934   6.033 -0.8156  1.3353 -0.6933
  153DOPC   C3518374   4.292   5.978   5.917  0.0568  0.3702 -0.4424
  153DOPC   H5X18375   4.345   5.881   5.915  2.0854  1.4059  0.1608
  153DOPC   H5Y18376   4.364   6.063   5.921  0.9616 -0.4159  0.6282
  153DOPC   C3618377   4.226   5.979   5.782 -0.1593 -0.4481  0.8569
  153DOPC   H6X18378   4.143   5.905   5.776 -0.6874  0.2381 -1.1710
  153DOPC   H6Y18379   4.175   6.076   5.765  0.0467 -0.5754 -0.6699
  153DOPC   C3718380   4.314   5.952   5.656 -0.8142 -0.0995  0.0087
  153DOPC   H7X18381   4.374   5.859   5.671  0.1763  0.4632 -0.3441
  153DOPC   H7Y18382   4.243   5.943   5.571  0.3580  0.2450 -1.0491
  153DOPC   C3818383   4.400   6.081   5.634 -0.2677  0.2622  0.4272
  153DOPC   H8X18384   4.481   6.095   5.709 -2.1296 -0.3112  2.6691
  153DOPC   H8Y18385   4.323   6.160   5.644 -1.2717 -0.2893 -2.1345
  153DOPC   C3918386   4.466   6.083   5.497  0.5719  0.6538 -0.7599
  153DOPC   H9X18387   4.570   6.050   5.513 -0.9051 -3.7036  1.4494
  153DOPC  C31018388   4.423   6.148   5.389 -0.2558 -0.0072  0.0517
  153DOPC  H10X18389   4.483   6.141   5.298  0.1221  0.2089  0.2796
  153DOPC  C31118390   4.299   6.235   5.379 -0.1644 -0.3911  0.3762
  153DOPC  H11X18391   4.321   6.335   5.422 -0.8775 -0.2876  0.5174
  153DOPC  H11Y18392   4.220   6.203   5.450 -0.3601  2.1443  1.4164
  153DOPC  C31218393   4.241   6.280   5.241 -0.3559  0.8570  0.2885
  153DOPC  H12X18394   4.135   6.309   5.253 -0.3476  0.2494  2.1824
  153DOPC  H12Y18395   4.233   6.188   5.181 -2.6601  0.2414  1.4354
  153DOPC  C31318396   4.327   6.386   5.175  0.0110 -0.5683  0.5357
  153DOPC  H13X18397   4.320   6.477   5.237 -2.2773 -0.7175  0.5838
  153DOPC  H13Y18398   4.434   6.357   5.173  0.0090 -0.5665  0.4234
  153DOPC  C31418399   4.282   6.428   5.036  0.0751 -0.1018 -0.0750
  153DOPC  H14X18400   4.326   6.348   4.972 -1.2705 -0.6483 -0.3388
  153DOPC  H14Y18401   4.172   6.421   5.022 -0.3483  1.9653  1.7802
  153DOPC  C31518402   4.323   6.575   5.008 -0.2047 -0.2674  0.1276
  153DOPC  H15X18403   4.426   6.608   5.036 -1.4320  3.2993  0.9261
  153DOPC  H15Y18404   4.252   6.642   5.060 -2.0959  0.6479 -3.3433
  153DOPC  C31618405   4.312   6.613   4.857 -0.2727 -0.5859  0.0389
  153DOPC  H16X18406   4.371   6.703   4.829 -1.7753 -0.0449 -1.6274
  153DOPC  H16Y18407   4.363   6.532   4.801  1.7015  0.0078  0.9101
  153DOPC  C31718408   4.170   6.622   4.809 -0.0560 -0.0476  0.5262
  153DOPC  H17X18409   4.123   6.524   4.834  1.1312 -0.8021 -0.1284
  153DOPC  H17Y18410   4.105   6.693   4.865  2.3861  2.7179  0.1032
  153DOPC  C31818411   4.149   6.634   4.664  0.8920  0.3887  0.0607
  153DOPC  H18X18412   4.168   6.739   4.632 -0.9896  0.7490  0.0090
  153DOPC  H18Y18413   4.210   6.566   4.601 -0.2337 -1.0286  0.4242
  153DOPC  H18Z18414   4.044   6.618   4.630  1.4819  0.0421 -1.6747
  154DOPC     N18415   5.836   3.230   6.981 -0.2254 -0.0071 -0.2500
  154DOPC   C1218416   5.718   3.252   7.069 -0.3779  0.6149 -0.2677
  154DOPC  H12A18417   5.710   3.359   7.085 -0.0631  0.5404  0.4652
  154DOPC  H12B18418   5.733   3.209   7.167 -0.6412  2.0677  0.4446
  154DOPC   C1318419   5.815   3.268   6.836  0.2633  0.2260 -0.5593
  154DOPC  H13A18420   5.744   3.197   6.797  0.4330 -1.3462  1.8207
  154DOPC  H13B18421   5.775   3.368   6.823 -1.8896 -0.0592  2.7999
  154DOPC  H13C18422   5.908   3.252   6.783  1.3611  2.4995  0.5518
  154DOPC   C1418423   5.877   3.083   6.980  0.1029 -0.6428  0.1207
  154DOPC  H14A18424   5.957   3.061   6.910 -0.8686  0.8376 -1.5218
  154DOPC  H14B18425   5.900   3.049   7.080 -1.5519 -0.8040  0.4701
  154DOPC  H14C18426   5.797   3.019   6.945  0.8701 -1.6569  0.1525
  154DOPC   C1518427   5.962   3.308   7.029 -0.2096 -0.5766 -0.3824
  154DOPC  H15A18428   5.964   3.323   7.136 -0.1935  2.4156 -0.7134
  154DOPC  H15B18429   5.954   3.414   7.011 -1.5007 -0.4226  0.8745
  154DOPC  H15C18430   6.062   3.283   6.996  0.9186  1.2729  1.4602
  154DOPC   C1118431   5.580   3.193   7.026 -0.1708  0.4143  0.4219
  154DOPC  H11A18432   5.505   3.223   7.102 -3.7223  0.7231 -2.9516
  154DOPC  H11B18433   5.539   3.239   6.934  0.9067  0.0817 -0.2475
  154DOPC     P18434   5.522   2.962   6.904  0.1621  0.3169  0.5647
  154DOPC   O1318435   5.374   2.959   6.910  0.2952  0.0993 -0.1187
  154DOPC   O1418436   5.586   2.823   6.900 -0.0391  0.0353  0.2756
  154DOPC   O1218437   5.580   3.051   7.025 -0.1330 -0.3564 -0.2466
  154DOPC   O1118438   5.562   3.045   6.773 -0.0487 -0.4220 -0.3259
  154DOPC    C118439   5.459   3.061   6.665  0.0285 -0.5573  0.1099
  154DOPC    HA18440   5.501   3.130   6.588  0.1454  1.3061  1.7431
  154DOPC    HB18441   5.367   3.107   6.708  0.8756  1.2926  0.0338
  154DOPC    C218442   5.411   2.930   6.590 -0.0790 -0.0266  0.6474
  154DOPC    HS18443   5.346   2.885   6.667 -3.4975  3.5326  0.1388
  154DOPC   O2118444   5.530   2.853   6.563  0.4436 -0.3631 -0.1176
  154DOPC   C2118445   5.501   2.719   6.563  0.6372  0.3113  0.0584
  154DOPC   O2218446   5.408   2.666   6.624 -0.3930  0.0013 -0.0512
  154DOPC   C2218447   5.602   2.644   6.466 -0.6217 -0.5285 -0.0927
  154DOPC   H2R18448   5.603   2.537   6.496 -2.1292 -0.2594  1.0227
  154DOPC   H2S18449   5.705   2.683   6.486 -0.8519  0.7079 -1.2073
  154DOPC    C318450   5.335   2.959   6.456 -0.5544  0.4026 -0.3653
  154DOPC    HX18451   5.407   3.010   6.388 -1.0178  2.2363  0.4593
  154DOPC    HY18452   5.263   3.043   6.465 -0.6203  0.5671 -2.0662
  154DOPC   O3118453   5.296   2.835   6.390 -0.5006  0.2015  0.3281
  154DOPC   C3118454   5.168   2.798   6.396  0.2509 -0.3844 -0.0897
  154DOPC   O3218455   5.085   2.860   6.452 -0.3106 -0.9150 -0.4536
  154DOPC   C3218456   5.151   2.655   6.334  0.6811  0.2476 -0.8596
  154DOPC   H2X18457   5.243   2.594   6.343  0.7724  0.5120  0.2115
  154DOPC   H2Y18458   5.069   2.602   6.387 -0.6562  0.0841 -2.9779
  154DOPC   C2318459   5.560   2.656   6.319 -0.5999 -0.0568 -0.6115
  154DOPC   H3R18460   5.528   2.760   6.295  0.0927 -0.3104 -2.9050
  154DOPC   H3S18461   5.466   2.598   6.309 -2.3132  2.4751 -0.3368
  154DOPC   C2418462   5.668   2.601   6.223  0.2649 -0.0537 -0.0563
  154DOPC   H4R18463   5.680   2.491   6.238  0.4359  0.1168  1.1737
  154DOPC   H4S18464   5.766   2.651   6.238  0.5621 -0.2867 -1.1622
  154DOPC   C2518465   5.617   2.617   6.078 -1.3817  0.0915 -0.0099
  154DOPC   H5R18466   5.622   2.727   6.065  0.9812  0.2219  1.2894
  154DOPC   H5S18467   5.514   2.575   6.074 -0.8244 -1.9946  3.2023
  154DOPC   C2618468   5.706   2.552   5.974  0.1834  0.6431 -0.2759
  154DOPC   H6R18469   5.692   2.442   5.977 -0.5341  0.6675 -1.9900
  154DOPC   H6S18470   5.813   2.573   5.999 -0.1756  4.3077 -1.2364
  154DOPC   C2718471   5.693   2.612   5.835 -0.3342  0.4797 -1.5872
  154DOPC   H7R18472   5.713   2.720   5.848 -1.1597  0.4739  0.0971
  154DOPC   H7S18473   5.590   2.588   5.800  0.4608  0.5636 -4.2395
  154DOPC   C2818474   5.786   2.550   5.734  0.3522 -0.3746 -0.7591
  154DOPC   H8R18475   5.764   2.442   5.719 -1.2759 -0.3593  1.0571
  154DOPC   H8S18476   5.890   2.550   5.772 -0.3305 -0.4410  1.2235
  154DOPC   C2918477   5.769   2.615   5.594  0.3920  0.3975 -0.6116
  154DOPC   H9R18478   5.683   2.683   5.581 -0.5101 -0.5552  0.1824
  154DOPC  C21018479   5.857   2.604   5.495  0.4175  1.0222  0.3580
  154DOPC  H10R18480   5.834   2.658   5.402  0.7032 -1.0038 -0.9609
  154DOPC  C21118481   5.985   2.534   5.495  0.0965  0.1874 -0.0600
  154DOPC  H11R18482   5.980   2.470   5.404  1.9349  0.9037 -0.7339
  154DOPC  H11S18483   6.008   2.469   5.581  1.2975  0.4933 -0.1282
  154DOPC  C21218484   6.098   2.634   5.482 -0.4086 -0.0356 -0.2536
  154DOPC  H12R18485   6.108   2.690   5.577  0.1602 -1.6478  0.6609
  154DOPC  H12S18486   6.089   2.693   5.388  1.4138  0.9070  0.1061
  154DOPC  C21318487   6.235   2.566   5.460  0.4276  0.1889  0.3296
  154DOPC  H13R18488   6.307   2.644   5.427  1.3681 -1.3526 -1.4546
  154DOPC  H13S18489   6.222   2.497   5.374 -4.5099  1.0784  0.0650
  154DOPC  C21418490   6.284   2.480   5.581 -0.1190 -0.2214 -0.4416
  154DOPC  H14R18491   6.337   2.387   5.550 -2.7259 -1.6167 -1.0534
  154DOPC  H14S18492   6.189   2.448   5.629 -0.9480  0.0066 -1.8592
  154DOPC  C21518493   6.371   2.574   5.669 -0.8989 -0.4248  0.4806
  154DOPC  H15R18494   6.370   2.544   5.776 -1.2373 -0.4388  0.4753
  154DOPC  H15S18495   6.332   2.678   5.667  1.0093  0.3199  0.0346
  154DOPC  C21618496   6.519   2.567   5.638  0.1070 -0.5734  0.3174
  154DOPC  H16R18497   6.559   2.465   5.656  1.3464 -0.3428 -0.9145
  154DOPC  H16S18498   6.571   2.650   5.692 -0.0035  0.3409 -0.9363
  154DOPC  C21718499   6.566   2.594   5.491 -0.4027  0.1419 -0.0772
  154DOPC  H17R18500   6.540   2.697   5.460 -0.3216  0.1623 -0.0791
  154DOPC  H17S18501   6.516   2.527   5.419 -0.5849  2.7286 -2.5065
  154DOPC  C21818502   6.718   2.573   5.484 -0.2828 -0.5816  0.3777
  154DOPC  H18R18503   6.772   2.634   5.558  0.0414  0.5553 -0.7495
  154DOPC  H18S18504   6.754   2.625   5.392 -0.6966  1.3774  1.2748
  154DOPC  H18T18505   6.743   2.465   5.482  0.7791 -0.3334 -0.3072
  154DOPC   C3318506   5.110   2.667   6.186  0.3884 -0.1889  0.1818
  154DOPC   H3X18507   5.034   2.748   6.182  0.0438 -0.4904  0.4643
  154DOPC   H3Y18508   5.062   2.574   6.149 -1.1009  0.2976  0.8220
  154DOPC   C3418509   5.235   2.691   6.097  0.2997 -0.0009 -0.4375
  154DOPC   H4X18510   5.277   2.595   6.059  1.2941  0.6972 -1.1489
  154DOPC   H4Y18511   5.324   2.734   6.147 -0.9419  0.3695  1.5959
  154DOPC   C3518512   5.199   2.770   5.967 -0.1159  0.0898  0.8175
  154DOPC   H5X18513   5.189   2.877   5.997  1.1133  0.7151 -0.8322
  154DOPC   H5Y18514   5.107   2.736   5.915  0.5814  0.8312 -0.9860
  154DOPC   C3618515   5.313   2.749   5.863  0.5313 -0.5936  0.0954
  154DOPC   H6X18516   5.404   2.785   5.914  0.0189  1.8435 -0.5549
  154DOPC   H6Y18517   5.316   2.640   5.841 -0.1770 -0.2096 -2.2771
  154DOPC   C3718518   5.296   2.829   5.738  0.4146 -0.2808  0.7596
  154DOPC   H7X18519   5.202   2.796   5.690  1.0235 -0.0427 -0.6512
  154DOPC   H7Y18520   5.291   2.935   5.773  2.0057  0.8791 -2.1906
  154DOPC   C3818521   5.416   2.812   5.653 -0.2722 -0.3031 -0.0089
  154DOPC   H8X18522   5.437   2.704   5.639  2.8003  0.0388  1.0867
  154DOPC   H8Y18523   5.509   2.838   5.709 -0.2180 -0.1078 -0.1860
  154DOPC   C3918524   5.399   2.894   5.531 -0.1395 -0.8690 -0.1608
  154DOPC   H9X18525   5.313   2.867   5.469 -0.8799 -1.9050  1.2482
  154DOPC  C31018526   5.475   2.994   5.480  0.1951  0.2630 -0.1857
  154DOPC  H10X18527   5.427   3.052   5.399 -0.1061 -0.8192 -0.7978
  154DOPC  C31118528   5.601   3.049   5.541 -0.7517  0.4050  0.1466
  154DOPC  H11X18529   5.671   3.065   5.456 -3.5649 -2.3411 -2.9628
  154DOPC  H11Y18530   5.644   2.981   5.617 -1.7075  1.0144  1.2492
  154DOPC  C31218531   5.581   3.178   5.618  0.0900 -0.5585  0.7668
  154DOPC  H12X18532   5.503   3.244   5.573 -0.0090  0.7474  2.7290
  154DOPC  H12Y18533   5.672   3.243   5.616 -0.1020 -0.2963  0.5146
  154DOPC  C31318534   5.544   3.163   5.765 -0.3163 -0.0217 -0.0876
  154DOPC  H13X18535   5.550   3.262   5.816  2.3175 -0.7451  1.1685
  154DOPC  H13Y18536   5.436   3.138   5.767 -1.0894  2.8919 -0.3337
  154DOPC  C31418537   5.637   3.075   5.842 -0.2080  0.2114  0.5245
  154DOPC  H14X18538   5.636   2.972   5.802  2.2182  0.9910 -1.8985
  154DOPC  H14Y18539   5.741   3.115   5.839 -0.0408 -0.2696 -0.7175
  154DOPC  C31518540   5.607   3.055   5.991 -0.4674 -0.2624 -1.0567
  154DOPC  H15X18541   5.685   2.983   6.023  1.4645  1.0560 -2.6129
  154DOPC  H15Y18542   5.502   3.016   5.992 -0.1083 -1.3267 -2.4860
  154DOPC  C31618543   5.609   3.182   6.080 -0.4193 -0.1654 -0.1452
  154DOPC  H16X18544   5.555   3.262   6.025 -0.2634 -1.9437 -3.1061
  154DOPC  H16Y18545   5.571   3.163   6.183  1.7688 -1.1377  0.5337
  154DOPC  C31718546   5.759   3.236   6.108  0.2142  0.6037  0.1828
  154DOPC  H17X18547   5.807   3.258   6.010 -0.6581  0.6301 -0.2546
  154DOPC  H17Y18548   5.763   3.328   6.169 -1.5273  0.1666  1.0298
  154DOPC  C31818549   5.849   3.140   6.187  0.2666 -0.1986  0.1310
  154DOPC  H18X18550   5.908   3.067   6.127  0.8570  2.0272 -2.1927
  154DOPC  H18Y18551   5.930   3.193   6.240 -0.9022  0.5305  1.2333
  154DOPC  H18Z18552   5.798   3.075   6.261  2.1808  0.2761  1.9418
  155DOPC     N18553   1.757   0.029   6.983  0.0513  0.0054 -0.5967
  155DOPC   C1218554   1.737   0.036   6.831  0.1834  0.3862 -1.1930
  155DOPC  H12A18555   1.700  -0.056   6.789  1.2930  0.3057 -2.0332
  155DOPC  H12B18556   1.835   0.054   6.789  0.9228  0.8693  0.6514
  155DOPC   C1318557   1.800   0.161   7.020  0.2808 -0.5042 -0.7984
  155DOPC  H13A18558   1.716   0.228   7.023 -0.0022 -0.8789  0.0742
  155DOPC  H13B18559   1.834   0.154   7.123  1.7705 -1.7101 -1.3318
  155DOPC  H13C18560   1.888   0.185   6.963  0.4436 -0.3385 -0.4801
  155DOPC   C1418561   1.861  -0.072   7.013  0.1993  0.3711 -0.0705
  155DOPC  H14A18562   1.868  -0.081   7.121  0.9223  0.9108 -0.0679
  155DOPC  H14B18563   1.843  -0.166   6.963  0.2728 -0.4752  1.4297
  155DOPC  H14C18564   1.955  -0.027   6.984 -0.9889  1.8591 -1.8442
  155DOPC   C1518565   1.629  -0.013   7.048 -0.1040  0.4715 -0.4223
  155DOPC  H15A18566   1.551   0.059   7.029 -0.3670  0.2528 -0.1689
  155DOPC  H15B18567   1.628  -0.002   7.155 -0.5595  0.2120 -0.3988
  155DOPC  H15C18568   1.596  -0.112   7.023  1.4896  0.2239 -1.6896
  155DOPC   C1118569   1.656   0.150   6.767 -0.6649 -0.2870  0.5693
  155DOPC  H11A18570   1.713   0.243   6.788  0.0482 -0.6664  0.3653
  155DOPC  H11B18571   1.662   0.150   6.656 -0.1461  0.8103  0.5877
  155DOPC     P18572   1.452   0.291   6.855  0.3646  0.3989 -0.1871
  155DOPC   O1318573   1.543   0.357   6.942  0.4624 -0.1249  0.4801
  155DOPC   O1418574   1.317   0.275   6.905  0.1115 -0.9693  0.7761
  155DOPC   O1218575   1.518   0.155   6.812 -0.3141 -0.1055 -0.1794
  155DOPC   O1118576   1.454   0.370   6.713  0.4380 -0.3024 -0.1671
  155DOPC    C118577   1.390   0.494   6.694 -0.1123  0.0969  0.2192
  155DOPC    HA18578   1.450   0.571   6.747 -0.1974  0.4201 -0.1507
  155DOPC    HB18579   1.294   0.506   6.750  0.3130  0.3062  0.9231
  155DOPC    C218580   1.368   0.528   6.548 -0.2791 -0.0750  0.3829
  155DOPC    HS18581   1.340   0.635   6.539  2.5580  0.7879  0.5509
  155DOPC   O2118582   1.263   0.442   6.499  0.1738  0.7046 -0.0241
  155DOPC   C2118583   1.141   0.476   6.505 -0.2517 -0.6007  0.2716
  155DOPC   O2218584   1.101   0.579   6.555  0.4590 -0.1045  0.6344
  155DOPC   C2218585   1.053   0.384   6.424  0.2377  0.4933 -0.1740
  155DOPC   H2R18586   0.947   0.412   6.438  0.1533  0.0951  0.0045
  155DOPC   H2S18587   1.057   0.281   6.467  3.3205  1.4323  2.1318
  155DOPC    C318588   1.503   0.492   6.474  0.6487 -0.4471  0.6576
  155DOPC    HX18589   1.539   0.388   6.486  0.1604 -0.4614  2.3369
  155DOPC    HY18590   1.570   0.570   6.516  0.5124  0.6307 -1.0109
  155DOPC   O3118591   1.478   0.520   6.332  0.0778  0.1826 -0.0031
  155DOPC   C3118592   1.483   0.644   6.289  0.0301 -0.2530  0.2726
  155DOPC   O3218593   1.531   0.738   6.359  0.2321 -0.1952  0.1597
  155DOPC   C3218594   1.426   0.657   6.141  0.1184 -0.4148 -0.2890
  155DOPC   H2X18595   1.342   0.584   6.134 -0.7090  0.4520  0.2996
  155DOPC   H2Y18596   1.367   0.748   6.119 -0.2568 -0.6381 -0.2280
  155DOPC   C2318597   1.093   0.372   6.278  0.2929 -0.1266  1.7376
  155DOPC   H3R18598   1.191   0.321   6.276  1.9482  2.7210  3.4109
  155DOPC   H3S18599   1.100   0.475   6.235 -0.6862 -0.1438  1.5108
  155DOPC   C2418600   0.980   0.311   6.198 -0.1703 -0.4914 -0.1641
  155DOPC   H4R18601   0.901   0.388   6.188  0.3416 -0.1963 -2.3252
  155DOPC   H4S18602   0.929   0.235   6.261 -1.9145  0.0974 -0.8123
  155DOPC   C2518603   1.025   0.260   6.067 -0.3573  0.4114 -0.5272
  155DOPC   H5R18604   0.944   0.202   6.019 -0.1994  0.0944 -0.4124
  155DOPC   H5S18605   1.098   0.179   6.086  0.1280  0.8389 -0.5427
  155DOPC   C2618606   1.091   0.363   5.974 -0.2545  1.3233 -0.2395
  155DOPC   H6R18607   1.124   0.298   5.891  0.8206  1.0350  0.3960
  155DOPC   H6S18608   1.186   0.399   6.019  1.2615 -2.5325 -0.0146
  155DOPC   C2718609   0.995   0.470   5.921  0.9023  0.4269 -0.1669
  155DOPC   H7R18610   1.049   0.556   5.874  1.0463  0.0021 -0.7883
  155DOPC   H7S18611   0.941   0.507   6.011 -1.1934 -4.0589  0.6613
  155DOPC   C2818612   0.872   0.417   5.837 -0.1918 -0.4122 -0.0404
  155DOPC   H8R18613   0.794   0.493   5.812 -0.7578 -1.7228 -2.5676
  155DOPC   H8S18614   0.820   0.335   5.891 -1.6927 -1.2537 -2.6081
  155DOPC   C2918615   0.923   0.362   5.707 -0.5616 -0.4233 -0.2191
  155DOPC   H9R18616   0.989   0.275   5.710  0.4303  0.2625 -1.3244
  155DOPC  C21018617   0.908   0.418   5.586 -0.3664 -0.0865 -0.5209
  155DOPC  H10R18618   0.949   0.367   5.498 -1.7305  0.1758 -1.3432
  155DOPC  C21118619   0.823   0.537   5.552  1.0046  0.1370 -0.1892
  155DOPC  H11R18620   0.776   0.591   5.638  2.2270  2.6442 -0.9935
  155DOPC  H11S18621   0.742   0.512   5.480  0.5691  0.0475  0.3290
  155DOPC  C21218622   0.891   0.643   5.464  0.0448 -0.4576 -0.6571
  155DOPC  H12R18623   0.980   0.693   5.508  0.9694 -1.7418 -1.0208
  155DOPC  H12S18624   0.817   0.727   5.462  0.3088 -0.0795  2.1186
  155DOPC  C21318625   0.930   0.593   5.325 -0.4667  0.6297  0.0085
  155DOPC  H13R18626   0.851   0.531   5.279 -2.1484  2.8221 -0.1861
  155DOPC  H13S18627   1.019   0.530   5.351 -0.4404  1.1283  1.1849
  155DOPC  C21418628   0.967   0.705   5.229  0.1241  0.0470 -0.3078
  155DOPC  H14R18629   1.054   0.764   5.263 -0.6670  0.6697  0.6706
  155DOPC  H14S18630   0.886   0.782   5.229 -0.4455 -0.5390 -0.5363
  155DOPC  C21518631   0.989   0.660   5.086  0.1669 -0.3686  0.5926
  155DOPC  H15R18632   1.052   0.569   5.098  1.8202  0.6197 -0.2069
  155DOPC  H15S18633   1.051   0.745   5.049  1.3962  0.2213  3.6478
  155DOPC  C21618634   0.858   0.622   5.015 -0.0038 -0.4197  0.2684
  155DOPC  H16R18635   0.787   0.704   5.042  0.4906 -0.9351  3.6087
  155DOPC  H16S18636   0.814   0.524   5.042 -2.5573 -0.2343 -2.6783
  155DOPC  C21718637   0.868   0.614   4.858  1.0595 -0.0877  0.0726
  155DOPC  H17R18638   0.768   0.591   4.815  1.1714 -1.7138  0.6405
  155DOPC  H17S18639   0.931   0.529   4.827 -0.6163 -1.1698 -0.5461
  155DOPC  C21818640   0.927   0.732   4.780  0.0797 -0.5843 -0.9126
  155DOPC  H18R18641   0.886   0.826   4.822  1.2213  0.2040 -1.4790
  155DOPC  H18S18642   0.909   0.727   4.670 -1.6623  0.2519 -0.6953
  155DOPC  H18T18643   1.038   0.729   4.792  0.2134  1.1645 -1.4432
  155DOPC   C3318644   1.539   0.636   6.045  0.2650  0.0661 -0.3809
  155DOPC   H3X18645   1.581   0.534   6.057  0.6533  0.3196  0.5025
  155DOPC   H3Y18646   1.622   0.704   6.074  0.3233  0.5923 -1.6987
  155DOPC   C3418647   1.507   0.681   5.899 -0.1133 -0.2472  0.4656
  155DOPC   H4X18648   1.603   0.694   5.844 -0.9093 -0.6699 -1.0597
  155DOPC   H4Y18649   1.454   0.779   5.905 -1.0156 -0.6879 -0.1550
  155DOPC   C3518650   1.405   0.583   5.844 -0.2095  1.3090 -0.0325
  155DOPC   H5X18651   1.324   0.591   5.919  0.7284 -1.2587  1.3848
  155DOPC   H5Y18652   1.439   0.477   5.848 -3.0465  0.3442  0.8246
  155DOPC   C3618653   1.366   0.615   5.705  0.5894  0.1552 -0.0871
  155DOPC   H6X18654   1.321   0.715   5.690  1.2779  0.7032  1.3547
  155DOPC   H6Y18655   1.456   0.626   5.641  0.6216  2.4805  0.2775
  155DOPC   C3718656   1.287   0.504   5.639  0.1207 -0.8926 -0.6466
  155DOPC   H7X18657   1.186   0.511   5.685  0.0307 -1.1087 -0.8079
  155DOPC   H7Y18658   1.269   0.546   5.537 -1.7258  1.4404  0.5332
  155DOPC   C3818659   1.360   0.371   5.621  0.0349 -0.4270  0.0094
  155DOPC   H8X18660   1.387   0.321   5.716  0.7809 -0.4150 -0.1868
  155DOPC   H8Y18661   1.461   0.391   5.577  0.4957 -1.0662  0.7492
  155DOPC   C3918662   1.279   0.282   5.537 -0.1370  0.4622  0.1730
  155DOPC   H9X18663   1.179   0.257   5.576 -0.5721  1.2276 -0.4264
  155DOPC  C31018664   1.308   0.234   5.410 -0.2560  0.0584 -0.3845
  155DOPC  H10X18665   1.246   0.151   5.371 -0.3181 -1.4407  2.5883
  155DOPC  C31118666   1.431   0.275   5.342 -0.4231 -1.1622  0.4601
  155DOPC  H11X18667   1.519   0.212   5.369  0.9440 -0.1316 -1.3750
  155DOPC  H11Y18668   1.451   0.380   5.374  0.2710 -1.0965 -0.1696
  155DOPC  C31218669   1.425   0.289   5.186  0.2474 -0.3209 -0.2234
  155DOPC  H12X18670   1.371   0.202   5.142 -1.1722  0.9293 -1.0595
  155DOPC  H12Y18671   1.531   0.291   5.154  0.4749  4.1784  0.2046
  155DOPC  C31318672   1.349   0.414   5.138  0.2066 -1.1164  0.2838
  155DOPC  H13X18673   1.251   0.433   5.187 -0.5023 -3.8147  0.1005
  155DOPC  H13Y18674   1.407   0.500   5.177 -1.3921 -0.2829  0.9079
  155DOPC  C31418675   1.331   0.431   4.987 -0.6418 -0.6212 -0.7713
  155DOPC  H14X18676   1.299   0.535   4.964  0.0062  0.2460  1.8253
  155DOPC  H14Y18677   1.428   0.418   4.935 -1.5343  0.4902 -2.8123
  155DOPC  C31518678   1.230   0.336   4.921 -0.0654 -0.4336 -0.7331
  155DOPC  H15X18679   1.139   0.340   4.985 -0.0032 -1.5967 -0.5578
  155DOPC  H15Y18680   1.267   0.232   4.927  2.5518  0.4313 -0.5686
  155DOPC  C31618681   1.207   0.368   4.768  0.0026 -0.1424  0.1156
  155DOPC  H16X18682   1.161   0.469   4.765 -1.5286 -0.6458  3.0463
  155DOPC  H16Y18683   1.305   0.354   4.718  0.3936 -6.1503  1.7920
  155DOPC  C31718684   1.107   0.269   4.717  0.3710  0.0268  0.1714
  155DOPC  H17X18685   1.145   0.166   4.735 -0.8141 -0.2659  1.0811
  155DOPC  H17Y18686   1.021   0.266   4.787 -0.4384  1.3046 -0.7246
  155DOPC  C31818687   1.055   0.304   4.578 -0.8236 -0.7898 -0.0484
  155DOPC  H18X18688   1.056   0.414   4.562  1.6548 -0.5437  1.2016
  155DOPC  H18Y18689   1.119   0.260   4.499  1.2891  0.1918  1.0210
  155DOPC  H18Z18690   0.955   0.264   4.553 -0.6157 -0.6396 -1.1664
  156DOPC     N18691   6.377   5.785   6.668 -0.0828  0.1125  0.4039
  156DOPC   C1218692   6.442   5.885   6.573  0.4824  0.1385  0.3664
  156DOPC  H12A18693   6.467   5.829   6.485 -2.0309 -0.2765 -0.1513
  156DOPC  H12B18694   6.533   5.919   6.621  0.7119 -0.6315  0.4840
  156DOPC   C1318695   6.260   5.712   6.611 -0.2321  0.3607 -0.0645
  156DOPC  H13A18696   6.297   5.644   6.535 -0.3060 -1.9461  1.8492
  156DOPC  H13B18697   6.212   5.644   6.680 -1.5026 -1.2203 -2.3597
  156DOPC  H13C18698   6.188   5.786   6.580  1.8441  1.8092 -1.7095
  156DOPC   C1418699   6.340   5.854   6.785 -0.0532 -0.4534  0.4995
  156DOPC  H14A18700   6.423   5.905   6.832  0.1013 -2.1513  2.1598
  156DOPC  H14B18701   6.267   5.931   6.761  1.0256  0.5711  0.4315
  156DOPC  H14C18702   6.295   5.792   6.861 -0.8813 -0.0446  0.3666
  156DOPC   C1518703   6.482   5.675   6.701 -0.1864 -0.3985 -0.4343
  156DOPC  H15A18704   6.573   5.731   6.715 -1.2148  1.3017 -0.1252
  156DOPC  H15B18705   6.493   5.593   6.632  0.5224  0.0494 -0.8633
  156DOPC  H15C18706   6.463   5.638   6.801  1.6345  0.1077  0.1275
  156DOPC   C1118707   6.358   6.012   6.524  0.3163 -0.1652  0.3817
  156DOPC  H11A18708   6.412   6.055   6.438 -0.9756 -0.8455 -0.8176
  156DOPC  H11B18709   6.253   5.990   6.494 -0.2111  1.7222  0.7526
  156DOPC     P18710   6.471   6.190   6.680  0.0912  0.6058 -0.0429
  156DOPC   O1318711   6.602   6.117   6.668  0.1076  0.2096  0.0586
  156DOPC   O1418712   6.439   6.238   6.814 -0.2818 -0.5084  0.8916
  156DOPC   O1218713   6.350   6.100   6.636  0.2176  0.5764  0.3357
  156DOPC   O1118714   6.462   6.308   6.572 -0.2297  0.6439  0.3077
  156DOPC    C118715   6.340   6.379   6.558  0.0566 -0.4981 -1.4024
  156DOPC    HA18716   6.356   6.477   6.607  0.2732  0.2205 -2.8475
  156DOPC    HB18717   6.248   6.325   6.589  1.0242 -1.4374 -0.0649
  156DOPC    C218718   6.315   6.413   6.409  0.6460  0.4253  0.0243
  156DOPC    HS18719   6.320   6.319   6.351  0.3584 -1.2103  2.4997
  156DOPC   O2118720   6.408   6.513   6.377 -0.2450  0.1451 -0.4798
  156DOPC   C2118721   6.484   6.495   6.271  0.4126 -0.0199 -0.4184
  156DOPC   O2218722   6.485   6.392   6.204  0.1179  0.3379  0.1875
  156DOPC   C2218723   6.566   6.624   6.241 -0.0629  0.8213 -0.0382
  156DOPC   H2R18724   6.665   6.617   6.290  1.0745 -2.5561 -2.4692
  156DOPC   H2S18725   6.508   6.712   6.276 -2.0719 -0.8646  1.0901
  156DOPC    C318726   6.167   6.476   6.385 -0.8225  0.2111  0.0752
  156DOPC    HX18727   6.163   6.585   6.405 -1.3863  0.3297 -0.6300
  156DOPC    HY18728   6.103   6.429   6.463 -1.5040  1.4278  0.2724
  156DOPC   O3118729   6.124   6.448   6.243  0.4906 -0.0314  0.4751
  156DOPC   C3118730   6.082   6.324   6.224 -0.0083  0.2806 -0.1545
  156DOPC   O3218731   6.076   6.244   6.309  0.4409  0.2658 -0.2035
  156DOPC   C3218732   6.038   6.302   6.075  0.0397  0.2635  0.3550
  156DOPC   H2X18733   6.009   6.195   6.062 -0.9979  0.7509 -1.8051
  156DOPC   H2Y18734   5.950   6.367   6.055 -0.2457 -0.3823 -0.5613
  156DOPC   C2318735   6.607   6.643   6.089 -0.1863  0.1117  0.0765
  156DOPC   H3R18736   6.654   6.547   6.061  0.3403 -0.2807  2.0947
  156DOPC   H3S18737   6.681   6.726   6.090  0.0879 -0.1318  0.0446
  156DOPC   C2418738   6.494   6.680   5.989  0.8617 -0.1067 -0.6507
  156DOPC   H4R18739   6.443   6.760   6.047  0.7265 -0.9085  0.3782
  156DOPC   H4S18740   6.418   6.599   5.991  1.0426 -0.2912  1.3399
  156DOPC   C2518741   6.532   6.725   5.853  0.1317  0.0563  0.2884
  156DOPC   H5R18742   6.585   6.642   5.803 -0.4753 -1.1170  1.5325
  156DOPC   H5S18743   6.602   6.810   5.865 -0.3733  0.3739  1.0813
  156DOPC   C2618744   6.422   6.769   5.758 -0.0103 -0.2872 -0.3115
  156DOPC   H6R18745   6.356   6.830   5.824 -0.9544 -0.7777 -0.7958
  156DOPC   H6S18746   6.363   6.678   5.736  1.6161 -1.2627 -0.8732
  156DOPC   C2718747   6.459   6.839   5.632 -0.4113  0.2944  0.7795
  156DOPC   H7R18748   6.498   6.940   5.655 -2.4486  0.5136  4.0270
  156DOPC   H7S18749   6.366   6.855   5.573  0.0266  1.1237  0.3044
  156DOPC   C2818750   6.559   6.759   5.542 -0.2853  0.1288  0.1467
  156DOPC   H8R18751   6.519   6.657   5.527  1.1757 -0.4506 -0.0079
  156DOPC   H8S18752   6.659   6.756   5.592 -0.6102 -3.1906  0.8223
  156DOPC   C2918753   6.577   6.816   5.404 -0.2174  0.1822 -0.1149
  156DOPC   H9R18754   6.487   6.850   5.351 -0.0578 -0.3034 -0.7166
  156DOPC  C21018755   6.693   6.851   5.347 -0.5268  0.4539 -0.3467
  156DOPC  H10R18756   6.692   6.881   5.241  0.0839  0.3139 -0.3940
  156DOPC  C21118757   6.827   6.820   5.403  0.3350  0.4160 -0.0749
  156DOPC  H11R18758   6.863   6.734   5.342 -3.4889 -1.5363  0.1536
  156DOPC  H11S18759   6.829   6.783   5.508  1.5195  1.6020  0.3483
  156DOPC  C21218760   6.923   6.939   5.396  0.3508  0.1739  0.0502
  156DOPC  H12R18761   6.921   6.981   5.293  0.9376 -0.0585 -0.0578
  156DOPC  H12S18762   7.026   6.904   5.420  1.0674  1.4588 -0.9991
  156DOPC  C21318763   6.881   7.056   5.491  0.3289  0.1441  0.0771
  156DOPC  H13R18764   6.771   7.057   5.505  0.2143  2.4994 -0.5683
  156DOPC  H13S18765   6.904   7.155   5.447 -1.0103  0.4369 -0.0155
  156DOPC  C21418766   6.946   7.048   5.630 -0.2971 -0.4866  0.2780
  156DOPC  H14R18767   6.930   6.946   5.671  0.1710 -1.0149 -0.7976
  156DOPC  H14S18768   6.906   7.126   5.698  0.7735  0.8282 -0.5493
  156DOPC  C21518769   7.093   7.069   5.645  0.4947 -0.8087  0.8057
  156DOPC  H15R18770   7.101   7.178   5.664  0.0091 -0.7603  0.7494
  156DOPC  H15S18771   7.156   7.048   5.556 -0.5732  2.9105 -1.0380
  156DOPC  C21618772   7.150   7.001   5.773 -0.2366  0.3786  0.5860
  156DOPC  H16R18773   7.257   7.016   5.797  0.4701 -1.5526 -1.0801
  156DOPC  H16S18774   7.137   6.891   5.760 -1.2546  0.5188  0.3364
  156DOPC  C21718775   7.082   7.045   5.903 -0.7706  0.2810  0.2130
  156DOPC  H17R18776   6.979   7.006   5.895 -0.7753  0.7640 -5.0552
  156DOPC  H17S18777   7.086   7.153   5.928 -0.5384 -0.3107  3.0899
  156DOPC  C21818778   7.145   6.977   6.027  0.0899 -0.2749 -0.2659
  156DOPC  H18R18779   7.112   7.017   6.125  0.4595 -0.6601  0.0218
  156DOPC  H18S18780   7.254   6.995   6.017  0.1806 -0.5019  0.2721
  156DOPC  H18T18781   7.122   6.868   6.023  1.5190 -0.6498  0.8914
  156DOPC   C3318782   6.151   6.331   5.968  0.6920 -0.3852  0.1608
  156DOPC   H3X18783   6.252   6.301   6.001  1.2860  1.2133 -0.1234
  156DOPC   H3Y18784   6.141   6.441   5.972 -0.4272 -0.5122  1.6234
  156DOPC   C3418785   6.128   6.256   5.830 -0.3466  0.6943 -0.0761
  156DOPC   H4X18786   6.123   6.149   5.860 -2.3957  1.1633  1.4858
  156DOPC   H4Y18787   6.209   6.268   5.755 -2.2567  0.0878 -2.3771
  156DOPC   C3518788   6.001   6.288   5.757  0.3459 -0.1547  0.4473
  156DOPC   H5X18789   5.924   6.323   5.829  1.5430 -0.4155  1.8916
  156DOPC   H5Y18790   5.967   6.191   5.714  1.5723 -0.7283  0.7262
  156DOPC   C3618791   6.027   6.391   5.637  0.8314  0.5923 -0.5447
  156DOPC   H6X18792   6.091   6.336   5.565 -1.3023 -1.4035 -1.0054
  156DOPC   H6Y18793   5.931   6.409   5.585  1.1131  2.4109 -0.5026
  156DOPC   C3718794   6.092   6.519   5.685  0.1660 -0.6862  0.0924
  156DOPC   H7X18795   6.025   6.568   5.759 -0.3638 -2.8183  1.0805
  156DOPC   H7Y18796   6.191   6.494   5.727  0.6450 -2.9929 -2.1909
  156DOPC   C3818797   6.099   6.613   5.561 -0.6124 -0.1766 -0.9321
  156DOPC   H8X18798   6.105   6.722   5.584  2.0065 -0.2852 -0.7961
  156DOPC   H8Y18799   6.008   6.599   5.500 -1.6382  0.4704  0.4148
  156DOPC   C3918800   6.217   6.569   5.480 -0.2221 -0.6100  0.3961
  156DOPC   H9X18801   6.315   6.587   5.527 -0.0629  1.4844 -0.6406
  156DOPC  C31018802   6.221   6.514   5.352  0.5625  0.3789 -0.0160
  156DOPC  H10X18803   6.318   6.477   5.316  0.2052 -2.4335  1.6108
  156DOPC  C31118804   6.104   6.482   5.265  0.1084 -0.5016  0.1831
  156DOPC  H11X18805   6.124   6.511   5.159  0.6346 -1.4949  0.0015
  156DOPC  H11Y18806   6.012   6.531   5.302  0.4264 -0.4391  0.8979
  156DOPC  C31218807   6.072   6.332   5.260  0.2373  0.0966 -0.3442
  156DOPC  H12X18808   6.044   6.292   5.360  0.7889  1.6448  0.4681
  156DOPC  H12Y18809   6.161   6.282   5.217  1.1491  0.9678  0.4818
  156DOPC  C31318810   5.948   6.302   5.171 -0.0874 -0.2099  0.3005
  156DOPC  H13X18811   5.902   6.202   5.180 -2.6970  1.0925  3.1454
  156DOPC  H13Y18812   5.868   6.373   5.200  0.0464  0.2339 -0.3720
  156DOPC  C31418813   5.973   6.334   5.019 -0.4299  0.2156 -0.4595
  156DOPC  H14X18814   6.007   6.439   5.006 -0.2568  0.6240  2.5409
  156DOPC  H14Y18815   6.048   6.261   4.981 -0.8189  0.2639 -1.3499
  156DOPC  C31518816   5.849   6.313   4.934 -0.4631  0.1982  0.8793
  156DOPC  H15X18817   5.770   6.381   4.972 -0.1993  0.5691  0.7728
  156DOPC  H15Y18818   5.809   6.210   4.944 -1.5002  0.6807  1.8721
  156DOPC  C31618819   5.874   6.329   4.783 -0.7720  0.1582 -0.6043
  156DOPC  H16X18820   5.925   6.424   4.753  0.3403 -0.3533 -0.3929
  156DOPC  H16Y18821   5.945   6.253   4.744  0.8941  0.7426  1.1160
  156DOPC  C31718822   5.740   6.337   4.706  0.2329  0.6618 -0.3751
  156DOPC  H17X18823   5.671   6.421   4.729 -0.9607  0.2562 -2.2948
  156DOPC  H17Y18824   5.771   6.363   4.603 -0.8484 -2.1519 -1.5206
  156DOPC  C31818825   5.644   6.219   4.707  0.1370 -0.1958  1.0465
  156DOPC  H18X18826   5.686   6.125   4.665 -0.2937 -0.5184  1.3280
  156DOPC  H18Y18827   5.594   6.201   4.805  2.3390 -1.8687  1.9629
  156DOPC  H18Z18828   5.568   6.240   4.628  2.8085 -0.7563 -1.8560
  157DOPC     N18829   4.737   1.978   6.762 -0.0655 -0.8798 -0.2299
  157DOPC   C1218830   4.862   2.062   6.752  0.0201 -0.1641  0.9829
  157DOPC  H12A18831   4.942   2.026   6.815  1.1170  0.0977 -0.2360
  157DOPC  H12B18832   4.842   2.160   6.794 -0.0842  0.2340  0.0300
  157DOPC   C1318833   4.761   1.842   6.711 -0.5903 -0.3104  0.4482
  157DOPC  H13A18834   4.673   1.781   6.727 -0.7379  0.0467  1.0256
  157DOPC  H13B18835   4.782   1.853   6.605 -2.0562 -0.5320  0.1054
  157DOPC  H13C18836   4.838   1.795   6.770 -2.2338 -1.0232  2.1142
  157DOPC   C1418837   4.623   2.045   6.695  0.5854 -0.6998  0.9060
  157DOPC  H14A18838   4.534   1.986   6.708 -0.1454 -0.1038 -1.0217
  157DOPC  H14B18839   4.616   2.146   6.733  1.9652 -0.0456 -0.4819
  157DOPC  H14C18840   4.640   2.053   6.589 -0.1696  2.3717  0.9135
  157DOPC   C1518841   4.693   1.958   6.908 -0.0945 -0.2762 -0.9273
  157DOPC  H15A18842   4.775   1.944   6.977 -1.9716 -0.4439  1.3771
  157DOPC  H15B18843   4.631   1.870   6.922 -1.0427  0.7170  1.7241
  157DOPC  H15C18844   4.634   2.043   6.936 -0.2205 -0.5012 -0.5048
  157DOPC   C1118845   4.926   2.058   6.611 -0.2657 -0.3731  0.0290
  157DOPC  H11A18846   4.842   2.062   6.538  0.4703  1.5431 -0.7829
  157DOPC  H11B18847   4.986   2.151   6.599 -0.9099  0.2964  1.7182
  157DOPC     P18848   5.129   1.898   6.672  0.1018  0.2315 -0.0041
  157DOPC   O1318849   5.089   1.763   6.720 -0.0101 -0.1792 -0.5181
  157DOPC   O1418850   5.161   2.002   6.773 -0.2960 -0.0266 -0.2377
  157DOPC   O1218851   5.010   1.942   6.580  0.7862 -0.0882  0.1396
  157DOPC   O1118852   5.255   1.886   6.585 -0.2154 -0.4681  0.0738
  157DOPC    C118853   5.245   1.917   6.450 -0.1102 -0.2016 -0.1154
  157DOPC    HA18854   5.344   1.954   6.416  0.8832  0.1991  2.8704
  157DOPC    HB18855   5.180   2.006   6.433 -1.9834 -1.4238  0.4718
  157DOPC    C218856   5.218   1.795   6.371 -0.7241  0.7233  0.7415
  157DOPC    HS18857   5.115   1.764   6.399 -1.3118  1.0131 -0.9555
  157DOPC   O2118858   5.323   1.694   6.404  0.0020 -0.4996  0.2435
  157DOPC   C2118859   5.289   1.569   6.381 -0.0362 -0.0555 -0.7926
  157DOPC   O2218860   5.181   1.526   6.355  0.0764  0.0372  0.0473
  157DOPC   C2218861   5.406   1.477   6.391 -0.5075 -0.5219  0.5608
  157DOPC   H2R18862   5.366   1.374   6.379 -2.1089  0.0296  0.9913
  157DOPC   H2S18863   5.452   1.489   6.492 -0.8229  1.5070  0.4958
  157DOPC    C318864   5.212   1.821   6.213 -0.5795  0.3663 -1.0393
  157DOPC    HX18865   5.137   1.900   6.190 -1.3528 -0.0464 -0.0696
  157DOPC    HY18866   5.160   1.731   6.173 -2.1715  1.2763 -1.1095
  157DOPC   O3118867   5.341   1.844   6.151  0.0013  0.3452  0.1957
  157DOPC   C3118868   5.345   1.885   6.030 -0.7455 -0.0531  0.3333
  157DOPC   O3218869   5.249   1.900   5.957  0.8398  0.3587  0.1387
  157DOPC   C3218870   5.486   1.917   5.986  0.1213 -0.6318  0.7982
  157DOPC   H2X18871   5.495   2.022   6.023 -2.0077  0.2065 -0.8288
  157DOPC   H2Y18872   5.559   1.848   6.032  3.6811  0.3102 -2.8004
  157DOPC   C2318873   5.519   1.510   6.279  0.4322  0.3988  0.1693
  157DOPC   H3R18874   5.597   1.432   6.278  0.2691  0.2427 -1.0676
  157DOPC   H3S18875   5.564   1.607   6.311  0.0692  0.0509  1.8113
  157DOPC   C2418876   5.474   1.524   6.131 -0.6716 -0.0708 -0.6379
  157DOPC   H4R18877   5.568   1.542   6.074  1.6468 -2.3971  2.0775
  157DOPC   H4S18878   5.410   1.613   6.115  0.4139  1.0578  1.0023
  157DOPC   C2518879   5.425   1.388   6.076  0.3752  0.5258 -0.0931
  157DOPC   H5R18880   5.334   1.345   6.123  0.1796 -1.9218 -2.4438
  157DOPC   H5S18881   5.503   1.311   6.097 -1.0180 -1.0929 -0.5964
  157DOPC   C2618882   5.376   1.386   5.927  0.2756  0.7671  0.4632
  157DOPC   H6R18883   5.390   1.286   5.881  1.6620  0.2570  1.9235
  157DOPC   H6S18884   5.422   1.468   5.868 -0.3973  0.4960 -0.4612
  157DOPC   C2718885   5.225   1.415   5.912 -0.0200  0.6447  1.1090
  157DOPC   H7R18886   5.201   1.504   5.974 -1.9496  1.3794 -0.5573
  157DOPC   H7S18887   5.171   1.326   5.953 -1.3172  0.1087 -1.5234
  157DOPC   C2818888   5.169   1.426   5.768 -0.1225  0.7358  0.3159
  157DOPC   H8R18889   5.061   1.409   5.788  0.3244 -0.8439  1.5707
  157DOPC   H8S18890   5.208   1.344   5.704  0.8434  0.4098  1.2910
  157DOPC   C2918891   5.187   1.563   5.708  0.1563  0.2649  0.1134
  157DOPC   H9R18892   5.204   1.649   5.775  2.7345 -1.6057  2.0817
  157DOPC  C21018893   5.191   1.594   5.575  0.0139  0.5713 -0.5161
  157DOPC  H10R18894   5.190   1.701   5.551 -0.2717  0.4781 -0.9239
  157DOPC  C21118895   5.200   1.500   5.454 -0.5681  0.3807 -0.2087
  157DOPC  H11R18896   5.106   1.505   5.396  0.0713  2.6524 -1.1233
  157DOPC  H11S18897   5.207   1.397   5.497  1.7561  0.7841  0.5144
  157DOPC  C21218898   5.331   1.503   5.361  0.4308 -0.0487  0.6607
  157DOPC  H12R18899   5.331   1.424   5.283  1.1080  0.2107  0.3971
  157DOPC  H12S18900   5.416   1.472   5.425  0.5846 -2.9270 -0.7654
  157DOPC  C21318901   5.364   1.637   5.290  0.2063  0.0175  0.2797
  157DOPC  H13R18902   5.473   1.655   5.300 -0.2345  2.8157  1.0423
  157DOPC  H13S18903   5.322   1.723   5.347 -1.6403 -0.6404 -0.0247
  157DOPC  C21418904   5.338   1.632   5.136 -0.5607 -0.3003  0.0491
  157DOPC  H14R18905   5.384   1.543   5.089 -0.1664  0.1599 -0.4482
  157DOPC  H14S18906   5.392   1.723   5.102  1.1722 -1.2910  0.0322
  157DOPC  C21518907   5.188   1.638   5.104  0.1851  0.2640  0.1187
  157DOPC  H15R18908   5.141   1.734   5.134 -1.3676 -1.0233  2.1011
  157DOPC  H15S18909   5.126   1.555   5.145 -0.9902  0.8084 -0.4923
  157DOPC  C21618910   5.159   1.612   4.953  0.5332  0.1632 -0.2386
  157DOPC  H16R18911   5.188   1.509   4.924  0.3232  0.5297 -1.8392
  157DOPC  H16S18912   5.230   1.676   4.896  1.4521 -0.9914 -0.4354
  157DOPC  C21718913   5.015   1.648   4.901 -0.1489  0.3259 -0.3985
  157DOPC  H17R18914   5.003   1.757   4.920 -1.2446 -0.0119  0.9899
  157DOPC  H17S18915   4.948   1.590   4.969  0.4366  0.8411  0.6433
  157DOPC  C21818916   4.985   1.601   4.761 -0.3616 -0.1063  0.0685
  157DOPC  H18R18917   5.064   1.655   4.705  1.1899  0.3859  2.6122
  157DOPC  H18S18918   4.889   1.638   4.718  0.4471  0.7123 -1.1024
  157DOPC  H18T18919   4.987   1.491   4.748 -1.8095 -0.1931  0.3798
  157DOPC   C3318920   5.510   1.928   5.835  0.0367 -0.1885  0.0867
  157DOPC   H3X18921   5.617   1.956   5.841  0.2981 -1.3689  2.4003
  157DOPC   H3Y18922   5.441   2.002   5.791 -0.8465 -1.7598 -1.2933
  157DOPC   C3418923   5.507   1.804   5.743 -0.0025 -0.1116  0.4355
  157DOPC   H4X18924   5.536   1.832   5.640 -0.9124 -1.3557 -0.1840
  157DOPC   H4Y18925   5.405   1.761   5.732  0.0697 -0.0542 -0.4880
  157DOPC   C3518926   5.594   1.691   5.791 -0.3145  0.3567 -0.1438
  157DOPC   H5X18927   5.566   1.639   5.885  2.4248  1.6166  1.4761
  157DOPC   H5Y18928   5.694   1.734   5.810 -1.0197  2.1980 -0.4019
  157DOPC   C3618929   5.629   1.579   5.683 -0.8635  0.0400  0.2752
  157DOPC   H6X18930   5.533   1.524   5.670 -1.1628  0.4193  0.8485
  157DOPC   H6Y18931   5.656   1.629   5.587  1.4851 -3.0371 -0.8360
  157DOPC   C3718932   5.744   1.483   5.715  0.5726 -0.2193  0.2506
  157DOPC   H7X18933   5.835   1.537   5.750  1.5142 -0.0760 -2.1723
  157DOPC   H7Y18934   5.702   1.418   5.794 -1.1381  1.7155  1.0230
  157DOPC   C3818935   5.768   1.397   5.591 -0.0349  0.0992  0.2041
  157DOPC   H8X18936   5.824   1.462   5.521  1.2325  2.3933  3.1593
  157DOPC   H8Y18937   5.671   1.371   5.545 -1.9184  2.1868  2.7040
  157DOPC   C3918938   5.860   1.273   5.614  0.2712 -0.2834 -0.2271
  157DOPC   H9X18939   5.960   1.294   5.656  0.5549  2.5926 -2.0358
  157DOPC  C31018940   5.829   1.145   5.620  0.1058  0.2961  0.4098
  157DOPC  H10X18941   5.904   1.070   5.649  1.7500  0.7786 -2.2471
  157DOPC  C31118942   5.689   1.091   5.608 -0.2327 -0.0166 -0.3848
  157DOPC  H11X18943   5.694   0.987   5.570 -0.0084 -0.2207  0.1914
  157DOPC  H11Y18944   5.633   1.156   5.538 -0.3200 -0.9522 -1.1941
  157DOPC  C31218945   5.620   1.091   5.740 -0.7085 -0.0835 -0.4541
  157DOPC  H12X18946   5.519   1.049   5.724 -0.9846  0.9060 -1.3742
  157DOPC  H12Y18947   5.597   1.192   5.780 -0.8614  0.2242 -1.3018
  157DOPC  C31318948   5.682   0.995   5.846 -0.5992  0.5086 -0.1099
  157DOPC  H13X18949   5.714   0.901   5.796  3.3447  0.6531  1.7381
  157DOPC  H13Y18950   5.774   1.034   5.894 -0.4161  0.7055 -0.6162
  157DOPC  C31418951   5.596   0.955   5.961  0.5466  0.2017 -0.6214
  157DOPC  H14X18952   5.565   1.048   6.013  0.0269 -0.0991 -0.3920
  157DOPC  H14Y18953   5.510   0.900   5.919  1.1382 -0.6668 -0.7161
  157DOPC  C31518954   5.663   0.859   6.063  0.2611  0.4300 -0.3075
  157DOPC  H15X18955   5.745   0.913   6.116  1.2153 -1.1541 -0.0831
  157DOPC  H15Y18956   5.699   0.771   6.005 -1.8824 -1.6641  1.3297
  157DOPC  C31618957   5.568   0.810   6.168  0.6405  0.1994  0.0287
  157DOPC  H16X18958   5.544   0.891   6.239 -2.1943 -0.4553 -0.0779
  157DOPC  H16Y18959   5.469   0.787   6.123 -0.2492  0.3522  1.8331
  157DOPC  C31718960   5.625   0.692   6.249  0.0931  0.5340 -0.3196
  157DOPC  H17X18961   5.735   0.700   6.261  0.0112 -0.7648  1.9599
  157DOPC  H17Y18962   5.583   0.684   6.352 -0.0128 -2.5625 -0.5127
  157DOPC  C31818963   5.592   0.562   6.174 -0.2695  0.5281 -0.4357
  157DOPC  H18X18964   5.483   0.545   6.156  0.0831 -2.8697 -0.0351
  157DOPC  H18Y18965   5.655   0.568   6.082  0.6724  0.7523  0.2172
  157DOPC  H18Z18966   5.620   0.476   6.237 -1.5254  0.0122 -0.5453
  158DOPC     N18967   3.462   7.173   7.292 -0.5263 -0.3098 -0.1458
  158DOPC   C1218968   3.586   7.199   7.206 -0.0510  0.6790  0.1484
  158DOPC  H12A18969   3.667   7.231   7.269 -0.4074  2.4958 -0.2404
  158DOPC  H12B18970   3.575   7.283   7.139  0.4464  1.3525  0.8960
  158DOPC   C1318971   3.333   7.162   7.219 -0.0553 -0.0388 -0.1818
  158DOPC  H13A18972   3.318   7.066   7.170 -0.7105 -0.0548  0.0452
  158DOPC  H13B18973   3.251   7.173   7.288 -0.6963 -0.3790 -0.8648
  158DOPC  H13C18974   3.324   7.239   7.143 -0.6965 -1.4056 -1.5487
  158DOPC   C1418975   3.450   7.292   7.391  0.3585 -0.1663 -0.4097
  158DOPC  H14A18976   3.544   7.312   7.439  0.2087 -0.6032  0.0718
  158DOPC  H14B18977   3.435   7.384   7.337 -0.7558 -0.4558 -0.6156
  158DOPC  H14C18978   3.372   7.276   7.464  2.3600 -0.5966  1.7418
  158DOPC   C1518979   3.484   7.055   7.381  0.1110  0.0774 -0.2425
  158DOPC  H15A18980   3.392   7.047   7.438  0.6731  0.1537  0.7070
  158DOPC  H15B18981   3.570   7.065   7.446  0.0793  0.0830 -0.2013
  158DOPC  H15C18982   3.496   6.959   7.334  0.1159 -0.1055  0.1265
  158DOPC   C1118983   3.631   7.078   7.115 -0.1904  0.4447  0.2347
  158DOPC  H11A18984   3.727   7.110   7.069 -1.1259  2.5121 -0.4130
  158DOPC  H11B18985   3.646   6.990   7.181  1.2085 -0.7393 -1.5906
  158DOPC     P18986   3.558   7.122   6.877  0.3923  0.0675  0.2623
  158DOPC   O1318987   3.432   7.150   6.809 -0.1499 -0.3575 -0.4076
  158DOPC   O1418988   3.663   7.048   6.799 -0.1811  0.5929 -0.1248
  158DOPC   O1218989   3.542   7.054   7.017  0.7968  0.4258  0.0528
  158DOPC   O1118990   3.607   7.259   6.928  0.1455 -0.3163  0.1745
  158DOPC    C118991   3.718   7.328   6.856  0.0149  0.7091 -0.3844
  158DOPC    HA18992   3.779   7.257   6.795  0.6516  0.9965 -0.0828
  158DOPC    HB18993   3.789   7.376   6.926 -0.6120  0.7866  0.2097
  158DOPC    C218994   3.671   7.428   6.747  0.2535 -0.0796 -0.1465
  158DOPC    HS18995   3.593   7.501   6.780 -1.2421 -0.8138 -1.8763
  158DOPC   O2118996   3.613   7.351   6.638 -0.6709 -0.7236  0.9235
  158DOPC   C2118997   3.491   7.384   6.594 -0.3306 -0.4984 -0.0537
  158DOPC   O2218998   3.429   7.476   6.640  0.1905  0.3935  0.3169
  158DOPC   C2218999   3.448   7.290   6.482  0.2336 -1.1369 -0.0765
  158DOPC   H2R19000   3.415   7.201   6.540  0.2566 -1.2347 -0.2126
  158DOPC   H2S19001   3.537   7.260   6.424  0.8099 -0.7932  0.6163
  158DOPC    C319002   3.795   7.514   6.703  0.1659  0.2308  0.4212
  158DOPC    HX19003   3.881   7.447   6.677 -2.0564 -3.1817  1.1635
  158DOPC    HY19004   3.829   7.581   6.785 -0.5890  0.1576  0.7986
  158DOPC   O3119005   3.763   7.589   6.580 -0.2927  0.5220 -0.4352
  158DOPC   C3119006   3.855   7.677   6.549 -0.0960 -0.1247  0.6125
  158DOPC   O3219007   3.964   7.693   6.605 -0.8200  0.1418  0.4548
  158DOPC   C3219008   3.781   7.762   6.437 -0.2277 -0.3193  0.6616
  158DOPC   H2X19009   3.684   7.799   6.478  0.6156  1.3556  1.2471
  158DOPC   H2Y19010   3.846   7.851   6.421  0.8225 -1.3770 -1.2200
  158DOPC   C2319011   3.335   7.357   6.393  0.6859 -0.6583  0.5046
  158DOPC   H3R19012   3.247   7.380   6.456 -0.3227  0.3793 -1.2247
  158DOPC   H3S19013   3.296   7.277   6.327  0.6964 -0.5949  0.4219
  158DOPC   C2419014   3.371   7.482   6.316 -0.3442  0.1408 -0.2899
  158DOPC   H4R19015   3.429   7.548   6.384  1.0299 -0.4421 -0.8577
  158DOPC   H4S19016   3.286   7.549   6.292  0.1756  1.3676  1.0943
  158DOPC   C2519017   3.456   7.468   6.190  0.2482  0.0869 -0.1950
  158DOPC   H5R19018   3.548   7.405   6.181 -0.2641 -0.7002 -0.0602
  158DOPC   H5S19019   3.501   7.566   6.166 -1.4280  0.9478  0.0538
  158DOPC   C2619020   3.360   7.433   6.069  0.6136  0.0412  0.3263
  158DOPC   H6R19021   3.254   7.460   6.086  1.0278  0.3567  2.6033
  158DOPC   H6S19022   3.361   7.322   6.057 -1.1640  0.1117 -1.0275
  158DOPC   C2719023   3.411   7.483   5.931  0.0876  0.9160  0.6052
  158DOPC   H7R19024   3.519   7.457   5.925 -0.1630 -0.6791  2.3241
  158DOPC   H7S19025   3.407   7.593   5.916  1.8589  0.5927 -3.4393
  158DOPC   C2819026   3.335   7.413   5.820  0.3806 -0.2114 -0.6133
  158DOPC   H8R19027   3.229   7.436   5.841  0.3732 -0.5462 -0.2531
  158DOPC   H8S19028   3.342   7.302   5.823  0.0199 -0.3267 -2.7351
  158DOPC   C2919029   3.379   7.461   5.684  0.7078  0.1047  0.4579
  158DOPC   H9R19030   3.486   7.472   5.662  0.7457 -0.5800  0.2848
  158DOPC  C21019031   3.303   7.507   5.580 -0.4771  0.2354  0.5410
  158DOPC  H10R19032   3.354   7.549   5.492  0.3256 -0.9495  0.4111
  158DOPC  C21119033   3.151   7.528   5.580  0.0034  0.7895  0.0544
  158DOPC  H11R19034   3.121   7.544   5.686  0.5250  2.7504 -0.0521
  158DOPC  H11S19035   3.110   7.429   5.551  1.7236  0.1565 -0.3345
  158DOPC  C21219036   3.106   7.651   5.508 -0.1002  0.0149  0.0094
  158DOPC  H12R19037   3.160   7.739   5.547  0.9870 -0.3129 -0.7332
  158DOPC  H12S19038   2.998   7.656   5.534 -0.2801 -0.2238 -0.6741
  158DOPC  C21319039   3.130   7.643   5.357  0.2354 -0.1621 -0.1299
  158DOPC  H13R19040   3.079   7.547   5.332  0.9148 -0.7305  0.5983
  158DOPC  H13S19041   3.240   7.639   5.342  0.6407  1.7212  1.8897
  158DOPC  C21419042   3.075   7.754   5.273 -0.1414 -0.7571 -0.3466
  158DOPC  H14R19043   3.077   7.847   5.334 -1.0152 -0.6694 -0.4404
  158DOPC  H14S19044   2.969   7.727   5.257 -0.3827 -2.0253  2.8197
  158DOPC  C21519045   3.154   7.780   5.139  0.3173  0.6686  0.9316
  158DOPC  H15R19046   3.261   7.802   5.157  0.9386 -0.5294 -1.0029
  158DOPC  H15S19047   3.114   7.870   5.089  1.9152  0.5642 -0.6697
  158DOPC  C21619048   3.158   7.652   5.042  0.1267  0.0037 -0.0834
  158DOPC  H16R19049   3.051   7.633   5.016  0.3871 -0.0642 -1.1518
  158DOPC  H16S19050   3.211   7.572   5.097  0.2655 -0.1823 -0.4882
  158DOPC  C21719051   3.260   7.689   4.928  0.5881  0.2852  0.5669
  158DOPC  H17R19052   3.231   7.787   4.884  1.7864 -0.6586 -2.6079
  158DOPC  H17S19053   3.260   7.619   4.843 -0.1423  2.4293 -1.2947
  158DOPC  C21819054   3.404   7.707   4.980  0.4887 -0.1730 -0.2217
  158DOPC  H18R19055   3.415   7.689   5.089 -1.1045  1.9043  0.3527
  158DOPC  H18S19056   3.413   7.817   4.970 -0.6906 -0.0521 -0.0790
  158DOPC  H18T19057   3.473   7.660   4.908 -1.1626 -1.1936 -1.2142
  158DOPC   C3319058   3.777   7.674   6.305 -0.0047  0.4134 -0.1439
  158DOPC   H3X19059   3.705   7.590   6.311  0.5942 -0.1169 -0.3183
  158DOPC   H3Y19060   3.879   7.634   6.285  0.1847  1.0030 -0.3893
  158DOPC   C3419061   3.745   7.762   6.184 -0.0748  0.0472 -0.0259
  158DOPC   H4X19062   3.812   7.851   6.179 -1.0078  0.7650 -0.0749
  158DOPC   H4Y19063   3.642   7.802   6.195  0.0480  0.0984  1.0735
  158DOPC   C3519064   3.755   7.682   6.056  0.2658 -0.5135 -0.4883
  158DOPC   H5X19065   3.721   7.576   6.066  0.2716 -0.5111 -0.4422
  158DOPC   H5Y19066   3.864   7.665   6.047  0.5945  1.4955 -0.7463
  158DOPC   C3619067   3.692   7.759   5.935  0.6750 -0.0933  0.0703
  158DOPC   H6X19068   3.585   7.766   5.965  0.1244  2.0997 -2.1158
  158DOPC   H6Y19069   3.730   7.864   5.935  1.6783 -0.4104  1.7727
  158DOPC   C3719070   3.695   7.694   5.791  0.6932 -0.0027 -0.5486
  158DOPC   H7X19071   3.801   7.662   5.791  0.6340 -0.2022 -0.4372
  158DOPC   H7Y19072   3.638   7.599   5.794  0.2809  0.2674  1.5326
  158DOPC   C3819073   3.665   7.794   5.671 -0.3551 -0.3602  0.2948
  158DOPC   H8X19074   3.712   7.763   5.576 -2.6477  0.1366 -1.0757
  158DOPC   H8Y19075   3.724   7.888   5.681 -1.5374  0.3998  0.2551
  158DOPC   C3919076   3.517   7.833   5.666 -0.4387  0.3001 -0.7700
  158DOPC   H9X19077   3.476   7.839   5.768  1.5555 -0.0199  0.0964
  158DOPC  C31019078   3.441   7.847   5.559  0.1556  0.1440  0.3595
  158DOPC  H10X19079   3.334   7.871   5.570  0.3670  1.8596 -0.8932
  158DOPC  C31119080   3.483   7.814   5.413 -0.6068 -0.3409  0.0310
  158DOPC  H11X19081   3.394   7.800   5.348  0.2932  0.0579 -1.3320
  158DOPC  H11Y19082   3.531   7.714   5.422  2.0524  0.7344 -1.3175
  158DOPC  C31219083   3.578   7.922   5.353 -0.1708  0.9619 -0.8032
  158DOPC  H12X19084   3.636   7.881   5.267 -1.1552 -0.9032 -0.6299
  158DOPC  H12Y19085   3.663   7.951   5.418  0.3175 -0.5641 -0.7292
  158DOPC  C31319086   3.497   8.045   5.309 -0.7982  0.6068  0.3190
  158DOPC  H13X19087   3.428   8.016   5.226  1.5783 -0.3173 -1.4482
  158DOPC  H13Y19088   3.436   8.066   5.399 -1.1299  0.8215  0.0450
  158DOPC  C31419089   3.576   8.164   5.266  0.3063 -0.0277  0.3760
  158DOPC  H14X19090   3.631   8.206   5.353  0.6158 -3.3795  1.9727
  158DOPC  H14Y19091   3.657   8.136   5.195  0.0632 -2.5256  0.9750
  158DOPC  C31519092   3.490   8.272   5.208 -0.0294  0.2003  0.4902
  158DOPC  H15X19093   3.549   8.361   5.178 -0.2895  1.5597  3.6121
  158DOPC  H15Y19094   3.416   8.317   5.278 -1.9946  0.1548 -1.4178
  158DOPC  C31619095   3.402   8.230   5.090  0.0099 -0.1338  0.6672
  158DOPC  H16X19096   3.320   8.160   5.118 -1.2451  0.6211 -0.9540
  158DOPC  H16Y19097   3.343   8.320   5.062 -1.0500 -0.5405  1.5328
  158DOPC  C31719098   3.470   8.169   4.970 -0.0067 -0.7222  0.3050
  158DOPC  H17X19099   3.556   8.234   4.943 -1.0569 -0.0793 -1.7417
  158DOPC  H17Y19100   3.518   8.076   5.007 -0.0669 -0.5219  0.8975
  158DOPC  C31819101   3.373   8.146   4.855  0.9329  0.3929 -0.3011
  158DOPC  H18X19102   3.284   8.089   4.890  1.0771  1.2313  1.5656
  158DOPC  H18Y19103   3.346   8.238   4.797  1.2487 -0.9740 -2.7593
  158DOPC  H18Z19104   3.420   8.081   4.779 -0.2183  0.3442 -1.0032
  159DOPC     N19105   4.957   1.307   7.081  0.1100 -0.2338  0.0212
  159DOPC   C1219106   5.012   1.168   7.092  0.1478 -0.3876 -0.5601
  159DOPC  H12A19107   4.971   1.092   7.027 -1.0734 -1.9159  1.8277
  159DOPC  H12B19108   4.987   1.139   7.193 -0.2919  0.9151 -0.2762
  159DOPC   C1319109   4.972   1.337   6.934 -0.3708 -0.5450 -0.8802
  159DOPC  H13A19110   4.981   1.441   6.909  0.9359 -0.6459 -0.9457
  159DOPC  H13B19111   5.059   1.283   6.897 -0.3776 -1.0614 -0.1763
  159DOPC  H13C19112   4.884   1.303   6.883  0.2608 -0.1049 -2.3044
  159DOPC   C1419113   5.031   1.416   7.146 -0.4719 -0.4061  0.0973
  159DOPC  H14A19114   4.976   1.508   7.137  0.4088  0.0322 -0.9881
  159DOPC  H14B19115   5.033   1.393   7.252  2.3392 -2.9776 -0.3840
  159DOPC  H14C19116   5.134   1.422   7.114  0.4760 -4.1614  1.8293
  159DOPC   C1519117   4.820   1.330   7.124 -0.1862 -0.2438 -0.5126
  159DOPC  H15A19118   4.784   1.429   7.099  2.6707  0.8844 -0.4253
  159DOPC  H15B19119   4.817   1.306   7.229 -1.4002  0.8528 -0.2611
  159DOPC  H15C19120   4.752   1.261   7.075 -1.5936 -0.1557  1.2007
  159DOPC   C1119121   5.172   1.151   7.096 -0.1873 -0.7396  0.1778
  159DOPC  H11A19122   5.220   1.225   7.164  0.7764 -1.3519  0.1802
  159DOPC  H11B19123   5.189   1.046   7.127 -0.2129 -0.7037  0.3117
  159DOPC     P19124   5.386   1.158   6.948 -0.0810  0.1230  0.2336
  159DOPC   O1319125   5.437   1.046   7.032 -0.0403  0.0394  0.3341
  159DOPC   O1419126   5.451   1.290   6.959  0.4389  0.4877 -0.1201
  159DOPC   O1219127   5.232   1.171   6.968  0.0403  0.5137  0.4608
  159DOPC   O1119128   5.391   1.109   6.798  0.0888  0.1930  0.6732
  159DOPC    C119129   5.288   1.166   6.711 -1.0196 -0.3583 -0.4502
  159DOPC    HA19130   5.290   1.276   6.720  0.1902 -0.3771 -0.3358
  159DOPC    HB19131   5.187   1.130   6.743  0.1328 -2.6967  0.7969
  159DOPC    C219132   5.307   1.117   6.564  0.1700  0.3083 -0.1419
  159DOPC    HS19133   5.296   1.007   6.561  0.6372  0.2137  1.0432
  159DOPC   O2119134   5.437   1.152   6.506 -0.0691 -0.5880 -0.1673
  159DOPC   C2119135   5.534   1.079   6.543 -0.0967 -0.1341  0.3188
  159DOPC   O2219136   5.528   0.978   6.605  0.4700  0.4031 -0.4275
  159DOPC   C2219137   5.665   1.140   6.497  0.1105  0.2323  0.1603
  159DOPC   H2R19138   5.747   1.085   6.548 -0.4243  0.1178  0.9106
  159DOPC   H2S19139   5.657   1.245   6.530  0.2129 -0.3136  2.0211
  159DOPC    C319140   5.193   1.172   6.481  0.4525  0.0274 -0.1150
  159DOPC    HX19141   5.208   1.282   6.473 -0.9752  0.3387  1.1576
  159DOPC    HY19142   5.091   1.152   6.520  0.4530  2.5767  1.4266
  159DOPC   O3119143   5.195   1.133   6.337 -0.6040 -0.2745 -0.7700
  159DOPC   C3119144   5.159   1.006   6.316  0.1205  0.7343  0.0675
  159DOPC   O3219145   5.104   0.932   6.396  0.5243 -0.3694  0.2178
  159DOPC   C3219146   5.189   0.963   6.170  0.3831 -0.1210 -0.0902
  159DOPC   H2X19147   5.143   1.037   6.101 -1.9503 -2.5583 -1.3358
  159DOPC   H2Y19148   5.299   0.966   6.159  0.4168  0.3367  0.3434
  159DOPC   C2319149   5.692   1.125   6.344  0.8792 -0.3006  0.2096
  159DOPC   H3R19150   5.603   1.162   6.289  1.2661 -0.4346 -0.5100
  159DOPC   H3S19151   5.702   1.016   6.328 -0.8063 -0.1821 -2.2310
  159DOPC   C2419152   5.826   1.188   6.314  0.0027 -0.1330  0.6893
  159DOPC   H4R19153   5.908   1.146   6.377  0.5280 -1.7092 -0.9644
  159DOPC   H4S19154   5.826   1.292   6.351  2.1347 -0.1612  0.9259
  159DOPC   C2519155   5.868   1.187   6.164 -0.3808  0.4869  0.5326
  159DOPC   H5R19156   5.787   1.234   6.104 -1.3801 -0.2503  1.2646
  159DOPC   H5S19157   5.891   1.083   6.133 -0.6989  0.0743  1.6397
  159DOPC   C2619158   5.993   1.273   6.140 -0.3564  0.1976 -0.4942
  159DOPC   H6R19159   6.088   1.233   6.181  0.3865  0.2848 -2.0375
  159DOPC   H6S19160   5.974   1.373   6.184  0.4720 -0.1890  0.7848
  159DOPC   C2719161   6.008   1.306   5.989  0.0801 -0.2259  0.1613
  159DOPC   H7R19162   5.925   1.376   5.964  0.1072  0.7768  2.5701
  159DOPC   H7S19163   5.973   1.222   5.926 -0.0984  1.0143 -1.4743
  159DOPC   C2819164   6.144   1.351   5.942  0.3420 -0.4015 -0.4748
  159DOPC   H8R19165   6.178   1.427   6.016 -2.1707 -1.1083  1.5723
  159DOPC   H8S19166   6.126   1.394   5.842 -1.4423  0.0281 -0.0127
  159DOPC   C2919167   6.241   1.235   5.944  0.1706 -0.3263  0.1434
  159DOPC   H9R19168   6.265   1.186   6.040 -3.1020  0.4949  1.5305
  159DOPC  C21019169   6.307   1.203   5.831 -0.5160  0.6742  0.1713
  159DOPC  H10R19170   6.380   1.121   5.839 -0.5804  0.6484  0.5359
  159DOPC  C21119171   6.299   1.257   5.691  0.2170 -0.1666  0.3330
  159DOPC  H11R19172   6.402   1.282   5.657  0.5221  1.0862  2.0647
  159DOPC  H11S19173   6.253   1.357   5.695 -0.2953 -0.2127 -2.4440
  159DOPC  C21219174   6.225   1.172   5.589 -0.0507 -0.2206  0.8336
  159DOPC  H12R19175   6.126   1.151   5.635 -0.9352  0.9613 -0.4402
  159DOPC  H12S19176   6.281   1.078   5.566 -0.0397 -0.2293  0.8972
  159DOPC  C21319177   6.209   1.246   5.450 -0.5620  0.2515 -1.0630
  159DOPC  H13R19178   6.311   1.272   5.413 -1.0167  0.1195 -2.4775
  159DOPC  H13S19179   6.154   1.342   5.461  0.2253  0.5404  0.7268
  159DOPC  C21419180   6.142   1.166   5.333  0.1297  0.2531 -0.3033
  159DOPC  H14R19181   6.038   1.136   5.359  1.1154 -1.1006  2.4602
  159DOPC  H14S19182   6.201   1.071   5.327  1.9300  1.2506  0.7237
  159DOPC  C21519183   6.144   1.231   5.192 -0.2750  0.2491  0.2689
  159DOPC  H15R19184   6.250   1.259   5.174  0.3334 -1.3499  1.1672
  159DOPC  H15S19185   6.095   1.331   5.183 -0.6400 -0.0447 -1.4797
  159DOPC  C21619186   6.091   1.143   5.079  0.0424 -0.3564  0.8656
  159DOPC  H16R19187   6.001   1.083   5.105 -1.2667  0.9618 -0.4322
  159DOPC  H16S19188   6.172   1.068   5.061  2.3851  2.2566 -0.1302
  159DOPC  C21719189   6.052   1.217   4.956 -0.0892 -0.0001  0.4069
  159DOPC  H17R19190   5.965   1.284   4.974 -0.0590  0.7196 -1.8772
  159DOPC  H17S19191   6.018   1.159   4.868  3.0506 -0.3613 -0.6925
  159DOPC  C21819192   6.178   1.294   4.905  0.7357 -0.2131 -0.0638
  159DOPC  H18R19193   6.173   1.296   4.794  3.2862  0.8943 -0.2463
  159DOPC  H18S19194   6.271   1.233   4.914  0.2603 -1.0873 -0.9308
  159DOPC  H18T19195   6.186   1.400   4.938 -0.0349  0.1428 -0.9884
  159DOPC   C3319196   5.130   0.829   6.142 -0.7245  0.1741 -0.1533
  159DOPC   H3X19197   5.020   0.830   6.158 -0.7410  1.9061 -0.2426
  159DOPC   H3Y19198   5.169   0.750   6.210 -0.1427 -1.2363 -2.0390
  159DOPC   C3419199   5.161   0.771   6.001  0.0657  0.9346  0.3582
  159DOPC   H4X19200   5.097   0.680   5.998 -1.9313  2.3041 -1.4778
  159DOPC   H4Y19201   5.266   0.741   5.981 -0.2139  1.0847 -1.5368
  159DOPC   C3519202   5.110   0.863   5.896 -0.1832  0.0066  0.2111
  159DOPC   H5X19203   5.017   0.915   5.927 -0.0858  1.1254 -1.2137
  159DOPC   H5Y19204   5.076   0.796   5.814 -0.8162 -0.4519  0.8418
  159DOPC   C3619205   5.213   0.974   5.848 -0.7369  0.0537  0.5049
  159DOPC   H6X19206   5.258   1.020   5.938  0.6119  0.1026 -0.1709
  159DOPC   H6Y19207   5.298   0.916   5.806 -1.0355 -0.4724  0.6154
  159DOPC   C3719208   5.153   1.072   5.753 -0.0389  0.0527  0.1577
  159DOPC   H7X19209   5.092   1.147   5.809  1.7737  1.8900 -0.2134
  159DOPC   H7Y19210   5.232   1.129   5.701  0.6959 -0.8146  0.3119
  159DOPC   C3819211   5.064   1.014   5.637  0.3013  0.4664  0.5797
  159DOPC   H8X19212   4.973   0.968   5.681 -0.3714 -0.0134 -1.2448
  159DOPC   H8Y19213   5.120   0.931   5.590 -1.6351  0.0076 -1.0275
  159DOPC   C3919214   5.029   1.113   5.527 -0.3594 -0.3259 -0.3990
  159DOPC   H9X19215   4.968   1.200   5.555  1.0755  1.2653 -1.9252
  159DOPC  C31019216   5.064   1.104   5.400 -0.3798  0.2447 -0.4210
  159DOPC  H10X19217   5.050   1.194   5.339 -3.8582  0.3849  0.4101
  159DOPC  C31119218   5.136   0.991   5.325  0.0119 -0.3095 -0.1868
  159DOPC  H11X19219   5.086   0.971   5.227  2.2536 -0.7786 -1.3116
  159DOPC  H11Y19220   5.138   0.896   5.383  0.1802 -1.1426 -1.5082
  159DOPC  C31219221   5.279   1.032   5.297  0.5883 -0.3586 -1.1752
  159DOPC  H12X19222   5.329   1.054   5.394 -0.0242  2.2791 -1.3798
  159DOPC  H12Y19223   5.286   1.127   5.240 -0.1869 -0.3773 -1.3052
  159DOPC  C31319224   5.359   0.926   5.220  0.0075 -0.2525  0.2346
  159DOPC  H13X19225   5.298   0.908   5.129 -0.8747 -2.4317  1.1954
  159DOPC  H13Y19226   5.451   0.979   5.189 -0.3816  1.2193  1.4828
  159DOPC  C31419227   5.389   0.795   5.296 -0.1462  0.9956 -0.8090
  159DOPC  H14X19228   5.298   0.732   5.306  0.0863  0.5879 -1.2837
  159DOPC  H14Y19229   5.451   0.738   5.225 -0.0962 -0.0496  0.0530
  159DOPC  C31519230   5.472   0.815   5.420 -0.1928  0.3866 -0.1239
  159DOPC  H15X19231   5.423   0.870   5.503  0.7150  1.6046 -0.3658
  159DOPC  H15Y19232   5.560   0.879   5.399 -0.1703  0.5241  0.3757
  159DOPC  C31619233   5.527   0.687   5.482  0.2744 -0.0872  0.4465
  159DOPC  H16X19234   5.460   0.604   5.452 -1.8048  1.0374  1.7735
  159DOPC  H16Y19235   5.618   0.670   5.420  0.3955  0.9154  0.3338
  159DOPC  C31719236   5.560   0.685   5.631  0.5112  0.2109 -0.6334
  159DOPC  H17X19237   5.634   0.607   5.658 -0.4010 -0.4171  0.1514
  159DOPC  H17Y19238   5.621   0.773   5.660 -2.2704  1.4543  2.0815
  159DOPC  C31819239   5.439   0.672   5.717  0.3035 -0.0389 -0.0801
  159DOPC  H18X19240   5.372   0.760   5.701  1.7974  1.5174  1.7335
  159DOPC  H18Y19241   5.387   0.576   5.695  0.2560 -0.0149 -0.0744
  159DOPC  H18Z19242   5.477   0.675   5.822  0.5279  0.9740 -0.1861
  160DOPC     N19243   1.279   5.853   6.944  0.7226  0.1528  0.0969
  160DOPC   C1219244   1.351   5.773   6.834  0.5169 -0.4234  0.0550
  160DOPC  H12A19245   1.286   5.688   6.823  0.5423 -0.4783  0.3268
  160DOPC  H12B19246   1.447   5.746   6.876  1.4128  0.8559 -1.0892
  160DOPC   C1319247   1.289   5.783   7.079  0.1775 -0.5894  0.3959
  160DOPC  H13A19248   1.236   5.851   7.144  2.3354  1.7985 -0.1705
  160DOPC  H13B19249   1.244   5.684   7.079 -0.5074 -0.3133 -1.0417
  160DOPC  H13C19250   1.387   5.781   7.125  1.3136  3.1837 -1.4647
  160DOPC   C1419251   1.127   5.845   6.907 -0.6711 -0.2925 -0.5228
  160DOPC  H14A19252   1.069   5.902   6.978 -0.9212 -1.1058 -0.0609
  160DOPC  H14B19253   1.103   5.885   6.810  0.3366 -1.7298 -1.4080
  160DOPC  H14C19254   1.090   5.744   6.916 -1.1104 -0.2156 -1.3633
  160DOPC   C1519255   1.317   5.990   6.957 -0.2798  0.8140  0.4402
  160DOPC  H15A19256   1.261   6.049   7.028  0.7170  0.6953  1.3456
  160DOPC  H15B19257   1.313   6.059   6.874 -2.2087  0.4457  0.1758
  160DOPC  H15C19258   1.419   6.008   6.990  0.5957 -0.2675 -1.4982
  160DOPC   C1119259   1.365   5.831   6.695  0.4639  0.1303 -0.3393
  160DOPC  H11A19260   1.263   5.845   6.653  0.2411  0.2112  0.2319
  160DOPC  H11B19261   1.419   5.927   6.702 -0.0206  0.3063  1.2275
  160DOPC     P19262   1.589   5.718   6.640  0.2148  0.0283 -0.3028
  160DOPC   O1319263   1.630   5.595   6.564  0.4768 -0.6614 -0.4970
  160DOPC   O1419264   1.629   5.728   6.782 -0.3890  0.1578 -0.0549
  160DOPC   O1219265   1.426   5.729   6.625 -0.6346 -0.3132  0.4944
  160DOPC   O1119266   1.642   5.847   6.569 -0.3864  0.3771  0.3879
  160DOPC    C119267   1.583   5.895   6.451 -0.1609 -0.5740 -0.4104
  160DOPC    HA19268   1.476   5.922   6.464  0.7083  3.2115  0.1604
  160DOPC    HB19269   1.608   5.821   6.372 -0.4591 -3.5489  2.0970
  160DOPC    C219270   1.647   6.030   6.410 -0.5626  0.3913  0.5220
  160DOPC    HS19271   1.614   6.115   6.473  0.0406  2.6211 -1.9810
  160DOPC   O2119272   1.612   6.046   6.277 -0.1559 -0.4554  0.2593
  160DOPC   C2119273   1.591   6.167   6.216  0.3359  0.3764 -0.1770
  160DOPC   O2219274   1.608   6.273   6.269 -0.3165 -0.1898  0.1030
  160DOPC   C2219275   1.557   6.138   6.064 -0.2375 -0.3234 -0.2513
  160DOPC   H2R19276   1.463   6.081   6.052  0.3936 -1.0555 -2.2053
  160DOPC   H2S19277   1.632   6.066   6.024 -0.5329 -1.7318  1.6211
  160DOPC    C319278   1.802   6.029   6.417  0.2000  0.0608 -0.4911
  160DOPC    HX19279   1.835   5.928   6.383 -1.8653 -0.8664  0.0791
  160DOPC    HY19280   1.833   6.033   6.524  1.7509 -2.4918 -0.7632
  160DOPC   O3119281   1.869   6.136   6.341 -0.2992 -0.0937 -0.7630
  160DOPC   C3119282   2.004   6.116   6.321 -0.2672 -0.0606  0.3004
  160DOPC   O3219283   2.071   6.022   6.357 -0.0605  0.0168  0.0686
  160DOPC   C3219284   2.060   6.232   6.239  0.4939  0.2145  0.0256
  160DOPC   H2X19285   2.052   6.322   6.303 -0.5760 -2.0273  3.3435
  160DOPC   H2Y19286   2.169   6.223   6.222  1.0476  0.6814  2.8003
  160DOPC   C2319287   1.538   6.265   5.968 -0.9877  0.8168  0.1961
  160DOPC   H3R19288   1.642   6.305   5.963 -1.0366  1.6245  3.5806
  160DOPC   H3S19289   1.467   6.334   6.018 -1.2466  0.0871  0.8648
  160DOPC   C2419290   1.491   6.223   5.830  0.2973  0.4202 -0.2975
  160DOPC   H4R19291   1.385   6.192   5.841  0.8288 -0.8018  2.1718
  160DOPC   H4S19292   1.551   6.136   5.797 -1.1875 -0.6194 -0.3577
  160DOPC   C2519293   1.500   6.330   5.721 -0.6299  0.3562 -0.0095
  160DOPC   H5R19294   1.602   6.374   5.711  0.0602 -1.5761 -2.5390
  160DOPC   H5S19295   1.434   6.413   5.752  0.3196  1.3322 -0.5243
  160DOPC   C2619296   1.456   6.278   5.579 -0.9376 -0.5447 -0.0754
  160DOPC   H6R19297   1.348   6.252   5.588 -0.6680 -2.0379 -0.9299
  160DOPC   H6S19298   1.519   6.191   5.552 -1.2767 -0.7680 -0.1510
  160DOPC   C2719299   1.474   6.382   5.469  0.3443 -0.9136 -0.8507
  160DOPC   H7R19300   1.577   6.418   5.487 -0.2431  1.5682 -2.0136
  160DOPC   H7S19301   1.406   6.463   5.505 -0.4957 -2.2772  0.7701
  160DOPC   C2819302   1.450   6.346   5.320  0.7466  0.0128 -0.2808
  160DOPC   H8R19303   1.519   6.265   5.289  0.9772  0.3543 -0.6706
  160DOPC   H8S19304   1.483   6.430   5.256 -1.7919  1.3662  0.0652
  160DOPC   C2919305   1.308   6.298   5.293  0.0940 -0.1694 -0.0008
  160DOPC   H9R19306   1.269   6.219   5.358 -0.5883 -1.1261 -1.5094
  160DOPC  C21019307   1.240   6.331   5.178  0.9361  0.6079 -0.5361
  160DOPC  H10R19308   1.145   6.282   5.153  0.5308  1.7349 -1.2640
  160DOPC  C21119309   1.300   6.415   5.070 -0.0644 -0.0874  0.5447
  160DOPC  H11R19310   1.371   6.490   5.110 -0.2508  1.4908 -1.9224
  160DOPC  H11S19311   1.211   6.472   5.034  0.4475  0.7747  0.6220
  160DOPC  C21219312   1.358   6.330   4.952 -0.5943 -0.5952 -0.4805
  160DOPC  H12R19313   1.277   6.270   4.906 -0.6673  0.2240 -1.4894
  160DOPC  H12S19314   1.438   6.270   5.000 -1.5192 -3.6731 -2.5099
  160DOPC  C21319315   1.416   6.419   4.844  0.3516  0.5265  0.2502
  160DOPC  H13R19316   1.486   6.363   4.778  0.7083  0.8614  0.3421
  160DOPC  H13S19317   1.465   6.498   4.905 -0.0471  0.7826  0.2454
  160DOPC  C21419318   1.302   6.474   4.757 -0.3095  0.3713  0.5020
  160DOPC  H14R19319   1.343   6.555   4.694 -0.7500  1.7551  1.9518
  160DOPC  H14S19320   1.232   6.513   4.834  0.6575  2.0929  0.5370
  160DOPC  C21519321   1.220   6.367   4.678 -0.9773  0.0191  0.1981
  160DOPC  H15R19322   1.128   6.425   4.656 -0.3783  2.1341  2.6758
  160DOPC  H15S19323   1.198   6.276   4.737 -0.4302  0.4896  1.1679
  160DOPC  C21619324   1.295   6.319   4.549  0.1027 -0.0583  0.8976
  160DOPC  H16R19325   1.405   6.309   4.557  0.1458  0.3836  0.8749
  160DOPC  H16S19326   1.285   6.405   4.479  2.6727 -0.8102 -0.5348
  160DOPC  C21719327   1.239   6.188   4.506 -0.3241 -0.1844  0.3124
  160DOPC  H17R19328   1.128   6.198   4.508 -0.5243 -1.7600 -0.5286
  160DOPC  H17S19329   1.278   6.112   4.577  0.4537  1.5357  1.7969
  160DOPC  C21819330   1.281   6.144   4.369  0.3893 -0.4683  0.5325
  160DOPC  H18R19331   1.262   6.035   4.358 -0.9704 -0.1851 -0.1924
  160DOPC  H18S19332   1.391   6.145   4.351  0.2109 -1.2971 -0.7225
  160DOPC  H18T19333   1.220   6.200   4.294 -1.5427 -2.0412  0.8738
  160DOPC   C3319334   1.983   6.267   6.111 -0.3020 -0.5251  0.2311
  160DOPC   H3X19335   2.025   6.354   6.056 -1.3801 -0.1362  0.0088
  160DOPC   H3Y19336   1.882   6.302   6.140 -0.2592  0.3089 -0.5971
  160DOPC   C3419337   1.966   6.150   6.016 -0.4887  0.4415  0.1211
  160DOPC   H4X19338   1.882   6.088   6.054  1.4703 -1.5872  1.3791
  160DOPC   H4Y19339   2.064   6.097   6.020 -1.0512 -0.5675  0.8526
  160DOPC   C3519340   1.941   6.186   5.869 -0.3260  0.0077 -0.4047
  160DOPC   H5X19341   2.023   6.253   5.835  0.8223  0.5738  3.1572
  160DOPC   H5Y19342   1.848   6.246   5.855  0.2708  0.7342 -1.3475
  160DOPC   C3619343   1.923   6.072   5.764 -0.4154  0.4227  0.1302
  160DOPC   H6X19344   2.022   6.030   5.736 -0.9803 -0.9580  0.1403
  160DOPC   H6Y19345   1.868   5.995   5.823  1.4449 -0.1731  1.1887
  160DOPC   C3719346   1.849   6.126   5.634 -0.5361  0.1978  0.2513
  160DOPC   H7X19347   1.840   6.040   5.565 -0.3453  0.2449  0.1656
  160DOPC   H7Y19348   1.747   6.162   5.657 -0.0830  1.6396  0.0960
  160DOPC   C3819349   1.927   6.236   5.560  0.3701 -0.7486  0.1308
  160DOPC   H8X19350   2.032   6.211   5.536  0.6690  1.3377 -1.0152
  160DOPC   H8Y19351   1.928   6.324   5.628  0.8233  1.0220 -2.0307
  160DOPC   C3919352   1.862   6.291   5.438 -0.6621 -0.2824  0.7673
  160DOPC   H9X19353   1.790   6.373   5.456 -0.8650  0.1844 -1.7325
  160DOPC  C31019354   1.867   6.239   5.315 -0.9652  0.4372  0.5172
  160DOPC  H10X19355   1.795   6.276   5.240  0.1095  1.4599 -0.0380
  160DOPC  C31119356   1.940   6.110   5.277  1.0043  0.0231 -0.6069
  160DOPC  H11X19357   1.860   6.034   5.267 -1.0629  1.9604  0.4392
  160DOPC  H11Y19358   2.019   6.073   5.347 -1.3160  0.7340  2.6425
  160DOPC  C31219359   2.004   6.115   5.132 -0.4062 -0.2650 -0.4717
  160DOPC  H12X19360   1.924   6.136   5.058 -2.0056 -0.1122  1.2605
  160DOPC  H12Y19361   2.034   6.009   5.114 -0.3910 -0.6096  1.3781
  160DOPC  C31319362   2.132   6.202   5.131  0.1384 -0.2576  0.4824
  160DOPC  H13X19363   2.111   6.311   5.139 -1.6941 -0.6885  2.5169
  160DOPC  H13Y19364   2.194   6.171   5.217  1.0993 -0.0410 -0.1137
  160DOPC  C31419365   2.216   6.196   5.001 -0.2429 -0.4939 -0.3000
  160DOPC  H14X19366   2.225   6.086   4.983 -1.0802 -0.9146  1.6134
  160DOPC  H14Y19367   2.148   6.244   4.927 -0.4073  1.7583  1.2178
  160DOPC  C31519368   2.340   6.278   5.004 -0.4204  0.1989  0.5196
  160DOPC  H15X19369   2.385   6.277   5.105 -1.0286 -1.5393  0.8076
  160DOPC  H15Y19370   2.314   6.385   4.989 -0.4978  0.1136  0.0302
  160DOPC  C31619371   2.443   6.235   4.900 -0.5430 -0.1442 -0.0798
  160DOPC  H16X19372   2.455   6.125   4.910  0.2429 -0.0466  0.1612
  160DOPC  H16Y19373   2.397   6.252   4.801  1.7051 -0.3055 -1.2147
  160DOPC  C31719374   2.574   6.303   4.907 -0.1722 -0.5950 -0.8799
  160DOPC  H17X19375   2.559   6.394   4.846 -1.9447 -1.6329 -2.0844
  160DOPC  H17Y19376   2.596   6.334   5.012  0.8247 -1.1045 -0.9241
  160DOPC  C31819377   2.679   6.221   4.844 -0.1617 -0.3328  0.4994
  160DOPC  H18X19378   2.650   6.199   4.739 -1.1620  0.4030  0.6115
  160DOPC  H18Y19379   2.778   6.271   4.850 -0.3169 -0.1628  3.4602
  160DOPC  H18Z19380   2.692   6.127   4.903  0.2981 -0.3217  0.4207
  161DOPC     N19381   1.933   0.724   7.564  0.4016  0.2984  0.3785
  161DOPC   C1219382   1.946   0.724   7.411  0.2149 -0.3314 -0.3577
  161DOPC  H12A19383   1.943   0.825   7.373 -0.0909 -1.5502 -3.9502
  161DOPC  H12B19384   1.852   0.689   7.369  0.7214 -0.3838 -1.4849
  161DOPC   C1319385   2.064   0.762   7.626  0.2528 -0.6165  0.0829
  161DOPC  H13A19386   2.035   0.779   7.728 -1.6907  0.4298 -0.6032
  161DOPC  H13B19387   2.143   0.689   7.617  1.4575  0.5627  0.8236
  161DOPC  H13C19388   2.100   0.860   7.600  0.3124 -0.3587  1.0957
  161DOPC   C1419389   1.896   0.585   7.608  0.7536 -0.2525 -0.6053
  161DOPC  H14A19390   1.943   0.511   7.545  0.2869 -1.5926  0.5624
  161DOPC  H14B19391   1.914   0.570   7.713  1.0014 -1.3084 -0.7922
  161DOPC  H14C19392   1.789   0.575   7.597  0.2902  0.9313  1.9637
  161DOPC   C1519393   1.828   0.820   7.607  0.2466  0.1702 -0.7585
  161DOPC  H15A19394   1.731   0.810   7.560  0.6597 -0.6589 -1.4489
  161DOPC  H15B19395   1.864   0.922   7.595  0.5158 -0.0583 -2.0668
  161DOPC  H15C19396   1.809   0.797   7.711 -1.3089  3.6165 -0.1305
  161DOPC   C1119397   2.046   0.637   7.343 -0.2229  0.9777  0.0592
  161DOPC  H11A19398   2.053   0.662   7.235  0.8225 -3.6390 -1.1772
  161DOPC  H11B19399   2.144   0.659   7.392 -1.1032  1.2934  1.7493
  161DOPC     P19400   1.917   0.411   7.268 -0.1490  0.2655 -0.1452
  161DOPC   O1319401   1.792   0.486   7.242 -0.0930 -0.6808 -0.3883
  161DOPC   O1419402   1.907   0.274   7.319 -0.1113  0.3490  0.0705
  161DOPC   O1219403   2.014   0.495   7.352 -0.5453  0.2908  0.2016
  161DOPC   O1119404   1.995   0.399   7.133  0.5114  0.5972  0.3045
  161DOPC    C119405   2.130   0.338   7.127  0.7092  0.5439  0.0539
  161DOPC    HA19406   2.128   0.281   7.032  1.2872 -1.5997  1.2640
  161DOPC    HB19407   2.147   0.273   7.215  0.5185  2.8711  1.8997
  161DOPC    C219408   2.241   0.439   7.119 -0.3039  0.5730 -0.1978
  161DOPC    HS19409   2.240   0.493   7.216  2.7976 -0.4756  0.5121
  161DOPC   O2119410   2.228   0.522   7.002  0.4407 -0.6205 -0.9657
  161DOPC   C2119411   2.286   0.641   7.012  0.1272  0.4641  0.9061
  161DOPC   O2219412   2.330   0.688   7.112  0.1324 -0.3304  0.4503
  161DOPC   C2219413   2.299   0.693   6.869 -0.2442 -0.0316 -0.2274
  161DOPC   H2R19414   2.315   0.801   6.890 -0.4928  0.0276 -0.3470
  161DOPC   H2S19415   2.207   0.667   6.813  0.7602 -0.2532 -1.8605
  161DOPC    C319416   2.380   0.364   7.121 -0.4386 -0.2029  0.2101
  161DOPC    HX19417   2.383   0.311   7.219  0.5362  0.9527  0.8147
  161DOPC    HY19418   2.461   0.438   7.108 -0.5447 -0.2803 -0.9599
  161DOPC   O3119419   2.387   0.262   7.024  0.1853 -0.2803  0.6819
  161DOPC   C3119420   2.493   0.240   6.947 -0.1056  0.2307  0.5747
  161DOPC   O3219421   2.604   0.287   6.962 -0.2983 -0.5520  0.2000
  161DOPC   C3219422   2.457   0.167   6.819  0.5893  0.0827  0.6181
  161DOPC   H2X19423   2.502   0.067   6.836 -2.0611 -1.1545  0.8457
  161DOPC   H2Y19424   2.347   0.153   6.804  0.5761 -0.1579  0.9461
  161DOPC   C2319425   2.420   0.636   6.791  0.0716 -0.3032  0.2236
  161DOPC   H3R19426   2.417   0.526   6.801  2.0057 -0.2553  1.7839
  161DOPC   H3S19427   2.511   0.675   6.841  2.3635 -1.2785 -2.8577
  161DOPC   C2419428   2.438   0.697   6.655  0.2650  0.3126  0.5696
  161DOPC   H4R19429   2.452   0.806   6.674 -1.3338  0.3329  1.8274
  161DOPC   H4S19430   2.335   0.679   6.617  1.0212 -2.4426 -0.3866
  161DOPC   C2519431   2.546   0.630   6.580 -0.1887  0.2448 -0.4112
  161DOPC   H5R19432   2.537   0.519   6.584  0.7512  0.1864  0.3019
  161DOPC   H5S19433   2.639   0.656   6.634 -2.1571  2.1898  2.3145
  161DOPC   C2619434   2.565   0.686   6.439  0.1745 -0.3653 -0.2553
  161DOPC   H6R19435   2.576   0.797   6.447  1.9789 -0.5085 -0.3390
  161DOPC   H6S19436   2.468   0.682   6.385  0.0439  0.3127 -0.0863
  161DOPC   C2719437   2.684   0.622   6.361 -0.5788  0.6035  0.2480
  161DOPC   H7R19438   2.652   0.525   6.316 -1.5731  0.5217  1.0818
  161DOPC   H7S19439   2.761   0.596   6.438 -0.9207 -2.3216 -0.2806
  161DOPC   C2819440   2.737   0.722   6.251  0.3642 -0.6538 -0.5212
  161DOPC   H8R19441   2.832   0.676   6.215  1.4205  1.0542  0.0144
  161DOPC   H8S19442   2.767   0.802   6.321  1.7096 -1.4136 -0.1989
  161DOPC   C2919443   2.632   0.755   6.146 -0.2079 -1.2269 -0.1350
  161DOPC   H9R19444   2.531   0.769   6.188 -0.9126 -1.7213 -1.5775
  161DOPC  C21019445   2.642   0.735   6.016 -0.4523 -0.1896  0.2077
  161DOPC  H10R19446   2.552   0.753   5.957  0.0072 -1.2789 -0.8726
  161DOPC  C21119447   2.764   0.698   5.929 -0.2019  0.5079 -0.5091
  161DOPC  H11R19448   2.718   0.623   5.862 -0.2966  2.2497 -2.5048
  161DOPC  H11S19449   2.852   0.659   5.985 -0.6931  0.6090  0.3567
  161DOPC  C21219450   2.809   0.824   5.852  0.4471 -0.8091 -0.4610
  161DOPC  H12R19451   2.896   0.796   5.789 -0.6915 -2.7349 -1.2748
  161DOPC  H12S19452   2.841   0.907   5.918  2.8770 -1.9083 -0.1649
  161DOPC  C21319453   2.705   0.892   5.759  0.0636 -0.5631 -0.0016
  161DOPC  H13R19454   2.739   0.984   5.707 -1.4994  0.3262  0.4849
  161DOPC  H13S19455   2.622   0.925   5.824 -0.5087 -0.4074 -0.8009
  161DOPC  C21419456   2.657   0.801   5.648  0.0790  0.1059  0.2971
  161DOPC  H14R19457   2.583   0.723   5.677  1.3321 -1.3656 -0.2536
  161DOPC  H14S19458   2.743   0.745   5.604  0.6238  0.2814  1.1091
  161DOPC  C21519459   2.596   0.894   5.533 -0.0263 -0.4264 -0.7548
  161DOPC  H15R19460   2.659   0.980   5.500 -2.9787  1.8423 -0.8375
  161DOPC  H15S19461   2.505   0.936   5.579  0.5778 -0.7191  0.7770
  161DOPC  C21619462   2.554   0.805   5.416  0.7580  0.0022  0.3978
  161DOPC  H16R19463   2.473   0.736   5.445 -0.7604  1.3803 -0.3906
  161DOPC  H16S19464   2.634   0.739   5.377  0.4967  0.7308 -1.5224
  161DOPC  C21719465   2.510   0.885   5.298  0.1502 -0.6363 -0.0900
  161DOPC  H17R19466   2.589   0.939   5.241 -1.8472  2.4793 -0.1298
  161DOPC  H17S19467   2.451   0.967   5.342 -2.5417 -2.9195  0.8685
  161DOPC  C21819468   2.432   0.806   5.200 -0.5376 -0.2033  0.6827
  161DOPC  H18R19469   2.495   0.731   5.149 -1.0858 -1.5103  1.8526
  161DOPC  H18S19470   2.401   0.868   5.113 -0.1820  0.8844  1.3176
  161DOPC  H18T19471   2.352   0.747   5.249  0.1238  1.4252  4.0202
  161DOPC   C3319472   2.517   0.243   6.692  0.4476 -0.2620 -0.3194
  161DOPC   H3X19473   2.620   0.202   6.687 -0.3033 -2.6441  1.7445
  161DOPC   H3Y19474   2.534   0.351   6.712 -1.4310  0.8411 -3.8001
  161DOPC   C3419475   2.449   0.225   6.559 -0.3568  0.6872  0.2992
  161DOPC   H4X19476   2.489   0.300   6.487  0.6604  0.4302  0.5795
  161DOPC   H4Y19477   2.343   0.258   6.571  0.0343  1.4093  2.0172
  161DOPC   C3519478   2.461   0.086   6.486 -0.1693 -1.0512 -0.7014
  161DOPC   H5X19479   2.423   0.011   6.559 -2.5741  0.3438 -0.4102
  161DOPC   H5Y19480   2.569   0.074   6.466  0.6113  2.9377  0.2168
  161DOPC   C3619481   2.382   0.076   6.356  0.2330 -0.3376 -0.3025
  161DOPC   H6X19482   2.276   0.098   6.381  1.0513  1.3309  2.0225
  161DOPC   H6Y19483   2.421   0.156   6.290  1.6542  1.2901  2.3271
  161DOPC   C3719484   2.392  -0.057   6.286  0.3486  0.7786  0.3616
  161DOPC   H7X19485   2.474  -0.050   6.210  0.2730  1.9833  0.3679
  161DOPC   H7Y19486   2.424  -0.135   6.359  2.0822  0.1719 -0.9596
  161DOPC   C3819487   2.263  -0.106   6.222 -0.5606  0.0760  0.0717
  161DOPC   H8X19488   2.194  -0.113   6.308  2.6823 -4.3388  2.7417
  161DOPC   H8Y19489   2.264  -0.212   6.191  1.1835  0.3232 -0.8759
  161DOPC   C3919490   2.217  -0.014   6.110  0.2295 -0.0327  0.3387
  161DOPC   H9X19491   2.144   0.061   6.142 -0.0721  0.6067 -1.7289
  161DOPC  C31019492   2.250  -0.016   5.977  0.4345 -0.1159 -0.0585
  161DOPC  H10X19493   2.199   0.057   5.913 -0.5084  0.4337  1.2565
  161DOPC  C31119494   2.338  -0.118   5.902 -0.2695 -0.8742 -0.5229
  161DOPC  H11X19495   2.265  -0.190   5.859 -2.0099  0.1413  0.5779
  161DOPC  H11Y19496   2.406  -0.182   5.963  0.3636 -1.5572 -1.9096
  161DOPC  C31219497   2.432  -0.060   5.800  0.1325 -0.5953  0.3370
  161DOPC  H12X19498   2.484  -0.143   5.747  0.9154  1.2234 -1.8984
  161DOPC  H12Y19499   2.520  -0.004   5.837  0.2273 -0.5311  0.0137
  161DOPC  C31319500   2.355   0.017   5.687  0.4321 -0.3283 -0.3940
  161DOPC  H13X19501   2.251  -0.020   5.696  0.4115  0.1498  2.2812
  161DOPC  H13Y19502   2.357   0.123   5.719 -0.0920 -0.8442  1.4538
  161DOPC  C31419503   2.403  -0.003   5.545 -0.0203 -0.6377  0.4097
  161DOPC  H14X19504   2.504   0.031   5.515  0.7956 -1.2619  2.3098
  161DOPC  H14Y19505   2.398  -0.113   5.531 -0.4715 -0.7364  1.2637
  161DOPC  C31519506   2.306   0.058   5.449 -0.2183 -0.3775  0.0023
  161DOPC  H15X19507   2.319   0.168   5.439  0.7061 -0.6506 -2.4103
  161DOPC  H15Y19508   2.202   0.045   5.485 -0.0309  0.0640  0.7204
  161DOPC  C31619509   2.325   0.007   5.305  0.7700  0.0266 -0.7425
  161DOPC  H16X19510   2.419   0.055   5.271  0.3158  0.6302 -1.1578
  161DOPC  H16Y19511   2.331  -0.103   5.316 -2.1581 -0.1051  0.7657
  161DOPC  C31719512   2.218   0.057   5.212  0.1673  0.0800 -0.1547
  161DOPC  H17X19513   2.125   0.001   5.237 -0.0741  0.8854  0.8321
  161DOPC  H17Y19514   2.209   0.167   5.225 -0.4092  0.3082 -2.1329
  161DOPC  C31819515   2.251   0.035   5.066 -0.5799 -0.5375  0.4701
  161DOPC  H18X19516   2.179   0.077   4.992  1.3873 -0.1945 -1.3288
  161DOPC  H18Y19517   2.352   0.079   5.056 -0.8158  0.6074  2.5881
  161DOPC  H18Z19518   2.264  -0.075   5.066 -1.6289 -0.6820 -0.6179
  162DOPC     N19519   2.893   5.735   7.167  0.1052 -0.3562  0.2675
  162DOPC   C1219520   2.832   5.869   7.196  0.1284 -0.8032  0.5266
  162DOPC  H12A19521   2.879   5.916   7.282  0.7947  0.7672 -0.6354
  162DOPC  H12B19522   2.728   5.851   7.216 -1.3238 -0.4204 -4.9601
  162DOPC   C1319523   2.848   5.682   7.033 -0.0551  0.5461  0.3661
  162DOPC  H13A19524   2.867   5.758   6.958  0.0452  0.3730  0.2180
  162DOPC  H13B19525   2.895   5.586   7.017 -0.8306  0.1629  0.3392
  162DOPC  H13C19526   2.741   5.666   7.036  0.2506 -1.7563  0.7930
  162DOPC   C1419527   2.844   5.644   7.275  0.1362 -0.0616  0.4034
  162DOPC  H14A19528   2.901   5.643   7.367  1.7479 -1.1198 -0.5508
  162DOPC  H14B19529   2.738   5.650   7.293 -0.4062 -2.1239 -1.5919
  162DOPC  H14C19530   2.853   5.545   7.232  0.5041  0.8316 -1.6847
  162DOPC   C1519531   3.043   5.742   7.163 -0.3813  0.1621  0.1613
  162DOPC  H15A19532   3.074   5.770   7.263 -0.7751 -0.2930  0.4134
  162DOPC  H15B19533   3.087   5.811   7.092  1.4180  0.5196  1.5507
  162DOPC  H15C19534   3.084   5.643   7.157 -0.8438 -0.2286  2.5134
  162DOPC   C1119535   2.827   5.971   7.082 -0.4305 -0.0435  0.0066
  162DOPC  H11A19536   2.744   5.940   7.016  0.9724 -1.3433 -1.2352
  162DOPC  H11B19537   2.798   6.074   7.112 -3.0419 -0.4236 -1.0039
  162DOPC     P19538   2.949   6.023   6.851 -0.1176  0.0333  0.0965
  162DOPC   O1319539   3.089   6.023   6.800 -0.0025  0.3412 -0.3485
  162DOPC   O1419540   2.875   6.145   6.821 -0.2445  0.0622  0.0766
  162DOPC   O1219541   2.949   5.990   7.003  0.6506  0.3462 -0.3963
  162DOPC   O1119542   2.861   5.895   6.795 -0.2035  0.2240  0.2772
  162DOPC    C119543   2.914   5.802   6.706  0.2222 -0.4110 -0.9368
  162DOPC    HA19544   2.848   5.713   6.710 -0.8464  0.3273 -1.7293
  162DOPC    HB19545   3.022   5.779   6.718  1.0528  2.1810 -2.6644
  162DOPC    C219546   2.898   5.845   6.561  0.3712  0.2026  1.1451
  162DOPC    HS19547   2.937   5.948   6.548  1.2740 -0.0215  1.9981
  162DOPC   O2119548   2.756   5.839   6.531  0.1201 -0.5614 -0.1588
  162DOPC   C2119549   2.697   5.943   6.479  0.3736 -0.7555 -0.1171
  162DOPC   O2219550   2.749   6.052   6.455 -0.2252 -0.1451  0.3565
  162DOPC   C2219551   2.548   5.913   6.456 -0.1216  0.0732  0.1828
  162DOPC   H2R19552   2.498   5.922   6.555  2.0941 -2.9158  1.7248
  162DOPC   H2S19553   2.538   5.807   6.422 -0.1981  0.1726 -0.1055
  162DOPC    C319554   2.967   5.743   6.465 -0.1591 -0.6692  0.0961
  162DOPC    HX19555   2.927   5.640   6.474 -0.1034 -0.6037  1.2672
  162DOPC    HY19556   3.073   5.728   6.493 -0.0403 -3.0885 -1.3800
  162DOPC   O3119557   2.969   5.804   6.334 -0.2361 -0.3858 -0.7336
  162DOPC   C3119558   3.031   5.719   6.247  0.1237 -0.0726 -0.2820
  162DOPC   O3219559   3.063   5.604   6.279 -0.2405  0.6828 -0.2374
  162DOPC   C3219560   3.036   5.775   6.109 -0.2965  0.0086  0.3217
  162DOPC   H2X19561   3.144   5.796   6.093 -1.0111  3.0285 -1.2883
  162DOPC   H2Y19562   3.016   5.691   6.039  0.0129 -0.8421  1.2210
  162DOPC   C2319563   2.492   5.995   6.345 -0.0844 -0.4133  0.8160
  162DOPC   H3R19564   2.542   6.093   6.361  1.6635 -1.4835  2.4122
  162DOPC   H3S19565   2.383   6.012   6.348 -0.0173  1.0407 -1.9465
  162DOPC   C2419566   2.522   5.935   6.205 -0.5195 -0.1965 -0.8297
  162DOPC   H4R19567   2.509   5.825   6.207 -0.0791 -0.3995 -4.2346
  162DOPC   H4S19568   2.627   5.967   6.195 -0.4805  0.8712  1.9854
  162DOPC   C2519569   2.443   6.007   6.096 -0.7276 -0.1497  0.0432
  162DOPC   H5R19570   2.464   6.116   6.098 -0.8410 -0.0042 -2.7873
  162DOPC   H5S19571   2.334   5.998   6.114 -0.7083 -1.2137 -0.2752
  162DOPC   C2619572   2.486   5.956   5.955  0.6813 -0.4222 -0.1816
  162DOPC   H6R19573   2.467   5.849   5.931  4.3670 -1.4761  0.9169
  162DOPC   H6S19574   2.597   5.958   5.948  0.7583  4.7921 -0.7031
  162DOPC   C2719575   2.430   6.035   5.840 -0.5585 -0.0247  0.1676
  162DOPC   H7R19576   2.475   6.136   5.845  1.8141 -1.0011  0.0226
  162DOPC   H7S19577   2.319   6.035   5.840 -0.5605 -0.0738 -0.0461
  162DOPC   C2819578   2.467   5.974   5.704  0.6258  0.3959  0.8483
  162DOPC   H8R19579   2.385   5.901   5.683  1.9682 -1.0685  0.4827
  162DOPC   H8S19580   2.562   5.917   5.713  0.8361  0.8758  1.6930
  162DOPC   C2919581   2.468   6.079   5.593 -0.3842 -0.2764  0.0057
  162DOPC   H9R19582   2.526   6.170   5.611  0.9332  0.1007 -4.7202
  162DOPC  C21019583   2.429   6.063   5.464  0.7353  0.2036  0.6169
  162DOPC  H10R19584   2.449   6.141   5.389  1.6650 -0.9398 -0.3739
  162DOPC  C21119585   2.348   5.946   5.412 -0.3005 -0.5395  0.2194
  162DOPC  H11R19586   2.242   5.980   5.414 -0.9392 -1.8423 -3.6398
  162DOPC  H11S19587   2.356   5.852   5.469  1.4894 -0.3433  0.3458
  162DOPC  C21219588   2.385   5.928   5.261  0.3853  0.3386  0.1717
  162DOPC  H12R19589   2.358   6.029   5.221  1.9364  0.8672  0.4132
  162DOPC  H12S19590   2.314   5.858   5.211 -1.9174  2.4469  0.3024
  162DOPC  C21319591   2.530   5.876   5.234  0.2806 -0.0853  0.7797
  162DOPC  H13R19592   2.537   5.776   5.282 -2.0578  0.0017  1.3874
  162DOPC  H13S19593   2.587   5.946   5.300 -0.0893 -1.6695  2.9029
  162DOPC  C21419594   2.578   5.881   5.093 -0.2258 -0.6353  0.0996
  162DOPC  H14R19595   2.687   5.865   5.093 -0.3264 -1.7248 -2.1359
  162DOPC  H14S19596   2.567   5.983   5.050  1.3568 -1.6576 -3.0459
  162DOPC  C21519597   2.516   5.769   5.000  0.7489 -0.5202 -0.4663
  162DOPC  H15R19598   2.414   5.753   5.040  0.6953  0.6200 -0.0960
  162DOPC  H15S19599   2.549   5.666   5.027  1.0087 -0.0809  0.9829
  162DOPC  C21619600   2.526   5.811   4.854 -0.2259 -0.1039 -0.2497
  162DOPC  H16R19601   2.501   5.919   4.845  1.4136  0.4450  1.2908
  162DOPC  H16S19602   2.459   5.747   4.792 -0.2625 -2.0075  1.6208
  162DOPC  C21719603   2.668   5.793   4.795  0.2051  0.3176 -0.5492
  162DOPC  H17R19604   2.683   5.683   4.787  1.2641  0.3533  0.6884
  162DOPC  H17S19605   2.753   5.850   4.839  0.4159 -1.9825  2.2908
  162DOPC  C21819606   2.680   5.849   4.651  0.1780  0.0422 -0.4146
  162DOPC  H18R19607   2.785   5.854   4.615 -0.3028  1.6729 -1.7289
  162DOPC  H18S19608   2.647   5.956   4.652  1.7604  0.5791 -1.6182
  162DOPC  H18T19609   2.611   5.787   4.590  0.7306 -2.7363  1.6238
  162DOPC   C3319610   2.933   5.892   6.078 -0.0589  0.3042  0.0420
  162DOPC   H3X19611   2.971   5.987   6.121  1.4993 -0.4814  0.4750
  162DOPC   H3Y19612   2.835   5.869   6.126  0.0407  0.2248  0.2097
  162DOPC   C3419613   2.896   5.911   5.929  0.1165  0.8576 -0.2496
  162DOPC   H4X19614   2.821   5.994   5.934 -0.1684  0.5864 -0.0100
  162DOPC   H4Y19615   2.851   5.818   5.889  1.1064 -0.0646  0.7328
  162DOPC   C3519616   3.008   5.963   5.836 -0.3242 -0.1616 -0.2254
  162DOPC   H5X19617   3.083   5.881   5.836  1.2427  1.1906 -1.5294
  162DOPC   H5Y19618   3.051   6.045   5.898 -0.1284  0.1472 -0.7628
  162DOPC   C3619619   2.979   6.010   5.691  0.7844  0.9868 -0.4765
  162DOPC   H6X19620   2.908   5.938   5.646 -0.3915  0.9120  1.3936
  162DOPC   H6Y19621   2.938   6.113   5.694 -0.5047  0.4801  0.7468
  162DOPC   C3719622   3.105   6.015   5.607  0.1783  0.5590  0.6343
  162DOPC   H7X19623   3.182   6.085   5.647  2.5272 -1.0303 -0.8609
  162DOPC   H7Y19624   3.167   5.922   5.602  0.6649  0.8756  0.6616
  162DOPC   C3819625   3.077   6.057   5.465 -0.3653 -0.4047  0.3812
  162DOPC   H8X19626   3.168   6.056   5.402  0.4127 -2.7419  1.4025
  162DOPC   H8Y19627   3.034   6.158   5.477  1.9499  0.4035  3.1877
  162DOPC   C3919628   2.979   5.962   5.394 -0.2192  0.2852 -0.3509
  162DOPC   H9X19629   3.010   5.857   5.404  1.0150  0.7081  0.5155
  162DOPC  C31019630   2.871   5.989   5.313  0.4317 -0.0086 -1.0656
  162DOPC  H10X19631   2.826   5.899   5.268 -0.9864  0.6173 -0.9674
  162DOPC  C31119632   2.815   6.129   5.288  0.1314 -0.1047 -0.5256
  162DOPC  H11X19633   2.842   6.195   5.373  0.2595 -0.3674 -0.3615
  162DOPC  H11Y19634   2.705   6.112   5.295  0.1759 -0.7910 -1.3817
  162DOPC  C31219635   2.860   6.196   5.161  0.1826 -0.0570 -0.3564
  162DOPC  H12X19636   2.785   6.274   5.137 -1.8891 -2.2687 -1.5515
  162DOPC  H12Y19637   2.845   6.129   5.074 -1.1602  0.2062 -0.3462
  162DOPC  C31319638   3.000   6.246   5.172  0.0409 -0.2783 -0.2652
  162DOPC  H13X19639   3.023   6.312   5.259  0.9021  0.3932 -0.9822
  162DOPC  H13Y19640   3.067   6.158   5.173  0.1302 -0.2223 -1.0504
  162DOPC  C31419641   3.038   6.333   5.045 -0.5694  0.9067 -0.1848
  162DOPC  H14X19642   2.989   6.291   4.954 -2.5942  0.7305  0.9360
  162DOPC  H14Y19643   2.969   6.419   5.060 -1.2212  0.1839  1.0681
  162DOPC  C31519644   3.177   6.396   5.039 -0.0458 -0.1730  0.3623
  162DOPC  H15X19645   3.185   6.467   4.954  1.4063 -2.1075 -1.2310
  162DOPC  H15Y19646   3.260   6.322   5.034 -1.1688 -1.4951  0.6049
  162DOPC  C31619647   3.206   6.487   5.159  0.0291 -0.2813  0.1305
  162DOPC  H16X19648   3.116   6.553   5.152 -2.2628 -3.3718 -2.3122
  162DOPC  H16Y19649   3.215   6.433   5.255  1.6583  2.0691  1.3956
  162DOPC  C31719650   3.336   6.571   5.145  0.3003  0.0767  0.4796
  162DOPC  H17X19651   3.423   6.501   5.133  1.1112  1.2146 -0.4471
  162DOPC  H17Y19652   3.329   6.636   5.055 -1.9981 -0.8904 -0.0919
  162DOPC  C31819653   3.371   6.666   5.262  0.0452 -0.1909  0.0454
  162DOPC  H18X19654   3.473   6.706   5.243 -0.7723  1.7128 -0.5947
  162DOPC  H18Y19655   3.305   6.755   5.270  0.0770  0.1373 -2.5003
  162DOPC  H18Z19656   3.380   6.616   5.361  0.6363  2.0834  1.2192
  163DOPC     N19657   6.714   3.115   7.013 -0.2086 -0.7122  0.3733
  163DOPC   C1219658   6.621   3.046   6.909 -0.1838  0.3022 -0.2226
  163DOPC  H12A19659   6.524   3.095   6.906  0.0407  0.9215  1.6970
  163DOPC  H12B19660   6.606   2.947   6.949 -1.2417 -0.2482 -1.8668
  163DOPC   C1319661   6.786   3.233   6.961 -0.4170 -0.6595 -0.5633
  163DOPC  H13A19662   6.850   3.279   7.035 -1.0488  0.9563 -0.9689
  163DOPC  H13B19663   6.851   3.207   6.878 -1.2164 -1.8803 -0.8218
  163DOPC  H13C19664   6.720   3.310   6.925  0.3897  0.0203 -0.6352
  163DOPC   C1419665   6.806   3.015   7.070  0.3553 -0.2689  0.1972
  163DOPC  H14A19666   6.876   3.057   7.140 -2.9780  2.0162  2.4357
  163DOPC  H14B19667   6.750   2.938   7.121 -0.2443 -1.7027 -2.4660
  163DOPC  H14C19668   6.856   2.955   6.995  0.6733  0.1662  0.0562
  163DOPC   C1519669   6.626   3.157   7.125  0.2533 -0.1963  0.5875
  163DOPC  H15A19670   6.574   3.068   7.156 -0.7934  0.4928  0.8545
  163DOPC  H15B19671   6.557   3.235   7.096 -0.1457  0.2269  2.5066
  163DOPC  H15C19672   6.689   3.195   7.205  0.3605  2.3492 -0.6047
  163DOPC   C1119673   6.681   3.023   6.768 -0.0647 -0.0585 -0.7117
  163DOPC  H11A19674   6.594   2.989   6.709 -0.3021 -0.2766 -0.2465
  163DOPC  H11B19675   6.724   3.115   6.723 -1.0014  0.5384 -0.3913
  163DOPC     P19676   6.776   2.777   6.809  0.1413  0.0891  0.0605
  163DOPC   O1319677   6.636   2.755   6.848 -0.1023  0.0748  0.0516
  163DOPC   O1419678   6.870   2.755   6.920  0.1837  0.3225  0.6170
  163DOPC   O1219679   6.793   2.929   6.757  0.2797  0.2947  0.5595
  163DOPC   O1119680   6.817   2.679   6.684  0.5319 -0.0055 -0.4174
  163DOPC    C119681   6.783   2.745   6.557  0.4487  0.1351  0.8516
  163DOPC    HA19682   6.859   2.823   6.537  1.9843 -1.1677  1.3900
  163DOPC    HB19683   6.680   2.786   6.557  0.6697  0.9042 -1.6385
  163DOPC    C219684   6.781   2.646   6.435  0.4967  0.4067 -0.1030
  163DOPC    HS19685   6.690   2.583   6.425 -0.3685  1.5665  0.3794
  163DOPC   O2119686   6.907   2.573   6.435 -0.1603 -0.7301 -0.1087
  163DOPC   C2119687   6.909   2.463   6.499  1.1014  0.6386  0.0053
  163DOPC   O2219688   6.817   2.414   6.568 -0.3282 -0.2199 -0.6311
  163DOPC   C2219689   7.044   2.388   6.477 -0.4911 -0.1807  0.8123
  163DOPC   H2R19690   7.074   2.323   6.562  1.3990 -0.7601 -0.2541
  163DOPC   H2S19691   7.127   2.462   6.481  0.9266 -1.7487  1.8552
  163DOPC    C319692   6.775   2.735   6.306 -0.6081 -0.0814 -0.3779
  163DOPC    HX19693   6.867   2.795   6.286 -0.4254 -0.6002 -1.1464
  163DOPC    HY19694   6.699   2.815   6.316  0.0264  0.4214  0.5699
  163DOPC   O3119695   6.758   2.655   6.182  0.3167 -0.0088 -0.5409
  163DOPC   C3119696   6.634   2.636   6.148  0.0840  0.2448 -0.4932
  163DOPC   O3219697   6.536   2.668   6.215 -0.3329 -0.3903 -0.1406
  163DOPC   C3219698   6.634   2.555   6.017  0.4115  0.4556 -0.3266
  163DOPC   H2X19699   6.530   2.520   6.000  0.8470 -0.2464 -1.6822
  163DOPC   H2Y19700   6.647   2.637   5.943 -1.9753  0.9417 -0.3121
  163DOPC   C2319701   7.063   2.320   6.338  0.4777  0.4073 -0.1363
  163DOPC   H3R19702   7.036   2.378   6.247 -0.0713  0.2613 -0.0744
  163DOPC   H3S19703   6.995   2.233   6.331  1.3981 -0.2288 -1.6078
  163DOPC   C2419704   7.198   2.255   6.313 -0.3273 -0.3478 -0.3505
  163DOPC   H4R19705   7.211   2.166   6.378  0.6882 -1.5410 -2.0835
  163DOPC   H4S19706   7.265   2.341   6.335 -2.3999  0.9392  1.2941
  163DOPC   C2519707   7.217   2.204   6.169 -0.3144  0.2057  0.4963
  163DOPC   H5R19708   7.225   2.294   6.104  2.0142 -0.2804  0.0231
  163DOPC   H5S19709   7.130   2.140   6.143 -2.1404  1.4570  3.1052
  163DOPC   C2619710   7.351   2.138   6.150 -0.1657  0.3018  0.6931
  163DOPC   H6R19711   7.363   2.052   6.220  2.0067  0.6448  0.7980
  163DOPC   H6S19712   7.441   2.200   6.169  1.1870 -1.2971 -0.2738
  163DOPC   C2719713   7.364   2.088   6.009 -0.2824  0.4336 -0.5512
  163DOPC   H7R19714   7.355   2.173   5.938  0.7938  1.1792  0.1809
  163DOPC   H7S19715   7.281   2.014   6.001 -1.6306  1.5174  2.0647
  163DOPC   C2819716   7.508   2.023   5.980  0.2172 -0.5012  0.5513
  163DOPC   H8R19717   7.521   1.940   6.052 -1.0224 -1.4223 -0.2478
  163DOPC   H8S19718   7.583   2.105   5.987 -0.5928  0.3319 -0.2731
  163DOPC   C2919719   7.513   1.960   5.848 -0.2382  0.0023  0.2558
  163DOPC   H9R19720   7.498   1.852   5.830  0.7254 -0.1283  0.1982
  163DOPC  C21019721   7.530   2.026   5.731  0.1129  0.2376  0.0171
  163DOPC  H10R19722   7.547   1.961   5.644  0.4290 -0.9651  0.9616
  163DOPC  C21119723   7.550   2.171   5.706 -0.7767 -0.3573  0.4151
  163DOPC  H11R19724   7.657   2.196   5.685 -0.6137 -1.4863 -0.2024
  163DOPC  H11S19725   7.541   2.227   5.802  2.5247  0.5950  0.3031
  163DOPC  C21219726   7.463   2.226   5.595  0.1451 -0.3487  0.3230
  163DOPC  H12R19727   7.450   2.336   5.605  0.2433 -0.3908  0.9361
  163DOPC  H12S19728   7.360   2.187   5.612  0.8144 -2.3615  0.0470
  163DOPC  C21319729   7.512   2.180   5.458 -0.4428 -0.5460  0.1456
  163DOPC  H13R19730   7.477   2.078   5.431 -0.5386  0.0844 -2.3806
  163DOPC  H13S19731   7.623   2.183   5.464 -0.4434  1.3278 -0.1312
  163DOPC  C21419732   7.458   2.279   5.350  0.8634  0.0568  0.4009
  163DOPC  H14R19733   7.351   2.298   5.373 -0.0905 -0.2919 -3.1440
  163DOPC  H14S19734   7.466   2.226   5.252 -1.5387  1.5636 -0.6975
  163DOPC  C21519735   7.531   2.409   5.342 -0.2523 -0.3983  0.9533
  163DOPC  H15R19736   7.635   2.401   5.303 -0.5845  0.1712 -0.0681
  163DOPC  H15S19737   7.542   2.446   5.446  1.7127 -0.1235  0.6933
  163DOPC  C21619738   7.457   2.515   5.265 -0.2179 -0.2591  0.1807
  163DOPC  H16R19739   7.493   2.611   5.310  0.1527 -0.1185 -0.4135
  163DOPC  H16S19740   7.346   2.515   5.275 -0.3615  2.7384 -0.2751
  163DOPC  C21719741   7.497   2.507   5.118  0.2749 -0.5769 -0.2525
  163DOPC  H17R19742   7.472   2.402   5.091  0.7864 -0.0231 -3.2516
  163DOPC  H17S19743   7.606   2.525   5.106 -0.0073  0.4525 -1.3925
  163DOPC  C21819744   7.414   2.599   5.030  0.2241  0.0323  0.1354
  163DOPC  H18R19745   7.453   2.700   5.007 -2.8002  1.1322 -0.7740
  163DOPC  H18S19746   7.314   2.616   5.076 -1.2890 -0.7015 -2.6089
  163DOPC  H18T19747   7.395   2.565   4.926  0.6911  0.3233 -0.0474
  163DOPC   C3319748   6.735   2.436   6.005  0.1829  0.2216 -0.6779
  163DOPC   H3X19749   6.726   2.374   6.097 -2.0054  0.1163 -0.9152
  163DOPC   H3Y19750   6.837   2.479   5.991  0.5101 -0.5417 -0.6952
  163DOPC   C3419751   6.705   2.347   5.879 -0.0133  0.2667  0.3752
  163DOPC   H4X19752   6.711   2.421   5.796 -0.5089  1.7565  1.6193
  163DOPC   H4Y19753   6.599   2.315   5.878  0.2060 -0.9714 -4.1842
  163DOPC   C3519754   6.805   2.229   5.857  0.1153  0.1589  0.4684
  163DOPC   H5X19755   6.777   2.177   5.763  2.0802  0.3975 -0.2909
  163DOPC   H5Y19756   6.796   2.153   5.938 -1.2286 -1.7997 -1.3908
  163DOPC   C3619757   6.956   2.272   5.846  0.0445 -0.0874 -0.5299
  163DOPC   H6X19758   6.982   2.319   5.943  1.1462 -0.8072 -0.4603
  163DOPC   H6Y19759   7.012   2.176   5.846 -0.1927 -0.3180  2.0408
  163DOPC   C3719760   6.992   2.364   5.734  0.1229 -0.3795 -0.0536
  163DOPC   H7X19761   6.985   2.306   5.639  0.9058 -0.0128 -0.3498
  163DOPC   H7Y19762   6.919   2.447   5.733 -1.4277 -1.6692 -1.4162
  163DOPC   C3819763   7.142   2.397   5.739 -0.4794 -0.2027 -0.1615
  163DOPC   H8X19764   7.198   2.307   5.772 -0.1305  1.1772  3.3873
  163DOPC   H8Y19765   7.160   2.464   5.825 -1.5319  1.2434 -1.0246
  163DOPC   C3919766   7.198   2.474   5.615 -0.1888  0.7517 -0.0683
  163DOPC   H9X19767   7.222   2.418   5.524  2.0915  1.6936 -0.1002
  163DOPC  C31019768   7.212   2.612   5.602  0.9958  0.3342 -0.1306
  163DOPC  H10X19769   7.240   2.634   5.498 -0.9644 -0.6223 -0.9151
  163DOPC  C31119770   7.176   2.721   5.707  0.3776 -0.6749  0.4641
  163DOPC  H11X19771   7.246   2.807   5.696  0.4775 -0.8399 -0.2287
  163DOPC  H11Y19772   7.178   2.680   5.810 -0.0642  2.0995  1.6774
  163DOPC  C31219773   7.042   2.785   5.679  1.2371 -0.3669 -0.3006
  163DOPC  H12X19774   7.010   2.837   5.771  0.0945  0.3327 -1.0666
  163DOPC  H12Y19775   6.973   2.699   5.665  0.8537 -0.2041  0.5310
  163DOPC  C31319776   7.033   2.869   5.548 -0.3528 -0.1042  0.7265
  163DOPC  H13X19777   7.097   2.958   5.563  1.3393 -0.9781 -0.9018
  163DOPC  H13Y19778   7.084   2.807   5.471 -0.8351 -0.2365  0.5124
  163DOPC  C31419779   6.894   2.920   5.507 -0.1592 -0.2329  0.1279
  163DOPC  H14X19780   6.911   2.971   5.410  0.2152  0.4312  0.5364
  163DOPC  H14Y19781   6.825   2.836   5.485 -0.2623 -0.7155  2.0553
  163DOPC  C31519782   6.839   3.020   5.610 -0.3789 -0.2830 -0.1495
  163DOPC  H15X19783   6.801   3.114   5.566  1.1734  0.4650  0.0467
  163DOPC  H15Y19784   6.915   3.052   5.685 -0.0437 -0.4632 -0.4117
  163DOPC  C31619785   6.719   2.955   5.689  0.2516  0.2614 -0.3397
  163DOPC  H16X19786   6.624   2.958   5.632 -0.1118 -0.6523  0.1919
  163DOPC  H16Y19787   6.740   2.852   5.726 -1.5690 -0.9371 -2.4493
  163DOPC  C31719788   6.686   3.048   5.812  0.4326  0.1351  0.2287
  163DOPC  H17X19789   6.776   3.057   5.877  0.7266 -2.6340  0.3436
  163DOPC  H17Y19790   6.673   3.150   5.771 -2.0437  0.3053  1.3171
  163DOPC  C31819791   6.563   3.012   5.883  0.1961  0.0759 -0.5735
  163DOPC  H18X19792   6.539   3.074   5.972  0.5555  1.3761 -1.3534
  163DOPC  H18Y19793   6.471   3.021   5.822 -1.0953 -0.4455  1.2156
  163DOPC  H18Z19794   6.575   2.908   5.921 -1.4835 -0.1769 -0.6676
  164DOPC     N19795   7.410   7.212   6.949  0.2042 -0.3686 -1.0242
  164DOPC   C1219796   7.442   7.323   6.853 -0.1403  0.2522 -0.3211
  164DOPC  H12A19797   7.470   7.411   6.909  0.3844 -0.0802 -0.0499
  164DOPC  H12B19798   7.347   7.346   6.806 -1.7184 -1.0646  1.9614
  164DOPC   C1319799   7.526   7.180   7.037 -0.2269  0.2487 -0.5723
  164DOPC  H13A19800   7.498   7.110   7.115  1.7310 -1.0335 -0.9264
  164DOPC  H13B19801   7.612   7.142   6.982  1.9625  0.3620  2.5237
  164DOPC  H13C19802   7.558   7.272   7.083 -3.0774  0.5378  1.0115
  164DOPC   C1419803   7.374   7.085   6.871 -0.7184 -0.0952  0.3674
  164DOPC  H14A19804   7.288   7.100   6.807  0.3799 -1.1944 -1.4362
  164DOPC  H14B19805   7.455   7.047   6.810  0.3813  0.0493  1.6846
  164DOPC  H14C19806   7.358   7.002   6.938  1.4296  0.0968  1.2112
  164DOPC   C1519807   7.280   7.253   7.030 -0.2906  1.3124  0.8867
  164DOPC  H15A19808   7.212   7.297   6.958 -0.5307  0.4697  0.5860
  164DOPC  H15B19809   7.302   7.333   7.098 -0.2971  0.6432  1.6813
  164DOPC  H15C19810   7.236   7.168   7.079 -0.4409  0.5910 -0.4560
  164DOPC   C1119811   7.549   7.299   6.742  0.7054 -0.1907  0.2991
  164DOPC  H11A19812   7.547   7.197   6.697  1.1198  0.2743 -0.8267
  164DOPC  H11B19813   7.526   7.385   6.675 -1.9833  1.9652  3.6514
  164DOPC     P19814   7.794   7.230   6.773 -0.2005  0.0515 -0.1092
  164DOPC   O1319815   7.780   7.095   6.834 -0.0119  0.4406  0.1762
  164DOPC   O1419816   7.909   7.314   6.816  0.2662  0.1425 -0.2636
  164DOPC   O1219817   7.671   7.317   6.808 -0.2775 -0.3799  0.2307
  164DOPC   O1119818   7.786   7.229   6.612  0.3969 -0.6625 -0.2432
  164DOPC    C119819   7.846   7.128   6.531 -0.2254 -0.5300 -0.2831
  164DOPC    HA19820   7.809   7.136   6.427 -1.1271 -2.3873 -0.1475
  164DOPC    HB19821   7.826   7.024   6.566  3.9528 -0.8077  1.9708
  164DOPC    C219822   7.998   7.156   6.521  0.1402 -0.1506  0.1708
  164DOPC    HS19823   8.047   7.143   6.620  3.4480 -1.1690 -1.4561
  164DOPC   O2119824   8.010   7.298   6.476 -0.0736 -0.1062 -0.0883
  164DOPC   C2119825   8.140   7.347   6.464  0.7137  0.1883 -0.1842
  164DOPC   O2219826   8.234   7.296   6.517 -0.8877  0.0113 -0.5226
  164DOPC   C2219827   8.138   7.465   6.371  0.4823  0.0550  0.8382
  164DOPC   H2R19828   8.169   7.563   6.414  1.0925  0.3154 -0.1487
  164DOPC   H2S19829   8.027   7.478   6.364  0.6347  1.5629  0.8428
  164DOPC    C319830   8.074   7.066   6.417  0.1060  0.1312  0.0254
  164DOPC    HX19831   8.058   6.959   6.445  1.2297 -0.2981 -0.8872
  164DOPC    HY19832   8.183   7.087   6.423 -0.0746  1.0650  0.2505
  164DOPC   O3119833   8.011   7.084   6.287 -0.1246  0.2862 -0.7799
  164DOPC   C3119834   8.075   7.040   6.188 -0.0560 -0.1740  0.2249
  164DOPC   O3219835   8.188   6.987   6.193 -0.0621 -0.3039 -0.1933
  164DOPC   C3219836   7.998   7.061   6.068 -0.1207  0.1952 -0.7598
  164DOPC   H2X19837   7.907   7.006   6.100 -0.1035  1.4387  1.6779
  164DOPC   H2Y19838   7.970   7.168   6.078 -0.6686 -0.1219  2.1057
  164DOPC   C2319839   8.174   7.428   6.222  0.2538  0.1215  0.3217
  164DOPC   H3R19840   8.148   7.322   6.205  0.6596  0.1459 -0.4889
  164DOPC   H3S19841   8.284   7.435   6.207  0.0658 -0.8671 -1.8034
  164DOPC   C2419842   8.107   7.524   6.112 -0.0106  0.1804 -0.4450
  164DOPC   H4R19843   8.158   7.619   6.138  2.3339 -1.2340  0.4329
  164DOPC   H4S19844   8.000   7.525   6.142 -1.0422  0.2980 -3.7244
  164DOPC   C2519845   8.131   7.484   5.964 -0.1848  0.3849 -0.2751
  164DOPC   H5R19846   8.126   7.373   5.959 -0.6698  0.0748  3.7543
  164DOPC   H5S19847   8.233   7.510   5.929  0.3051 -0.8379  0.2108
  164DOPC   C2619848   8.032   7.570   5.881 -0.4522 -0.5461 -0.1491
  164DOPC   H6R19849   8.057   7.678   5.883 -0.0370 -0.6379 -0.2472
  164DOPC   H6S19850   7.937   7.545   5.932  0.6735 -0.8560  1.8850
  164DOPC   C2719851   8.023   7.526   5.728 -0.4369 -0.2554  0.2208
  164DOPC   H7R19852   8.053   7.420   5.738 -0.0537 -0.3540 -1.5901
  164DOPC   H7S19853   8.110   7.580   5.685 -1.5865  2.4115  1.0593
  164DOPC   C2819854   7.888   7.562   5.665 -0.4358  0.3902 -0.5636
  164DOPC   H8R19855   7.806   7.506   5.717  0.0508 -0.3812 -0.6115
  164DOPC   H8S19856   7.887   7.519   5.563  1.0531  0.6229 -0.6988
  164DOPC   C2919857   7.869   7.710   5.664  0.0518  0.3018  0.3287
  164DOPC   H9R19858   7.893   7.759   5.760  0.6406 -2.3352  1.6219
  164DOPC  C21019859   7.843   7.785   5.556 -0.2782 -0.7674  0.1477
  164DOPC  H10R19860   7.833   7.893   5.572 -0.8463 -0.5972 -1.1863
  164DOPC  C21119861   7.809   7.731   5.415 -0.2759  0.1569  0.5717
  164DOPC  H11R19862   7.729   7.784   5.361  0.6341  0.4253 -0.5574
  164DOPC  H11S19863   7.775   7.626   5.413 -0.2889  0.1394 -2.5226
  164DOPC  C21219864   7.940   7.744   5.331  0.6868  0.0489  0.9843
  164DOPC  H12R19865   7.998   7.837   5.351 -1.3093  1.4814  0.4879
  164DOPC  H12S19866   7.911   7.754   5.224  1.2952  1.0622  0.9001
  164DOPC  C21319867   8.032   7.621   5.329 -0.0597  0.1458 -0.3553
  164DOPC  H13R19868   7.974   7.536   5.289 -3.0811  0.1713  3.3598
  164DOPC  H13S19869   8.066   7.601   5.433  3.2399 -1.8772 -1.6469
  164DOPC  C21419870   8.165   7.653   5.257  0.2684  0.8272  0.9758
  164DOPC  H14R19871   8.227   7.561   5.254  0.6040  1.0814 -0.7147
  164DOPC  H14S19872   8.217   7.729   5.319 -0.9503  0.5210  2.4519
  164DOPC  C21519873   8.149   7.695   5.115  0.1061 -0.6367  0.2659
  164DOPC  H15R19874   8.248   7.728   5.077  0.2134 -0.6360  0.5412
  164DOPC  H15S19875   8.099   7.794   5.115  0.8680 -0.2203  1.6494
  164DOPC  C21619876   8.070   7.594   5.028  0.0540 -0.2347 -0.3190
  164DOPC  H16R19877   7.970   7.580   5.074  0.7311  0.0675  1.3044
  164DOPC  H16S19878   8.123   7.497   5.033 -1.6961 -1.2212  0.0706
  164DOPC  C21719879   8.054   7.656   4.890  0.0410  0.9233 -0.0354
  164DOPC  H17R19880   8.097   7.758   4.887  0.0364  0.8999 -1.3582
  164DOPC  H17S19881   7.948   7.653   4.856 -0.3654 -0.4931  1.2377
  164DOPC  C21819882   8.134   7.586   4.771  0.1542  0.0449  0.4602
  164DOPC  H18R19883   8.127   7.638   4.673 -0.2851  0.1349  0.5361
  164DOPC  H18S19884   8.110   7.478   4.762 -1.8815  0.4458  0.6239
  164DOPC  H18T19885   8.243   7.595   4.788  0.2157  0.0302  0.0817
  164DOPC   C3319886   8.050   7.006   5.934 -0.3458 -0.6080 -0.4596
  164DOPC   H3X19887   8.063   6.898   5.954 -0.6129 -0.4767  0.4831
  164DOPC   H3Y19888   8.146   7.057   5.910 -0.5228 -1.5269 -3.4352
  164DOPC   C3419889   7.947   7.029   5.827  0.3643  0.7558 -0.2571
  164DOPC   H4X19890   7.887   7.121   5.845  0.2389  0.3304  1.6817
  164DOPC   H4Y19891   7.870   6.951   5.815  1.6267 -0.8725  1.6417
  164DOPC   C3519892   8.005   7.038   5.683  0.0106 -0.1491 -0.2377
  164DOPC   H5X19893   8.029   6.940   5.637 -1.6922 -0.0531 -1.4361
  164DOPC   H5Y19894   8.100   7.095   5.689  0.1367 -0.4397  0.6031
  164DOPC   C3619895   7.907   7.114   5.596 -0.0285 -0.1364  0.5466
  164DOPC   H6X19896   7.822   7.047   5.571 -1.8530  2.5206 -0.8771
  164DOPC   H6Y19897   7.865   7.202   5.649 -0.7283  0.3925 -0.8338
  164DOPC   C3719898   7.980   7.160   5.468  0.3887  0.0828  0.4834
  164DOPC   H7X19899   8.067   7.226   5.489  0.8912  0.0608 -1.3628
  164DOPC   H7Y19900   8.034   7.069   5.434  1.9538  1.6305 -1.4523
  164DOPC   C3819901   7.884   7.215   5.360 -0.7029  0.3792  0.9401
  164DOPC   H8X19902   7.854   7.319   5.382  1.4616  1.1876  0.3365
  164DOPC   H8Y19903   7.793   7.152   5.352  0.3594 -1.1524  0.4504
  164DOPC   C3919904   7.967   7.200   5.229  0.7033  0.2097 -0.4322
  164DOPC   H9X19905   8.062   7.256   5.232  0.7103  0.2920 -1.6413
  164DOPC  C31019906   7.947   7.134   5.114  0.9375 -0.1466  0.3507
  164DOPC  H10X19907   8.021   7.143   5.033 -0.2598 -2.2958 -1.0684
  164DOPC  C31119908   7.834   7.046   5.087  0.1016  0.5411 -0.3088
  164DOPC  H11X19909   7.760   7.111   5.036  0.0622  1.0345  0.3774
  164DOPC  H11Y19910   7.788   6.999   5.177  0.9364 -1.1237 -0.7067
  164DOPC  C31219911   7.879   6.931   4.993 -0.3123 -0.0631  0.0523
  164DOPC  H12X19912   7.908   6.981   4.898 -1.1907  1.0112  0.3219
  164DOPC  H12Y19913   7.794   6.861   4.975  1.3687 -2.1070 -0.4062
  164DOPC  C31319914   8.003   6.843   5.052  1.0407 -0.4231  0.9812
  164DOPC  H13X19915   8.097   6.901   5.047 -0.8218  2.8148  0.1955
  164DOPC  H13Y19916   7.972   6.828   5.158 -1.8401 -0.0943  0.2744
  164DOPC  C31419917   8.005   6.701   4.983 -0.4587  0.2301 -0.2136
  164DOPC  H14X19918   7.913   6.642   5.002 -0.0610 -0.7407 -1.2200
  164DOPC  H14Y19919   8.096   6.654   5.027 -0.4905  0.1478 -0.2364
  164DOPC  C31519920   8.019   6.726   4.836  0.0375  0.7192  0.4055
  164DOPC  H15X19921   8.107   6.793   4.825  1.1253 -0.6640  0.4112
  164DOPC  H15Y19922   7.928   6.774   4.795 -1.4490 -1.7445  0.6147
  164DOPC  C31619923   8.045   6.599   4.752  0.0081  0.0220 -0.1637
  164DOPC  H16X19924   8.140   6.560   4.792 -0.1659 -0.8555 -0.5910
  164DOPC  H16Y19925   7.966   6.528   4.783  0.6282 -0.1535  1.0770
  164DOPC  C31719926   8.055   6.624   4.606  0.1545  0.3973  0.5428
  164DOPC  H17X19927   7.958   6.651   4.558  0.3833 -1.0658 -0.8097
  164DOPC  H17Y19928   8.112   6.719   4.599  1.9702 -0.7814 -3.3630
  164DOPC  C31819929   8.114   6.514   4.530  0.0741  0.0000 -0.3369
  164DOPC  H18X19930   8.142   6.542   4.426  1.6892 -0.8878 -0.1833
  164DOPC  H18Y19931   8.205   6.476   4.582 -1.0215 -0.9722  0.9164
  164DOPC  H18Z19932   8.041   6.433   4.511 -2.5227  1.7990  1.4209
  165DOPC     N19933   5.286   0.724   6.735  0.5222 -0.3315 -0.0669
  165DOPC   C1219934   5.236   0.836   6.824  0.1627  0.0154  0.3165
  165DOPC  H12A19935   5.258   0.933   6.783 -1.3074  1.2117  2.1499
  165DOPC  H12B19936   5.290   0.844   6.917  0.0275 -0.1077  0.4062
  165DOPC   C1319937   5.433   0.731   6.731 -0.6204  0.1824 -0.3832
  165DOPC  H13A19938   5.476   0.689   6.821 -1.6641 -2.0034 -0.8519
  165DOPC  H13B19939   5.470   0.661   6.659  1.5595  0.5707  0.2685
  165DOPC  H13C19940   5.479   0.827   6.713  1.1067 -0.4011  0.6268
  165DOPC   C1419941   5.231   0.728   6.597 -0.3232  0.7396  0.1337
  165DOPC  H14A19942   5.259   0.811   6.534  0.5822 -1.0150 -1.9152
  165DOPC  H14B19943   5.258   0.635   6.549 -1.0107  1.3505 -1.5181
  165DOPC  H14C19944   5.123   0.734   6.593 -0.2544  1.5657 -0.6081
  165DOPC   C1519945   5.258   0.588   6.794  0.0891  0.2339  0.4582
  165DOPC  H15A19946   5.294   0.570   6.894 -2.1916  0.6888  1.4250
  165DOPC  H15B19947   5.280   0.511   6.721 -0.0802  1.3923 -0.8491
  165DOPC  H15C19948   5.153   0.583   6.818 -0.2742 -1.6538 -1.2435
  165DOPC   C1119949   5.079   0.839   6.856  0.0715 -0.2285  0.4679
  165DOPC  H11A19950   5.045   0.921   6.922 -1.8136 -1.0844  0.6137
  165DOPC  H11B19951   5.037   0.867   6.757  1.0388  0.1554  0.1498
  165DOPC     P19952   4.875   0.677   6.895  0.0265 -0.1687  0.3710
  165DOPC   O1319953   4.829   0.695   7.030  0.6727 -0.7940 -0.0562
  165DOPC   O1419954   4.855   0.543   6.838 -0.3227  0.4230 -0.3610
  165DOPC   O1219955   5.030   0.715   6.893 -0.1833 -0.1636 -0.1642
  165DOPC   O1119956   4.817   0.790   6.800  0.1404  0.0570 -0.1132
  165DOPC    C119957   4.703   0.778   6.716  0.2090  0.2082  0.4499
  165DOPC    HA19958   4.632   0.853   6.757  1.0608  1.7004 -0.7104
  165DOPC    HB19959   4.649   0.681   6.724 -0.9825  0.7155 -1.0237
  165DOPC    C219960   4.729   0.810   6.565 -0.1856  0.1660 -0.2457
  165DOPC    HS19961   4.634   0.804   6.507 -0.4363  3.6326 -0.3696
  165DOPC   O2119962   4.839   0.738   6.504 -0.0437  0.1758 -0.0582
  165DOPC   C2119963   4.820   0.603   6.501  0.0494 -0.1405  1.0188
  165DOPC   O2219964   4.718   0.548   6.539 -0.0000  0.4784  0.4765
  165DOPC   C2219965   4.943   0.537   6.425 -0.3694 -0.7075  0.0868
  165DOPC   H2R19966   5.005   0.515   6.515 -1.5232  0.2544  1.1625
  165DOPC   H2S19967   5.003   0.604   6.361 -0.7058 -0.5198 -0.0347
  165DOPC    C319968   4.762   0.961   6.547 -0.3283 -0.0399  0.0017
  165DOPC    HX19969   4.862   0.975   6.593 -1.0407 -0.2061  1.6601
  165DOPC    HY19970   4.691   1.016   6.612  0.5655 -0.5429  1.4519
  165DOPC   O3119971   4.767   0.999   6.401  0.3202 -0.0731  0.0878
  165DOPC   C3119972   4.813   1.130   6.383  0.3223 -0.3153 -0.1755
  165DOPC   O3219973   4.839   1.200   6.482 -0.1493 -0.3283 -0.2681
  165DOPC   C3219974   4.818   1.164   6.235  0.3127  0.4121  0.4609
  165DOPC   H2X19975   4.891   1.092   6.193  1.4001  0.7886  1.6263
  165DOPC   H2Y19976   4.720   1.143   6.187  1.0198 -0.4521 -0.6252
  165DOPC   C2319977   4.923   0.393   6.364 -0.1794  0.6023  0.1247
  165DOPC   H3R19978   4.882   0.316   6.433 -1.2356  1.1619  0.1546
  165DOPC   H3S19979   5.030   0.374   6.342 -0.2111  0.9613 -0.3451
  165DOPC   C2419980   4.843   0.402   6.235  0.6212 -0.3718  0.2509
  165DOPC   H4R19981   4.886   0.483   6.172 -1.4315  0.4982 -0.1062
  165DOPC   H4S19982   4.740   0.441   6.254 -0.6118 -2.4095 -1.7889
  165DOPC   C2519983   4.840   0.269   6.159  0.0187  0.1495  0.1606
  165DOPC   H5R19984   4.788   0.194   6.222  0.8376  1.6916  2.8075
  165DOPC   H5S19985   4.936   0.213   6.152 -1.1316 -2.0985  1.1601
  165DOPC   C2619986   4.757   0.275   6.034  0.8514 -0.4729  0.2585
  165DOPC   H6R19987   4.797   0.361   5.976 -0.4188  1.5872  2.2464
  165DOPC   H6S19988   4.652   0.303   6.058  0.4089  1.3031 -3.0750
  165DOPC   C2719989   4.769   0.143   5.948 -0.0491  0.1972  0.0413
  165DOPC   H7R19990   4.712   0.071   6.010  1.1113  1.3411  2.5811
  165DOPC   H7S19991   4.873   0.103   5.947 -0.4450 -1.0778  2.5782
  165DOPC   C2819992   4.707   0.151   5.806  0.1830 -0.3816  0.6542
  165DOPC   H8R19993   4.601   0.180   5.826  0.5679  0.3775  1.6909
  165DOPC   H8S19994   4.710   0.046   5.770  0.9561  0.0180 -0.4754
  165DOPC   C2919995   4.774   0.246   5.710 -0.2902 -0.7446 -0.3010
  165DOPC   H9R19996   4.878   0.215   5.693 -0.2635 -0.7922 -0.0517
  165DOPC  C21019997   4.733   0.368   5.657 -0.3796 -0.2008 -0.4262
  165DOPC  H10R19998   4.799   0.418   5.584  1.4256 -2.0524 -0.1640
  165DOPC  C21119999   4.595   0.434   5.668 -0.4231 -0.3524 -0.0426
  165DOPC  H11R20000   4.610   0.511   5.747 -1.7070  0.0063 -0.1253
  165DOPC  H11S20001   4.521   0.362   5.708 -0.8185 -0.0470 -0.2141
  165DOPC  C21220002   4.543   0.507   5.550 -0.8927  0.2953  0.4851
  165DOPC  H12R20003   4.609   0.592   5.520 -2.1362  0.7684 -1.0781
  165DOPC  H12S20004   4.444   0.552   5.573 -1.2167 -1.6567  3.3698
  165DOPC  C21320005   4.531   0.418   5.429 -0.4350 -0.2491  0.1049
  165DOPC  H13R20006   4.487   0.325   5.471 -0.3215  0.2832  1.4458
  165DOPC  H13S20007   4.630   0.389   5.387 -0.5865 -0.8721  0.1686
  165DOPC  C21420008   4.451   0.487   5.311  0.0962 -0.1918 -0.4354
  165DOPC  H14R20009   4.499   0.580   5.275 -2.9197  1.2476 -1.0551
  165DOPC  H14S20010   4.351   0.508   5.355  0.6857 -0.3800  1.0896
  165DOPC  C21520011   4.442   0.397   5.183  0.3894  0.3250 -0.1477
  165DOPC  H15R20012   4.406   0.300   5.224 -0.2832  0.1957 -1.0117
  165DOPC  H15S20013   4.544   0.387   5.139  0.0976  0.5460 -0.8897
  165DOPC  C21620014   4.360   0.456   5.072  0.1693 -0.2697  0.0112
  165DOPC  H16R20015   4.397   0.559   5.053 -1.2867  0.3607  0.4829
  165DOPC  H16S20016   4.260   0.465   5.118  1.2561 -0.9629  2.6590
  165DOPC  C21720017   4.352   0.369   4.943 -0.6313 -0.4972  0.1951
  165DOPC  H17R20018   4.453   0.345   4.902 -1.2773 -1.5562 -0.8482
  165DOPC  H17S20019   4.302   0.417   4.857  1.4293 -0.0143 -0.8039
  165DOPC  C21820020   4.283   0.239   4.973  0.2274 -0.2482  0.0998
  165DOPC  H18R20021   4.340   0.176   5.045 -0.3029 -1.6458 -0.6714
  165DOPC  H18S20022   4.268   0.182   4.879  1.1832 -2.2267  1.0763
  165DOPC  H18T20023   4.176   0.249   5.000 -0.1064 -0.4439 -1.0949
  165DOPC   C3320024   4.875   1.312   6.214  0.4470 -0.5272  0.6392
  165DOPC   H3X20025   4.984   1.296   6.228  0.3619 -1.4812  0.2889
  165DOPC   H3Y20026   4.837   1.384   6.290  0.3012 -0.8696  0.8898
  165DOPC   C3420027   4.859   1.364   6.071  0.8282  0.1300  0.1540
  165DOPC   H4X20028   4.902   1.307   5.985 -0.6394  1.0657 -1.2599
  165DOPC   H4Y20029   4.912   1.458   6.045 -1.6238  1.3409 -0.8014
  165DOPC   C3520030   4.708   1.385   6.040 -0.0999  0.5614  0.4143
  165DOPC   H5X20031   4.666   1.470   6.098  0.9741  0.1389  1.8843
  165DOPC   H5Y20032   4.649   1.298   6.078 -0.6376  0.5609 -0.4084
  165DOPC   C3620033   4.691   1.394   5.880  0.4827  0.1138 -0.6205
  165DOPC   H6X20034   4.776   1.440   5.827 -0.7012  1.7507 -1.1860
  165DOPC   H6Y20035   4.686   1.288   5.845  2.8809 -0.4786  0.6487
  165DOPC   C3720036   4.572   1.474   5.835  0.4450 -0.0279  0.0140
  165DOPC   H7X20037   4.601   1.580   5.820  0.4753  0.0487  0.5662
  165DOPC   H7Y20038   4.489   1.504   5.903  2.4834  2.3112  1.6308
  165DOPC   C3820039   4.512   1.412   5.704  0.6553 -0.2303  0.1474
  165DOPC   H8X20040   4.459   1.317   5.728  0.6763 -0.1762  0.4126
  165DOPC   H8Y20041   4.594   1.380   5.637 -1.8438 -0.5715 -3.0183
  165DOPC   C3920042   4.418   1.500   5.625  0.4799  0.2645  0.3828
  165DOPC   H9X20043   4.332   1.546   5.675  0.8782  0.5680  0.7968
  165DOPC  C31020044   4.449   1.547   5.510  0.2367 -0.6052  0.4816
  165DOPC  H10X20045   4.393   1.625   5.457 -1.4041 -1.6203  0.6764
  165DOPC  C31120046   4.557   1.496   5.417 -0.0936 -0.1547  0.1515
  165DOPC  H11X20047   4.591   1.391   5.431 -0.1524 -0.0608  1.0087
  165DOPC  H11Y20048   4.647   1.556   5.442 -0.8115  0.6473  0.8796
  165DOPC  C31220049   4.518   1.522   5.269  0.2452 -1.1675  0.3745
  165DOPC  H12X20050   4.592   1.498   5.190  0.0981  2.1667 -0.9599
  165DOPC  H12Y20051   4.497   1.630   5.251 -4.1688 -1.6237  1.7029
  165DOPC  C31320052   4.382   1.464   5.235  0.2065 -0.2888 -0.2913
  165DOPC  H13X20053   4.384   1.356   5.261  1.7191 -0.8556 -2.4576
  165DOPC  H13Y20054   4.300   1.505   5.297  0.0896  0.6189 -1.0335
  165DOPC  C31420055   4.356   1.472   5.085  0.1109  0.4968 -0.6011
  165DOPC  H14X20056   4.455   1.451   5.040  1.3959  0.0419  2.2058
  165DOPC  H14Y20057   4.275   1.403   5.052 -0.9243  2.2460 -1.8998
  165DOPC  C31520058   4.318   1.620   5.047 -0.3885  0.6814 -0.0106
  165DOPC  H15X20059   4.409   1.682   5.062 -0.7114  0.9688  0.8211
  165DOPC  H15Y20060   4.239   1.649   5.119 -2.4200  0.9431 -2.2142
  165DOPC  C31620061   4.257   1.628   4.910  0.2802 -0.1302 -0.4285
  165DOPC  H16X20062   4.185   1.545   4.897 -0.1902 -0.5674  3.5374
  165DOPC  H16Y20063   4.199   1.722   4.902 -1.6056 -1.2267 -0.2182
  165DOPC  C31720064   4.369   1.618   4.812 -0.4128 -0.5236 -0.0345
  165DOPC  H17X20065   4.444   1.692   4.846 -0.8853  0.7054 -1.5273
  165DOPC  H17Y20066   4.416   1.518   4.816  1.4993  0.3394 -0.0246
  165DOPC  C31820067   4.338   1.641   4.666 -0.3295 -0.2256 -0.3796
  165DOPC  H18X20068   4.431   1.671   4.612 -0.2312  0.7124  0.2817
  165DOPC  H18Y20069   4.306   1.550   4.611  0.0459 -1.8511  1.9502
  165DOPC  H18Z20070   4.268   1.725   4.647 -1.2996 -0.8503  0.3935
  166DOPC     N20071   6.394   2.085   7.199  0.0325  0.2100 -0.2938
  166DOPC   C1220072   6.361   2.057   7.057 -0.1589  0.2046 -0.2257
  166DOPC  H12A20073   6.407   2.131   6.994  1.6217 -1.6584 -1.2565
  166DOPC  H12B20074   6.257   2.076   7.037 -0.5168 -1.7013 -0.3482
  166DOPC   C1320075   6.544   2.074   7.229  1.3071 -0.3599 -0.7824
  166DOPC  H13A20076   6.598   2.000   7.173  1.0467 -0.9612 -0.2428
  166DOPC  H13B20077   6.587   2.168   7.198  1.6481 -1.2160 -3.0824
  166DOPC  H13C20078   6.560   2.058   7.334  0.6059  0.2388 -0.5744
  166DOPC   C1420079   6.326   1.984   7.287 -0.1402  0.1513  0.0368
  166DOPC  H14A20080   6.392   1.898   7.287  0.1479  0.3679  0.2968
  166DOPC  H14B20081   6.320   2.021   7.389 -2.5392  0.5310 -0.1874
  166DOPC  H14C20082   6.225   1.965   7.254  0.4253 -2.4216 -0.4380
  166DOPC   C1520083   6.338   2.220   7.233 -0.0368  0.1784 -0.2779
  166DOPC  H15A20084   6.389   2.296   7.176 -0.8753  0.2509 -0.9505
  166DOPC  H15B20085   6.361   2.250   7.334 -1.5514  1.9704 -0.4115
  166DOPC  H15C20086   6.232   2.220   7.213  0.2161  1.1501 -1.7788
  166DOPC   C1120087   6.402   1.921   6.986  0.0020 -0.1787 -0.4333
  166DOPC  H11A20088   6.344   1.841   7.038 -2.4657  0.8278 -1.4830
  166DOPC  H11B20089   6.367   1.922   6.880  0.1430 -1.9795 -0.5440
  166DOPC     P20090   6.617   1.779   6.926 -0.4090 -0.0862 -0.2509
  166DOPC   O1320091   6.569   1.658   6.993  0.1521  0.3641 -0.8705
  166DOPC   O1420092   6.765   1.811   6.924 -0.9664  0.0739 -0.0459
  166DOPC   O1220093   6.546   1.903   6.991 -0.3409  0.5864 -0.5115
  166DOPC   O1120094   6.547   1.773   6.785 -0.0866  0.3055  0.0390
  166DOPC    C120095   6.577   1.670   6.695 -0.2716  0.9900 -0.1688
  166DOPC    HA20096   6.519   1.577   6.711  2.1789 -0.5481  0.4635
  166DOPC    HB20097   6.683   1.639   6.710 -0.0323  1.3696 -1.0449
  166DOPC    C220098   6.569   1.721   6.546 -0.2878  0.3436 -0.3310
  166DOPC    HS20099   6.598   1.632   6.485 -0.0944 -0.2126  0.5513
  166DOPC   O2120100   6.654   1.831   6.512 -0.0882 -0.6431 -0.3561
  166DOPC   C2120101   6.775   1.811   6.506  0.0438 -0.3201  0.1566
  166DOPC   O2220102   6.835   1.707   6.535  0.4562  0.0651 -0.2103
  166DOPC   C2220103   6.834   1.941   6.457  0.5532  0.2839  0.1933
  166DOPC   H2R20104   6.829   2.007   6.546  0.0868  0.1236  0.2903
  166DOPC   H2S20105   6.767   1.996   6.388  1.2067 -0.7727 -1.3278
  166DOPC    C320106   6.421   1.762   6.514 -0.7623 -0.5909  0.2003
  166DOPC    HX20107   6.397   1.827   6.602  0.0858 -1.3667  1.0250
  166DOPC    HY20108   6.361   1.669   6.513 -0.8561 -0.5275 -0.0625
  166DOPC   O3120109   6.410   1.845   6.392  0.0570 -0.2905  0.2123
  166DOPC   C3120110   6.348   1.784   6.289  0.1490  0.3274  0.0190
  166DOPC   O3220111   6.290   1.676   6.294 -0.0854  0.0463  0.3719
  166DOPC   C3220112   6.358   1.878   6.176  0.1734 -0.3388  0.5494
  166DOPC   H2X20113   6.291   1.836   6.098  0.1038 -1.7080  1.3197
  166DOPC   H2Y20114   6.305   1.969   6.213 -0.2793 -0.3898  0.0447
  166DOPC   C2320115   6.978   1.934   6.399  0.0758 -0.1888 -0.7124
  166DOPC   H3R20116   7.036   1.860   6.459 -0.5686  0.2520  0.4881
  166DOPC   H3S20117   7.023   2.035   6.410  1.8557 -1.2015  2.7272
  166DOPC   C2420118   6.998   1.912   6.247  0.7889  0.1944 -0.7702
  166DOPC   H4R20119   7.105   1.930   6.225  0.3967  1.3463 -1.9001
  166DOPC   H4S20120   6.951   2.000   6.198  0.0332  1.9810  2.8215
  166DOPC   C2520121   6.941   1.786   6.191  0.1186 -0.1946 -0.8103
  166DOPC   H5R20122   6.830   1.783   6.189  0.0189  1.2571  0.6467
  166DOPC   H5S20123   6.976   1.702   6.255 -2.8802 -1.0922 -0.2054
  166DOPC   C2620124   6.971   1.772   6.043 -0.0301 -0.1584 -0.4609
  166DOPC   H6R20125   6.973   1.664   6.018 -0.1976 -0.3926  0.4784
  166DOPC   H6S20126   7.071   1.815   6.018 -1.8998  3.8303 -1.8965
  166DOPC   C2720127   6.867   1.832   5.945  0.9652  0.1676 -0.1600
  166DOPC   H7R20128   6.858   1.941   5.962 -1.4646  0.1187 -0.7865
  166DOPC   H7S20129   6.768   1.789   5.969  1.5878 -0.0576  2.2977
  166DOPC   C2820130   6.891   1.800   5.801  0.5262 -0.8540 -0.4903
  166DOPC   H8R20131   6.795   1.824   5.750  0.9327  0.1107 -0.8282
  166DOPC   H8S20132   6.926   1.696   5.787 -0.5854 -1.0941 -1.7220
  166DOPC   C2920133   7.001   1.892   5.746  0.6247  0.6461 -0.4648
  166DOPC   H9R20134   7.088   1.897   5.812  0.4301 -0.4429 -0.0990
  166DOPC  C21020135   7.000   1.970   5.636  0.7405 -0.3266  0.4642
  166DOPC  H10R20136   7.091   2.030   5.625  0.5011 -0.1341 -0.5418
  166DOPC  C21120137   6.881   2.005   5.549  0.2408  0.5629 -0.2391
  166DOPC  H11R20138   6.812   2.084   5.583 -0.9105 -0.2709 -0.5858
  166DOPC  H11S20139   6.824   1.909   5.554  0.6831  0.2317 -1.3850
  166DOPC  C21220140   6.914   2.026   5.402  0.3443  0.1759  0.1513
  166DOPC  H12R20141   6.827   2.025   5.332  0.3799  0.0168  0.1077
  166DOPC  H12S20142   6.975   1.944   5.360 -0.7894 -1.2733  1.2536
  166DOPC  C21320143   6.987   2.155   5.385 -0.6621 -0.6751 -0.5000
  166DOPC  H13R20144   7.081   2.143   5.443 -0.8899  3.2752  0.9977
  166DOPC  H13S20145   6.926   2.242   5.418 -1.4871 -1.7198  0.8598
  166DOPC  C21420146   7.021   2.199   5.244 -0.7821  0.9441  0.4404
  166DOPC  H14R20147   7.068   2.298   5.261 -1.7726  1.3970  0.6230
  166DOPC  H14S20148   6.931   2.214   5.181 -1.0235  0.9690  0.7895
  166DOPC  C21520149   7.127   2.112   5.177  0.1353  0.5451  0.2020
  166DOPC  H15R20150   7.075   2.022   5.137  0.0426  0.7885 -0.2328
  166DOPC  H15S20151   7.203   2.078   5.250 -0.8620 -1.1576  0.5028
  166DOPC  C21620152   7.204   2.183   5.060  0.6663 -0.2769 -0.4811
  166DOPC  H16R20153   7.276   2.257   5.101 -1.8018  2.1422 -0.2427
  166DOPC  H16S20154   7.127   2.248   5.013  0.7796  0.5308  0.4153
  166DOPC  C21720155   7.268   2.083   4.963 -0.6950 -0.3933 -0.6224
  166DOPC  H17R20156   7.239   2.098   4.857 -0.0141  0.0223 -0.7595
  166DOPC  H17S20157   7.217   1.987   4.984  0.0974 -0.3196  1.9316
  166DOPC  C21820158   7.422   2.080   4.974 -1.0186 -0.3912  0.0204
  166DOPC  H18R20159   7.466   2.012   4.899 -1.2165 -0.6495  0.1362
  166DOPC  H18S20160   7.449   2.053   5.079  2.3219 -1.5524 -1.0065
  166DOPC  H18T20161   7.464   2.181   4.954 -1.8371  0.2995  1.6065
  166DOPC   C3320162   6.502   1.903   6.116  0.5470 -0.4113  0.6097
  166DOPC   H3X20163   6.575   1.820   6.123 -0.7192 -1.4313  2.3290
  166DOPC   H3Y20164   6.540   1.991   6.173 -1.7900 -0.6020  2.6275
  166DOPC   C3420165   6.492   1.929   5.969 -0.0346 -0.2447 -0.2326
  166DOPC   H4X20166   6.444   1.849   5.908  0.6983 -0.7523 -0.1539
  166DOPC   H4Y20167   6.598   1.930   5.938  1.1608  2.2757  3.3518
  166DOPC   C3520168   6.432   2.073   5.935  0.1338 -0.2395  0.9218
  166DOPC   H5X20169   6.507   2.147   5.970  0.7277 -0.6513  0.5156
  166DOPC   H5Y20170   6.338   2.100   5.989 -0.4059  1.6063 -0.8432
  166DOPC   C3620171   6.399   2.104   5.784 -0.4464  0.3547 -0.0040
  166DOPC   H6X20172   6.295   2.072   5.759 -0.3504 -1.9356  2.0913
  166DOPC   H6Y20173   6.408   2.213   5.766  0.9205  0.4280  0.9441
  166DOPC   C3720174   6.484   2.041   5.677  0.0231  0.4028  0.1503
  166DOPC   H7X20175   6.593   2.062   5.688  0.4408 -1.6086  0.3556
  166DOPC   H7Y20176   6.476   1.930   5.684  0.3634 -0.1752 -5.0151
  166DOPC   C3820177   6.428   2.063   5.537  0.0192  0.2242 -0.5783
  166DOPC   H8X20178   6.440   2.171   5.515  0.4822  0.1827 -0.5386
  166DOPC   H8Y20179   6.320   2.041   5.549  0.2813 -0.8300  0.0487
  166DOPC   C3920180   6.498   1.969   5.439  0.1849  0.4094  1.2823
  166DOPC   H9X20181   6.552   1.883   5.481 -1.5591 -1.4665 -0.1356
  166DOPC  C31020182   6.486   1.977   5.307 -0.1038  0.1091 -0.3082
  166DOPC  H10X20183   6.541   1.907   5.242  3.6401  1.3072  1.2793
  166DOPC  C31120184   6.414   2.087   5.235 -0.1034  0.2605 -0.6127
  166DOPC  H11X20185   6.324   2.112   5.296 -0.4235 -0.9712 -0.5444
  166DOPC  H11Y20186   6.379   2.046   5.138  3.4944 -0.0458 -1.9074
  166DOPC  C31220187   6.497   2.204   5.202 -0.3794 -0.2254 -0.4693
  166DOPC  H12X20188   6.526   2.258   5.295 -0.9789 -0.1469 -0.3261
  166DOPC  H12Y20189   6.432   2.268   5.138  1.5225  1.7961 -0.5070
  166DOPC  C31320190   6.617   2.174   5.117 -0.3059  0.5192  0.4208
  166DOPC  H13X20191   6.692   2.111   5.168  0.5507 -0.9537 -2.4086
  166DOPC  H13Y20192   6.583   2.106   5.035  2.1784 -3.5700  2.4408
  166DOPC  C31420193   6.689   2.292   5.061  0.2383  0.5200  0.8253
  166DOPC  H14X20194   6.620   2.367   5.016  1.8043  0.7725 -1.3215
  166DOPC  H14Y20195   6.732   2.344   5.150  0.7056  0.1446  0.8239
  166DOPC  C31520196   6.783   2.245   4.948  0.3159  0.3341 -0.5657
  166DOPC  H15X20197   6.729   2.190   4.868  0.4939  0.7308 -0.9632
  166DOPC  H15Y20198   6.852   2.165   4.982 -1.3550 -0.6116  0.7428
  166DOPC  C31620199   6.864   2.353   4.871 -0.7726  0.2646 -0.1591
  166DOPC  H16X20200   6.804   2.440   4.836 -0.9251  0.0601 -0.4054
  166DOPC  H16Y20201   6.928   2.384   4.956 -0.0515  0.3844 -0.7348
  166DOPC  C31720202   6.948   2.285   4.762  0.5699 -0.3951  0.1152
  166DOPC  H17X20203   6.993   2.191   4.801  1.4037  0.1941  0.6020
  166DOPC  H17Y20204   6.872   2.252   4.687 -0.3286  1.0643  0.3221
  166DOPC  C31820205   7.051   2.379   4.704 -0.2325 -0.1112  0.1668
  166DOPC  H18X20206   7.106   2.330   4.620 -0.1404  2.0944 -1.1406
  166DOPC  H18Y20207   7.005   2.472   4.664  1.2746  0.4017 -0.4765
  166DOPC  H18Z20208   7.127   2.422   4.772 -1.1429  1.3731  0.2878
  167DOPC     N20209   6.064   0.629   6.928 -0.0855  0.2369 -0.3026
  167DOPC   C1220210   6.069   0.515   6.830 -0.7549  0.2841 -0.0739
  167DOPC  H12A20211   6.090   0.431   6.895 -1.0429  1.0797  1.0712
  167DOPC  H12B20212   6.154   0.538   6.767 -0.4156  1.9911  0.9608
  167DOPC   C1320213   6.027   0.748   6.855  0.1575 -0.0660 -0.5051
  167DOPC  H13A20214   6.019   0.837   6.916 -0.3255 -0.4043 -0.0638
  167DOPC  H13B20215   6.098   0.764   6.775  1.6873 -3.7048 -0.0684
  167DOPC  H13C20216   5.932   0.744   6.806  0.8402  2.8148 -2.2768
  167DOPC   C1420217   6.196   0.652   6.992  0.4291  0.1439  0.0435
  167DOPC  H14A20218   6.254   0.702   6.916  1.0552 -2.1828 -1.0799
  167DOPC  H14B20219   6.194   0.717   7.079  1.5270 -0.4710  0.5394
  167DOPC  H14C20220   6.241   0.559   7.022 -0.0394  0.2689  1.1811
  167DOPC   C1520221   5.970   0.600   7.038  0.2260  0.3188 -0.1507
  167DOPC  H15A20222   5.881   0.550   7.005 -0.4703  1.4730 -0.0751
  167DOPC  H15B20223   5.942   0.684   7.099  1.5874  0.5928  0.1466
  167DOPC  H15C20224   6.020   0.526   7.099  1.1258  0.5532 -0.5807
  167DOPC   C1120225   5.951   0.479   6.738 -0.4719  0.7466  0.5341
  167DOPC  H11A20226   5.926   0.572   6.683  1.3548 -0.1824 -2.1052
  167DOPC  H11B20227   5.993   0.409   6.662 -0.0623 -0.3696  1.7462
  167DOPC     P20228   5.701   0.434   6.767 -0.3847 -0.1078 -0.0400
  167DOPC   O1320229   5.680   0.576   6.733  0.3199 -0.6133  0.6281
  167DOPC   O1420230   5.612   0.378   6.871  0.1513 -0.1421  0.1311
  167DOPC   O1220231   5.852   0.408   6.809  0.0353 -0.5026  1.0264
  167DOPC   O1120232   5.695   0.345   6.632 -0.2256 -0.4575  0.4472
  167DOPC    C120233   5.752   0.212   6.637 -0.2795  0.1685  0.1333
  167DOPC    HA20234   5.674   0.133   6.640  0.3949 -0.4739  1.7923
  167DOPC    HB20235   5.807   0.183   6.728 -1.1691 -1.6978  0.1124
  167DOPC    C220236   5.840   0.188   6.506  1.2162  0.1720 -0.2285
  167DOPC    HS20237   5.927   0.256   6.507  1.8309 -0.3924 -3.2840
  167DOPC   O2120238   5.766   0.200   6.381 -0.4760  0.4458  0.7436
  167DOPC   C2120239   5.828   0.268   6.282  0.7807 -0.2122 -0.5996
  167DOPC   O2220240   5.922   0.339   6.289  0.2280 -0.2491  0.2687
  167DOPC   C2220241   5.746   0.226   6.155  0.3194  0.0628  0.3649
  167DOPC   H2R20242   5.644   0.262   6.181 -0.8159 -2.5140 -0.1713
  167DOPC   H2S20243   5.750   0.115   6.146  0.2297  0.0794  0.1341
  167DOPC    C320244   5.889   0.035   6.501  0.3666  0.3900 -0.6466
  167DOPC    HX20245   5.798  -0.027   6.518  1.0589 -0.3389  0.5231
  167DOPC    HY20246   5.959   0.014   6.585  1.4215  3.5273 -0.5967
  167DOPC   O3120247   5.943  -0.007   6.377  0.2888 -0.0489  0.0826
  167DOPC   C3120248   6.077   0.031   6.366  0.0265  0.2174 -0.4153
  167DOPC   O3220249   6.132   0.105   6.444  0.6730  0.6840 -0.2197
  167DOPC   C3220250   6.128  -0.025   6.229 -0.1322  0.3024  0.3216
  167DOPC   H2X20251   6.233   0.003   6.207 -0.0535 -1.5253 -2.1248
  167DOPC   H2Y20252   6.125  -0.135   6.244  1.9380  0.3970  1.8425
  167DOPC   C2320253   5.776   0.292   6.018 -0.4733  0.0206  0.2310
  167DOPC   H3R20254   5.855   0.224   5.978 -1.9163 -1.4051 -0.2981
  167DOPC   H3S20255   5.799   0.400   6.029  0.3935  0.0724 -1.7106
  167DOPC   C2420256   5.663   0.277   5.921  0.0612 -0.2709  0.1756
  167DOPC   H4R20257   5.576   0.341   5.948  0.3587  0.0309  0.4315
  167DOPC   H4S20258   5.630   0.171   5.913  0.2648 -0.3791  0.7150
  167DOPC   C2520259   5.702   0.320   5.773 -0.4233 -0.0799  0.2654
  167DOPC   H5R20260   5.793   0.259   5.755 -1.4368 -1.4151 -0.4760
  167DOPC   H5S20261   5.739   0.425   5.774  1.4181 -0.6757 -0.6203
  167DOPC   C2620262   5.596   0.303   5.670 -0.6211 -0.4181  0.3739
  167DOPC   H6R20263   5.526   0.387   5.692 -0.5020 -0.0775 -0.5104
  167DOPC   H6S20264   5.545   0.204   5.674  1.0074 -1.2911  0.1957
  167DOPC   C2720265   5.650   0.321   5.529  0.1168  0.3377 -0.3681
  167DOPC   H7R20266   5.748   0.269   5.532 -0.5123 -1.0029 -1.7450
  167DOPC   H7S20267   5.676   0.426   5.502  1.9294 -0.3080 -1.2922
  167DOPC   C2820268   5.577   0.262   5.404  0.7801 -0.1208 -0.8526
  167DOPC   H8R20269   5.569   0.151   5.408 -3.4491  0.0222 -0.9620
  167DOPC   H8S20270   5.637   0.285   5.313  3.2901  1.5428  1.0697
  167DOPC   C2920271   5.433   0.306   5.396 -0.1128  0.6304  0.0389
  167DOPC   H9R20272   5.384   0.296   5.494  1.3509  2.0999  0.9671
  167DOPC  C21020273   5.363   0.308   5.280 -0.1828 -1.0266 -0.1291
  167DOPC  H10R20274   5.255   0.330   5.282  0.2944  2.0047 -2.0007
  167DOPC  C21120275   5.418   0.280   5.140 -0.4750  0.8153  0.5395
  167DOPC  H11R20276   5.344   0.233   5.072 -0.7314  0.9635  0.7157
  167DOPC  H11S20277   5.494   0.199   5.146 -0.1022  0.9794 -1.2547
  167DOPC  C21220278   5.497   0.397   5.074 -0.3531 -0.0188 -0.2661
  167DOPC  H12R20279   5.581   0.423   5.142 -1.1346  1.3333  0.2340
  167DOPC  H12S20280   5.537   0.368   4.974 -0.3182  1.9954 -0.8811
  167DOPC  C21320281   5.415   0.521   5.061 -0.0057  0.6056 -0.0397
  167DOPC  H13R20282   5.476   0.613   5.068 -0.3615  0.7301  1.9603
  167DOPC  H13S20283   5.364   0.535   5.158  1.2286 -1.7510  1.0298
  167DOPC  C21420284   5.323   0.525   4.936  0.7785 -0.3815  0.3424
  167DOPC  H14R20285   5.247   0.444   4.941  0.2211 -0.0860 -2.0848
  167DOPC  H14S20286   5.381   0.493   4.846 -1.5299 -0.6806 -1.1117
  167DOPC  C21520287   5.263   0.666   4.920 -0.1199 -0.1892  0.3433
  167DOPC  H15R20288   5.340   0.745   4.904 -0.6323 -0.0603 -1.7263
  167DOPC  H15S20289   5.205   0.704   5.007  1.6394  0.1095  1.4340
  167DOPC  C21620290   5.163   0.660   4.807  0.1522 -0.2173  0.4132
  167DOPC  H16R20291   5.075   0.598   4.833 -0.8306  0.7585 -0.4559
  167DOPC  H16S20292   5.221   0.620   4.722  1.3873  0.2500  1.0094
  167DOPC  C21720293   5.104   0.800   4.771 -0.2689 -0.3939  0.2519
  167DOPC  H17R20294   5.185   0.876   4.768 -1.6942  1.1948  0.3794
  167DOPC  H17S20295   5.036   0.837   4.851  0.3256 -1.6026  1.3525
  167DOPC  C21820296   5.038   0.798   4.630 -0.0526 -0.9220  0.2607
  167DOPC  H18R20297   5.113   0.763   4.557  0.4704  1.2918 -0.3226
  167DOPC  H18S20298   5.010   0.903   4.608 -1.0581 -1.3270 -0.4944
  167DOPC  H18T20299   4.951   0.728   4.630  0.1282 -1.1529  0.4589
  167DOPC   C3320300   6.037   0.011   6.118  0.1847 -0.8416 -0.1764
  167DOPC   H3X20301   6.026   0.122   6.110 -0.3879 -1.0134 -2.2464
  167DOPC   H3Y20302   5.933  -0.020   6.139  0.0298  1.6557  3.8972
  167DOPC   C3420303   6.090  -0.038   5.985 -0.3812  1.0911  0.7342
  167DOPC   H4X20304   6.195  -0.002   5.975  0.6592 -1.4505  1.7858
  167DOPC   H4Y20305   6.022   0.003   5.907 -1.2701  0.8332  1.3551
  167DOPC   C3520306   6.107  -0.193   5.970 -0.2045 -0.2440 -0.5047
  167DOPC   H5X20307   6.025  -0.252   6.017 -1.2280  1.4304 -0.0711
  167DOPC   H5Y20308   6.199  -0.226   6.023 -0.0678  0.3639 -0.3558
  167DOPC   C3620309   6.089  -0.225   5.816 -0.4417 -0.3328 -0.0896
  167DOPC   H6X20310   5.988  -0.194   5.781  0.0874  0.0161 -1.3401
  167DOPC   H6Y20311   6.159  -0.161   5.759  1.5073 -3.1870 -1.1093
  167DOPC   C3720312   6.099  -0.377   5.782 -0.4720 -0.9501 -0.4719
  167DOPC   H7X20313   6.203  -0.409   5.804  0.1247  1.5036  0.5621
  167DOPC   H7Y20314   6.033  -0.443   5.843  0.5196 -2.3767 -0.8768
  167DOPC   C3820315   6.054  -0.395   5.637 -0.4407  0.5666 -0.8199
  167DOPC   H8X20316   5.961  -0.340   5.615 -0.3165  1.6727  1.2445
  167DOPC   H8Y20317   6.047  -0.504   5.614 -0.4977  0.5047 -0.5008
  167DOPC   C3920318   6.164  -0.338   5.546 -0.2007  0.0013  0.0853
  167DOPC   H9X20319   6.219  -0.256   5.594 -1.6708  2.5124 -2.2901
  167DOPC  C31020320   6.190  -0.388   5.421 -0.5774  0.5512 -0.1176
  167DOPC  H10X20321   6.284  -0.369   5.367 -0.1348 -2.8849 -0.8347
  167DOPC  C31120322   6.109  -0.491   5.356  0.1074 -0.2216  0.6699
  167DOPC  H11X20323   6.007  -0.494   5.400 -1.0778 -1.0980 -1.9727
  167DOPC  H11Y20324   6.158  -0.590   5.351  1.1010  0.2388  1.0300
  167DOPC  C31220325   6.091  -0.441   5.212  0.1798  0.1658  0.2891
  167DOPC  H12X20326   6.048  -0.339   5.202  1.2754  0.7722  1.4561
  167DOPC  H12Y20327   6.010  -0.505   5.170  0.1840  0.6548 -0.4781
  167DOPC  C31320328   6.212  -0.461   5.107  0.0563  0.1863  0.2848
  167DOPC  H13X20329   6.170  -0.442   5.006  2.2723 -1.2179 -0.9994
  167DOPC  H13Y20330   6.286  -0.380   5.125 -2.6062  2.6350  0.9980
  167DOPC  C31420331   6.260  -0.605   5.113  0.3840  0.1485  0.1734
  167DOPC  H14X20332   6.305  -0.626   5.212  2.6471 -0.0591 -0.8335
  167DOPC  H14Y20333   6.185  -0.686   5.101  1.4679 -0.5126 -3.7526
  167DOPC  C31520334   6.369  -0.659   5.015 -0.1546 -0.2625 -0.1372
  167DOPC  H15X20335   6.441  -0.575   5.012 -0.2005 -0.2454 -1.4850
  167DOPC  H15Y20336   6.329  -0.668   4.911  0.4021  1.0101 -0.4782
  167DOPC  C31620337   6.433  -0.785   5.061  0.3005 -0.4363 -0.3816
  167DOPC  H16X20338   6.482  -0.785   5.161  1.3315 -2.4438 -0.8262
  167DOPC  H16Y20339   6.357  -0.864   5.080  0.6291 -0.4344  1.0411
  167DOPC  C31720340   6.522  -0.837   4.943 -0.7001 -0.6483 -0.3026
  167DOPC  H17X20341   6.472  -0.906   4.872 -1.8196  1.5449 -1.7383
  167DOPC  H17Y20342   6.553  -0.746   4.887 -1.0597  0.3760  1.0923
  167DOPC  C31820343   6.653  -0.898   4.997  0.8918  0.0558 -0.6441
  167DOPC  H18X20344   6.628  -0.990   5.053 -0.2936 -0.1419 -1.4543
  167DOPC  H18Y20345   6.712  -0.933   4.910 -0.3854 -1.9732 -0.7521
  167DOPC  H18Z20346   6.703  -0.821   5.060  0.3510  0.3332 -0.5471
  168DOPC     N20347   1.972   6.930   7.291 -0.0006 -0.1867 -0.6122
  168DOPC   C1220348   1.838   6.950   7.208 -0.4100 -0.0335 -0.8522
  168DOPC  H12A20349   1.829   7.057   7.198 -0.7394 -0.0796 -1.0682
  168DOPC  H12B20350   1.759   6.922   7.276  0.9056 -2.2426 -0.1239
  168DOPC   C1320351   1.971   7.003   7.421  0.1499 -0.2121 -0.0800
  168DOPC  H13A20352   1.912   6.952   7.497  0.6149  1.9187  1.8080
  168DOPC  H13B20353   2.072   7.010   7.457  0.1546  0.0149 -0.1370
  168DOPC  H13C20354   1.937   7.105   7.418  1.6284  0.2777 -0.7589
  168DOPC   C1420355   2.083   6.988   7.204  0.0432  0.3468  0.3837
  168DOPC  H14A20356   2.057   6.975   7.100  0.6605  1.5470  0.0597
  168DOPC  H14B20357   2.087   7.095   7.210  1.1334  0.2542  1.9103
  168DOPC  H14C20358   2.183   6.954   7.228  0.1614  0.1435 -0.3683
  168DOPC   C1520359   2.002   6.786   7.304  0.4285  0.0781 -0.4087
  168DOPC  H15A20360   1.921   6.734   7.353 -0.3872 -0.1836 -1.9702
  168DOPC  H15B20361   2.091   6.765   7.362  0.6744 -0.8321 -1.0829
  168DOPC  H15C20362   2.025   6.733   7.213  2.8353 -1.5951  1.0437
  168DOPC   C1120363   1.815   6.879   7.074 -0.5293 -0.2662  0.1720
  168DOPC  H11A20364   1.843   6.950   6.992 -2.0360  1.0421  0.7389
  168DOPC  H11B20365   1.884   6.793   7.063  0.6593  0.3223  2.4635
  168DOPC     P20366   1.577   6.927   6.969  0.1391  0.2398  0.4739
  168DOPC   O1320367   1.595   7.073   7.004 -0.4809 -0.6080  0.6051
  168DOPC   O1420368   1.444   6.863   6.972 -0.1238  0.6946 -0.4095
  168DOPC   O1220369   1.677   6.850   7.064 -0.0532  0.0784 -0.6664
  168DOPC   O1120370   1.634   6.905   6.827 -0.1159 -0.2046  0.2196
  168DOPC    C120371   1.640   6.775   6.775 -0.7785  0.5772  0.1690
  168DOPC    HA20372   1.554   6.708   6.799  1.0208 -2.0134 -0.1859
  168DOPC    HB20373   1.736   6.728   6.804  0.8819  2.5580 -1.8217
  168DOPC    C220374   1.653   6.775   6.621  0.3009 -0.0073  0.8656
  168DOPC    HS20375   1.652   6.668   6.592 -0.6562  0.2306 -0.0394
  168DOPC   O2120376   1.774   6.837   6.572 -0.1691 -0.3467 -0.3895
  168DOPC   C2120377   1.803   6.806   6.443 -0.0863 -0.1806 -0.0966
  168DOPC   O2220378   1.762   6.709   6.385 -0.2090  0.2951  0.1459
  168DOPC   C2220379   1.897   6.913   6.391 -0.5408 -0.8633 -0.0888
  168DOPC   H2R20380   2.001   6.873   6.386  0.3359  1.0779  1.2003
  168DOPC   H2S20381   1.891   7.001   6.460 -0.2546 -1.3917  0.6275
  168DOPC    C320382   1.526   6.853   6.571 -0.1370  0.0647  0.6180
  168DOPC    HX20383   1.546   6.956   6.607 -0.5945  0.7853 -1.0980
  168DOPC    HY20384   1.440   6.814   6.629 -0.4539  0.3071  0.3209
  168DOPC   O3120385   1.512   6.861   6.430  0.1673  0.0976  0.4626
  168DOPC   C3120386   1.463   6.762   6.362 -0.2606  0.3161 -0.4920
  168DOPC   O3220387   1.414   6.665   6.422 -0.0878 -0.5354 -0.7243
  168DOPC   C3220388   1.479   6.772   6.210 -0.1251 -0.0023 -0.0394
  168DOPC   H2X20389   1.383   6.820   6.181 -1.6151 -0.9000  2.9289
  168DOPC   H2Y20390   1.565   6.841   6.197  0.0169 -0.0551  0.5648
  168DOPC   C2320391   1.850   6.977   6.253 -0.2486  0.1547  0.3829
  168DOPC   H3R20392   1.905   7.071   6.228  2.2811 -1.8648 -2.3619
  168DOPC   H3S20393   1.743   7.001   6.266 -0.1259  0.6602  0.4761
  168DOPC   C2420394   1.865   6.883   6.132  0.0275  0.6746  0.3933
  168DOPC   H4R20395   1.811   6.924   6.043 -0.5700  0.3389  0.5904
  168DOPC   H4S20396   1.812   6.787   6.154  0.0815  0.6756  0.5224
  168DOPC   C2520397   2.007   6.844   6.105 -0.1418 -0.2242  0.3487
  168DOPC   H5R20398   2.037   6.778   6.190  1.9191 -0.7738 -0.7575
  168DOPC   H5S20399   2.069   6.936   6.104 -0.2365 -0.1026 -2.7246
  168DOPC   C2620400   2.038   6.771   5.970 -0.3580  0.6292 -0.3531
  168DOPC   H6R20401   1.983   6.674   5.978  1.4930 -0.3216  2.5924
  168DOPC   H6S20402   2.144   6.739   5.983 -0.3832  0.1417 -1.3145
  168DOPC   C2720403   2.013   6.853   5.845 -0.4163 -0.0488 -0.3036
  168DOPC   H7R20404   2.074   6.946   5.840 -0.0396 -0.3571 -2.4264
  168DOPC   H7S20405   1.905   6.879   5.851 -0.5806 -0.4953 -1.1874
  168DOPC   C2820406   2.035   6.789   5.702  0.3959 -0.1157  0.0343
  168DOPC   H8R20407   2.135   6.742   5.692 -0.0506 -1.0194 -0.3526
  168DOPC   H8S20408   2.042   6.866   5.623  0.8833 -0.2030 -0.0072
  168DOPC   C2920409   1.934   6.687   5.657 -0.0479  0.3795 -0.3376
  168DOPC   H9R20410   1.885   6.623   5.732 -0.2648 -0.8534 -1.4853
  168DOPC  C21020411   1.891   6.684   5.531  0.5388 -0.7468 -0.2323
  168DOPC  H10R20412   1.823   6.602   5.505  1.2941 -2.1818  2.0252
  168DOPC  C21120413   1.938   6.765   5.415 -0.8746  0.4138  0.2186
  168DOPC  H11R20414   2.042   6.729   5.395 -0.5263  1.6005 -0.1967
  168DOPC  H11S20415   1.950   6.874   5.430  0.5749  0.3507 -0.2623
  168DOPC  C21220416   1.867   6.766   5.277 -0.5180 -0.6872  0.1927
  168DOPC  H12R20417   1.924   6.831   5.207 -0.0950  0.0450  1.1942
  168DOPC  H12S20418   1.764   6.805   5.287 -0.2683  0.6597 -1.9246
  168DOPC  C21320419   1.854   6.622   5.207  0.0126  0.5564  0.3577
  168DOPC  H13R20420   1.813   6.552   5.283 -1.5848 -0.8772 -1.7086
  168DOPC  H13S20421   1.952   6.588   5.169 -0.7737 -1.0825 -0.2962
  168DOPC  C21420422   1.762   6.615   5.085  0.6717 -0.4379  0.2257
  168DOPC  H14R20423   1.747   6.714   5.036 -3.2178 -0.1766  1.5216
  168DOPC  H14S20424   1.661   6.584   5.123  0.1821 -1.5291 -1.8436
  168DOPC  C21520425   1.790   6.508   4.968  0.0928  0.0010  0.6062
  168DOPC  H15R20426   1.709   6.507   4.892  1.6415 -0.8512 -1.1084
  168DOPC  H15S20427   1.788   6.407   5.014 -0.1613  0.0474  0.6938
  168DOPC  C21620428   1.921   6.530   4.891  0.3537 -0.3651  0.0459
  168DOPC  H16R20429   2.001   6.516   4.967  0.2742 -0.1028  0.1804
  168DOPC  H16S20430   1.907   6.637   4.863  2.6931 -0.1047 -0.3722
  168DOPC  C21720431   1.935   6.439   4.771 -0.1224 -0.1676 -0.2560
  168DOPC  H17R20432   1.911   6.334   4.797  0.5916 -0.7307 -1.7482
  168DOPC  H17S20433   2.041   6.435   4.737 -0.1199 -0.7781 -0.1901
  168DOPC  C21820434   1.849   6.486   4.652 -0.2026 -0.8045 -0.2333
  168DOPC  H18R20435   1.741   6.490   4.676  0.1281 -0.5143  1.3281
  168DOPC  H18S20436   1.875   6.413   4.572 -1.3302 -1.9444  0.4022
  168DOPC  H18T20437   1.884   6.588   4.628  0.1184 -0.6244  0.9258
  168DOPC   C3320438   1.495   6.636   6.133  0.2530 -0.8480 -0.7268
  168DOPC   H3X20439   1.424   6.569   6.185 -0.2195  0.9571  1.0855
  168DOPC   H3Y20440   1.596   6.592   6.153  1.2793  1.5500 -0.3016
  168DOPC   C3420441   1.471   6.672   5.988 -0.2170  0.4001  0.2058
  168DOPC   H4X20442   1.398   6.755   5.985  0.6719  1.2786 -3.5031
  168DOPC   H4Y20443   1.428   6.587   5.930 -0.1197  0.3236  0.2451
  168DOPC   C3520444   1.594   6.714   5.906  0.6135 -0.4752  0.5900
  168DOPC   H5X20445   1.650   6.623   5.874 -0.4228 -0.7765 -0.4557
  168DOPC   H5Y20446   1.651   6.776   5.979 -1.6987  0.0023  2.0945
  168DOPC   C3620447   1.558   6.802   5.790  0.3810 -0.2662 -0.5389
  168DOPC   H6X20448   1.487   6.878   5.827  0.9134  0.1308 -0.3147
  168DOPC   H6Y20449   1.644   6.861   5.751 -0.5823  0.9042 -0.9520
  168DOPC   C3720450   1.495   6.729   5.674  0.1229 -0.3961  0.4555
  168DOPC   H7X20451   1.548   6.633   5.656  2.3269  0.7658  0.4160
  168DOPC   H7Y20452   1.390   6.707   5.700  0.4064 -1.3147  0.8603
  168DOPC   C3820453   1.494   6.816   5.547  0.2662  0.5332  0.1978
  168DOPC   H8X20454   1.594   6.797   5.503 -1.1847 -0.3327 -3.0564
  168DOPC   H8Y20455   1.494   6.923   5.574  1.5518  0.5123  0.3093
  168DOPC   C3920456   1.386   6.785   5.447  0.1147 -0.2633 -0.3937
  168DOPC   H9X20457   1.332   6.689   5.453 -2.2572  1.0941  2.4373
  168DOPC  C31020458   1.363   6.860   5.337 -0.2597  0.2648 -0.0014
  168DOPC  H10X20459   1.297   6.824   5.257  0.5902  0.4286 -0.7967
  168DOPC  C31120460   1.446   6.983   5.299 -0.0085 -0.2000 -0.0301
  168DOPC  H11X20461   1.546   6.974   5.345  0.1336  0.4629 -0.1949
  168DOPC  H11Y20462   1.401   7.077   5.338  0.7858  0.2136 -0.1114
  168DOPC  C31220463   1.466   7.005   5.141  0.2083 -0.3918 -0.1431
  168DOPC  H12X20464   1.533   7.093   5.126 -0.5373  0.4713  1.2687
  168DOPC  H12Y20465   1.366   7.038   5.107 -0.2081  0.6784  1.9127
  168DOPC  C31320466   1.519   6.881   5.068  0.1119 -0.4066 -0.1050
  168DOPC  H13X20467   1.601   6.840   5.131  1.9340 -0.4636 -2.3512
  168DOPC  H13Y20468   1.434   6.810   5.068  0.8178 -1.4294  3.3501
  168DOPC  C31420469   1.570   6.900   4.923 -0.1305  0.7518  0.1076
  168DOPC  H14X20470   1.636   6.989   4.917  1.7558 -0.5759 -0.0474
  168DOPC  H14Y20471   1.630   6.811   4.891 -1.2134  0.1243 -0.2321
  168DOPC  C31520472   1.444   6.911   4.834 -0.8167 -0.0207 -0.1718
  168DOPC  H15X20473   1.384   6.997   4.870 -1.3777 -0.3775 -0.2514
  168DOPC  H15Y20474   1.389   6.815   4.827 -2.9593  1.1925 -1.2177
  168DOPC  C31620475   1.482   6.954   4.696 -0.9305 -0.1473  0.0585
  168DOPC  H16X20476   1.389   6.991   4.649  0.0616 -0.4279 -2.2719
  168DOPC  H16Y20477   1.552   7.040   4.701  0.6560 -1.2501 -1.5800
  168DOPC  C31720478   1.537   6.853   4.598 -0.4641 -0.3626  0.1746
  168DOPC  H17X20479   1.600   6.899   4.519 -0.1539  1.1365  1.2583
  168DOPC  H17Y20480   1.608   6.787   4.652  0.9456  1.3366  0.4685
  168DOPC  C31820481   1.430   6.773   4.528 -1.2678 -0.2618 -0.0471
  168DOPC  H18X20482   1.480   6.681   4.490  1.2937  1.1345 -0.3567
  168DOPC  H18Y20483   1.352   6.740   4.599 -0.9640  1.7913  1.3085
  168DOPC  H18Z20484   1.384   6.831   4.445 -0.2248 -0.6110 -0.9041
  169DOPC     N20485   0.116   1.145   7.016 -0.1316  0.1302  0.2078
  169DOPC   C1220486   0.181   1.285   7.016  0.2958  0.2202 -0.0259
  169DOPC  H12A20487   0.278   1.282   6.969  2.0028  0.4547  3.1991
  169DOPC  H12B20488   0.195   1.307   7.121 -4.5584  1.5515  0.5740
  169DOPC   C1320489   0.185   1.067   7.124  0.0884  0.1981  0.5447
  169DOPC  H13A20490   0.166   0.962   7.107 -3.2713  0.9163 -1.0789
  169DOPC  H13B20491   0.291   1.086   7.126  0.8169 -3.1768  1.6001
  169DOPC  H13C20492   0.148   1.087   7.224 -1.6410  1.4929 -0.3174
  169DOPC   C1420493   0.138   1.080   6.882 -0.2479  0.6600 -0.3278
  169DOPC  H14A20494   0.244   1.087   6.859 -0.2364  0.1847 -0.4166
  169DOPC  H14B20495   0.100   0.980   6.874 -0.3232  0.5695  0.9027
  169DOPC  H14C20496   0.082   1.141   6.813 -0.4541  2.7799  1.5707
  169DOPC   C1520497  -0.031   1.136   7.032 -0.0389 -0.3007  0.1666
  169DOPC  H15A20498  -0.071   1.042   7.000 -0.7530 -0.1199  0.5128
  169DOPC  H15B20499  -0.082   1.211   6.973 -0.0178 -0.6958 -0.3599
  169DOPC  H15C20500  -0.052   1.161   7.135  0.2281  0.2168  0.1021
  169DOPC   C1120501   0.113   1.398   6.938 -0.2645  0.2450  0.7181
  169DOPC  H11A20502   0.016   1.416   6.989 -0.7982  3.9156 -1.2480
  169DOPC  H11B20503   0.174   1.491   6.941  1.5807 -0.8180 -0.8795
  169DOPC     P20504   0.019   1.426   6.693  0.1926 -0.1024  0.0055
  169DOPC   O1320505   0.093   1.531   6.630  0.4121  0.5655  0.2595
  169DOPC   O1420506  -0.113   1.465   6.749 -0.4928 -0.2574 -0.6375
  169DOPC   O1220507   0.106   1.354   6.804  0.4133  0.3416 -0.4792
  169DOPC   O1120508   0.006   1.307   6.592  0.0337  0.2381 -0.1322
  169DOPC    C120509   0.121   1.254   6.531  0.1800 -0.3131  0.4794
  169DOPC    HA20510   0.114   1.144   6.518  0.5958 -0.3308  0.4062
  169DOPC    HB20511   0.215   1.258   6.590  1.9628  0.7614 -2.2401
  169DOPC    C220512   0.138   1.301   6.389  0.2690 -0.9362  0.1456
  169DOPC    HS20513   0.134   1.412   6.403 -1.7941 -1.1190  1.3156
  169DOPC   O2120514   0.044   1.247   6.298  0.1306  0.1081 -0.2119
  169DOPC   C2120515  -0.061   1.313   6.286  0.2091  0.1280  0.5313
  169DOPC   O2220516  -0.094   1.414   6.353  0.2030  0.1344 -0.1943
  169DOPC   C2220517  -0.143   1.256   6.173 -0.6596 -0.3027  0.3653
  169DOPC   H2R20518  -0.142   1.146   6.190 -0.4160 -0.1525  1.4191
  169DOPC   H2S20519  -0.099   1.273   6.073 -1.7009 -1.8394 -0.3994
  169DOPC    C320520   0.273   1.268   6.332 -0.7591  0.3498  0.6522
  169DOPC    HX20521   0.286   1.159   6.317 -0.7149  0.0840  2.4333
  169DOPC    HY20522   0.352   1.302   6.402 -2.5074  2.7113  1.6415
  169DOPC   O3120523   0.286   1.329   6.204 -0.3994 -0.2276  0.2676
  169DOPC   C3120524   0.311   1.461   6.208  0.5267  0.3007  0.0852
  169DOPC   O3220525   0.319   1.535   6.306 -0.6770 -0.4575  0.6092
  169DOPC   C3220526   0.309   1.505   6.065  0.8050 -0.0503  0.1261
  169DOPC   H2X20527   0.347   1.610   6.070 -0.3922  0.3360  1.8747
  169DOPC   H2Y20528   0.376   1.439   6.005  1.1327 -0.1680  0.6086
  169DOPC   C2320529  -0.280   1.324   6.157  0.1687  0.2107  0.6434
  169DOPC   H3R20530  -0.256   1.423   6.114 -0.0304 -0.8132 -2.0068
  169DOPC   H3S20531  -0.331   1.331   6.256 -1.9122 -1.4688 -0.2259
  169DOPC   C2420532  -0.371   1.246   6.053 -0.5191 -0.0057  0.6864
  169DOPC   H4R20533  -0.374   1.136   6.069  2.3254 -0.4229 -0.9370
  169DOPC   H4S20534  -0.325   1.256   5.953 -0.6914 -0.6414  0.5340
  169DOPC   C2520535  -0.508   1.314   6.041 -0.3807 -0.3471  0.1767
  169DOPC   H5R20536  -0.486   1.422   6.030 -1.5159 -0.2027 -0.8194
  169DOPC   H5S20537  -0.566   1.306   6.136  0.9167 -1.1275  0.9398
  169DOPC   C2620538  -0.597   1.256   5.928 -0.2355  0.0232 -0.4706
  169DOPC   H6R20539  -0.587   1.145   5.929  0.1910  0.0112  2.4024
  169DOPC   H6S20540  -0.553   1.281   5.829 -0.9786  0.1725 -0.7700
  169DOPC   C2720541  -0.749   1.300   5.928 -0.1214 -0.5895  0.1011
  169DOPC   H7R20542  -0.796   1.273   6.025 -0.0689 -0.5412  0.1400
  169DOPC   H7S20543  -0.799   1.258   5.838 -0.8134 -1.6199  0.9398
  169DOPC   C2820544  -0.753   1.456   5.918 -0.0193 -0.2623  0.0665
  169DOPC   H8R20545  -0.700   1.485   5.825  0.5310  0.2256  0.5187
  169DOPC   H8S20546  -0.698   1.493   6.007 -0.0338  0.3271 -0.1643
  169DOPC   C2920547  -0.894   1.510   5.926  0.0605  0.0576 -0.0517
  169DOPC   H9R20548  -0.946   1.482   6.019  0.8062  0.5885  0.5336
  169DOPC  C21020549  -0.965   1.572   5.824  0.1650 -0.3818 -0.1089
  169DOPC  H10R20550  -1.069   1.592   5.855  0.8232  0.5850  1.6532
  169DOPC  C21120551  -0.924   1.621   5.692 -0.4446 -0.3025  0.0734
  169DOPC  H11R20552  -0.815   1.642   5.699 -0.5945  1.9102 -2.4662
  169DOPC  H11S20553  -0.971   1.719   5.668  0.2193  0.1011  0.3850
  169DOPC  C21220554  -0.945   1.520   5.575  0.1756 -0.4582 -0.5839
  169DOPC  H12R20555  -1.053   1.506   5.556 -0.0816 -0.4646  0.7947
  169DOPC  H12S20556  -0.907   1.420   5.607 -2.3231 -1.4493 -0.4988
  169DOPC  C21320557  -0.869   1.567   5.451  0.0907 -0.8575 -0.0814
  169DOPC  H13R20558  -0.771   1.608   5.483 -0.4564 -1.1022  2.0684
  169DOPC  H13S20559  -0.919   1.645   5.390  0.6700 -0.9830 -0.7298
  169DOPC  C21420560  -0.836   1.456   5.342 -0.3775 -0.1625 -0.0225
  169DOPC  H14R20561  -0.931   1.418   5.300 -0.9764 -0.5914  1.6427
  169DOPC  H14S20562  -0.776   1.371   5.383 -0.6049 -0.4108 -0.2090
  169DOPC  C21520563  -0.744   1.523   5.227 -0.1657  0.1324 -0.4700
  169DOPC  H15R20564  -0.658   1.580   5.269  0.2767 -0.0938 -1.0612
  169DOPC  H15S20565  -0.808   1.602   5.183  0.9525  0.9452 -0.6776
  169DOPC  C21620566  -0.690   1.432   5.117 -0.5007 -0.5478  0.8747
  169DOPC  H16R20567  -0.616   1.362   5.160 -0.0952 -1.2597 -0.8946
  169DOPC  H16S20568  -0.628   1.493   5.048 -1.0869  0.6916  1.4035
  169DOPC  C21720569  -0.795   1.345   5.040 -0.1198  0.4058  0.1039
  169DOPC  H17R20570  -0.846   1.277   5.113 -0.8747  0.9507  0.0993
  169DOPC  H17S20571  -0.738   1.276   4.975 -0.0926 -0.1283  0.6812
  169DOPC  C21820572  -0.910   1.430   4.971  0.1800  0.0962 -0.1885
  169DOPC  H18R20573  -0.971   1.482   5.048 -0.5776 -0.5939 -0.2978
  169DOPC  H18S20574  -0.978   1.375   4.901  0.4908 -1.3463  0.5968
  169DOPC  H18T20575  -0.859   1.510   4.913 -1.7973  1.3942 -0.2344
  169DOPC   C3320576   0.168   1.496   6.009 -0.0361 -0.3231  0.5081
  169DOPC   H3X20577   0.118   1.400   6.033  0.8397 -0.5869  1.3475
  169DOPC   H3Y20578   0.192   1.501   5.901 -0.9717  1.1955  0.3478
  169DOPC   C3420579   0.079   1.624   6.024 -0.8552  0.1090  0.6578
  169DOPC   H4X20580   0.136   1.705   5.972  0.6466 -1.0632  0.4246
  169DOPC   H4Y20581   0.064   1.647   6.132 -1.0152 -0.1736  0.6960
  169DOPC   C3520582  -0.056   1.614   5.956 -0.1526 -0.2396 -0.6837
  169DOPC   H5X20583  -0.101   1.715   5.955  1.4593  0.5352  0.3008
  169DOPC   H5Y20584  -0.121   1.551   6.021  1.9914 -1.0419  0.8073
  169DOPC   C3620585  -0.058   1.546   5.817 -0.1344  0.4469  0.4512
  169DOPC   H6X20586   0.002   1.591   5.734 -0.8776 -0.4012 -0.5770
  169DOPC   H6Y20587  -0.018   1.443   5.825  2.0082  1.1976  0.0002
  169DOPC   C3720588  -0.211   1.543   5.772 -0.1745  0.1508 -0.3226
  169DOPC   H7X20589  -0.257   1.514   5.869 -0.5817  0.1096 -0.5229
  169DOPC   H7Y20590  -0.240   1.648   5.749  1.6904  1.1660  1.6756
  169DOPC   C3820591  -0.247   1.451   5.663 -0.5434  0.4756  0.4512
  169DOPC   H8X20592  -0.229   1.346   5.694  0.5508  0.9108  1.3437
  169DOPC   H8Y20593  -0.172   1.469   5.583 -0.1293  1.5514  1.0568
  169DOPC   C3920594  -0.394   1.464   5.624  0.1510  0.0744  0.4689
  169DOPC   H9X20595  -0.460   1.460   5.711 -1.1636 -0.7993 -0.5300
  169DOPC  C31020596  -0.433   1.472   5.489  0.3699 -0.4975  0.3183
  169DOPC  H10X20597  -0.538   1.491   5.462  0.3984 -1.7217 -0.7868
  169DOPC  C31120598  -0.344   1.472   5.369 -0.4018  0.3690  0.5760
  169DOPC  H11X20599  -0.389   1.416   5.283 -0.0270  1.8985 -0.6711
  169DOPC  H11Y20600  -0.244   1.432   5.394 -0.5010 -0.8490 -0.7870
  169DOPC  C31220601  -0.303   1.604   5.298  0.2078  0.5590 -0.1131
  169DOPC  H12X20602  -0.255   1.678   5.366 -1.7883  1.7857  0.0285
  169DOPC  H12Y20603  -0.392   1.657   5.258 -1.6734 -1.0416  1.7394
  169DOPC  C31320604  -0.211   1.582   5.178  0.4987 -0.1793  0.5409
  169DOPC  H13X20605  -0.184   1.678   5.131 -1.7896 -0.2468 -1.0726
  169DOPC  H13Y20606  -0.124   1.521   5.209  0.6181 -1.1005 -1.4423
  169DOPC  C31420607  -0.279   1.512   5.050 -0.6420 -0.6248 -0.7091
  169DOPC  H14X20608  -0.274   1.403   5.072  0.1555 -0.7998 -1.6671
  169DOPC  H14Y20609  -0.386   1.539   5.044  0.0073  2.5766  0.1571
  169DOPC  C31520610  -0.208   1.548   4.915  0.5956 -0.2650  0.5209
  169DOPC  H15X20611  -0.192   1.658   4.915 -0.7772  0.0215 -2.0729
  169DOPC  H15Y20612  -0.275   1.528   4.829  1.6356  1.8270 -0.8565
  169DOPC  C31620613  -0.075   1.468   4.905 -0.0769  0.0752  0.6719
  169DOPC  H16X20614  -0.027   1.446   5.003 -1.8662 -3.9747  0.8172
  169DOPC  H16Y20615  -0.107   1.365   4.879 -0.5221 -0.3403  2.7301
  169DOPC  C31720616   0.028   1.523   4.805  0.1940 -0.1752 -0.3504
  169DOPC  H17X20617   0.056   1.624   4.843 -1.5337  1.2758 -2.6964
  169DOPC  H17Y20618   0.119   1.460   4.809  1.5787  1.6387 -1.4302
  169DOPC  C31820619  -0.025   1.517   4.662  0.3073 -0.4140 -0.9538
  169DOPC  H18X20620   0.050   1.544   4.584  0.0512 -0.3252 -1.1714
  169DOPC  H18Y20621  -0.076   1.420   4.644 -0.9835 -0.2204  1.2753
  169DOPC  H18Z20622  -0.103   1.594   4.647  0.4734 -0.5657 -2.8062
  170DOPC     N20623   6.883   0.125   6.910  0.0553  0.1404  0.1670
  170DOPC   C1220624   6.814   0.005   6.948  0.4588  1.0391  0.0547
  170DOPC  H12A20625   6.713   0.010   6.911  1.4509  1.7141 -2.7631
  170DOPC  H12B20626   6.810  -0.003   7.056  1.4460 -0.0590  0.0347
  170DOPC   C1320627   7.031   0.110   6.932 -0.1818 -0.3201  0.3011
  170DOPC  H13A20628   7.052   0.082   7.034 -1.6688  1.9319  1.3082
  170DOPC  H13B20629   7.071   0.043   6.857 -1.8618  0.5010 -1.4148
  170DOPC  H13C20630   7.070   0.210   6.920 -0.1266 -0.1471  1.7287
  170DOPC   C1420631   6.834   0.226   7.004  0.4633 -0.2529 -0.1584
  170DOPC  H14A20632   6.726   0.223   7.006  0.3990 -3.2758 -2.2181
  170DOPC  H14B20633   6.873   0.218   7.105  0.3595 -0.3783 -0.1284
  170DOPC  H14C20634   6.865   0.320   6.960  3.9649 -1.1722  0.0518
  170DOPC   C1520635   6.861   0.146   6.763 -0.2929  0.3196 -0.5448
  170DOPC  H15A20636   6.885   0.051   6.718 -3.1736  0.2489 -2.1669
  170DOPC  H15B20637   6.918   0.229   6.724 -1.6668  2.2556  1.2873
  170DOPC  H15C20638   6.755   0.166   6.754 -0.4085 -0.3007 -0.5892
  170DOPC   C1120639   6.870  -0.133   6.892 -0.4800 -0.0469  0.0089
  170DOPC  H11A20640   6.958  -0.161   6.953  0.1907  1.5239 -0.2034
  170DOPC  H11B20641   6.785  -0.205   6.905 -1.9860  1.3952 -1.4014
  170DOPC     P20642   7.033  -0.214   6.709 -0.7866 -0.0738 -0.0902
  170DOPC   O1320643   7.018  -0.356   6.764  0.2549  0.6902  0.7793
  170DOPC   O1420644   7.147  -0.132   6.748 -0.5655 -0.5343  0.4636
  170DOPC   O1220645   6.903  -0.135   6.753  0.1280 -0.2163  0.7821
  170DOPC   O1120646   7.028  -0.221   6.556  0.0794  0.0178  0.5876
  170DOPC    C120647   7.026  -0.098   6.483 -0.4900  0.4275  0.7159
  170DOPC    HA20648   7.125  -0.086   6.435  0.1717  0.7688  2.0931
  170DOPC    HB20649   7.041  -0.013   6.553  2.0354  0.3117  0.3898
  170DOPC    C220650   6.891  -0.085   6.395 -0.2061 -0.0910  0.4220
  170DOPC    HS20651   6.814  -0.084   6.474  0.0149  0.0624  0.6371
  170DOPC   O2120652   6.864  -0.198   6.308 -0.1716  0.2308 -0.2515
  170DOPC   C2120653   6.750  -0.212   6.255  0.5484  0.1703 -0.4087
  170DOPC   O2220654   6.643  -0.157   6.296  0.0024  0.4363 -0.2448
  170DOPC   C2220655   6.760  -0.323   6.148 -0.3082 -0.2157 -0.1406
  170DOPC   H2R20656   6.779  -0.416   6.205  0.2781 -1.1746 -1.8292
  170DOPC   H2S20657   6.849  -0.307   6.084 -2.9622 -0.2479 -4.1842
  170DOPC    C320658   6.890   0.052   6.317 -0.1221  0.9818 -0.6878
  170DOPC    HX20659   6.885   0.125   6.400  2.2222 -0.9950  1.3807
  170DOPC    HY20660   6.799   0.056   6.254 -0.8649  0.5942  0.3365
  170DOPC   O3120661   7.009   0.077   6.239 -0.1527 -0.4782 -0.2819
  170DOPC   C3120662   7.002   0.041   6.114 -0.2534  0.9806  0.5782
  170DOPC   O3220663   6.911  -0.014   6.056 -0.1289 -0.2995 -0.4481
  170DOPC   C3220664   7.139   0.071   6.046 -0.4578  0.0073  0.7180
  170DOPC   H2X20665   7.213   0.109   6.121  1.0349  0.1458 -0.7710
  170DOPC   H2Y20666   7.167  -0.024   5.996 -0.1634  0.8250 -0.7283
  170DOPC   C2320667   6.636  -0.327   6.057  0.0660 -0.6509  0.6180
  170DOPC   H3R20668   6.536  -0.340   6.105 -1.2567  1.9541 -1.2147
  170DOPC   H3S20669   6.653  -0.416   5.992 -0.5613 -0.0120 -0.4334
  170DOPC   C2420670   6.632  -0.205   5.958 -0.0368  0.3550 -0.6478
  170DOPC   H4R20671   6.732  -0.160   5.940  0.7741 -1.4900 -0.9126
  170DOPC   H4S20672   6.580  -0.126   6.017  0.1274  0.3414 -0.4844
  170DOPC   C2520673   6.570  -0.246   5.824  0.4942  0.0850  0.0732
  170DOPC   H5R20674   6.474  -0.302   5.828 -1.0704  2.6984  1.6210
  170DOPC   H5S20675   6.638  -0.319   5.774  0.7246 -0.7530  1.5370
  170DOPC   C2620676   6.549  -0.121   5.732 -0.3393 -0.7929 -0.5472
  170DOPC   H6R20677   6.641  -0.060   5.734  0.2065 -1.5909 -0.7410
  170DOPC   H6S20678   6.459  -0.079   5.782 -0.3279 -2.3266  0.8746
  170DOPC   C2720679   6.520  -0.160   5.585  0.1109 -0.7354 -0.3799
  170DOPC   H7R20680   6.466  -0.256   5.599 -0.8832 -0.2143 -0.6185
  170DOPC   H7S20681   6.615  -0.191   5.536 -0.4593 -0.6736 -1.5506
  170DOPC   C2820682   6.459  -0.049   5.495  0.6582  0.2683  0.1830
  170DOPC   H8R20683   6.533   0.034   5.487 -1.3926  2.2089  0.1518
  170DOPC   H8S20684   6.379  -0.003   5.557  0.9162 -1.5665  1.9825
  170DOPC   C2920685   6.412  -0.090   5.357  0.6795  0.1474 -0.4717
  170DOPC   H9R20686   6.303  -0.102   5.347  0.5252 -0.2619  1.2514
  170DOPC  C21020687   6.484  -0.088   5.246 -0.0444  0.0858 -0.0355
  170DOPC  H10R20688   6.439  -0.119   5.151  0.7453 -0.7765 -0.1274
  170DOPC  C21120689   6.631  -0.080   5.229 -0.0914  0.2617 -0.6366
  170DOPC  H11R20690   6.678  -0.045   5.323 -0.6354 -0.5578 -0.0477
  170DOPC  H11S20691   6.670  -0.004   5.158  0.2731  0.3145 -0.3840
  170DOPC  C21220692   6.688  -0.225   5.192 -0.0294  0.0524 -0.2454
  170DOPC  H12R20693   6.641  -0.306   5.251  0.7875 -1.6048 -1.7552
  170DOPC  H12S20694   6.798  -0.230   5.207  0.2936  0.7505 -2.0186
  170DOPC  C21320695   6.669  -0.259   5.039 -0.1845  0.0976 -0.2815
  170DOPC  H13R20696   6.706  -0.169   4.983 -1.7271 -0.0622 -1.6303
  170DOPC  H13S20697   6.560  -0.271   5.024 -0.3873 -0.1411  1.2220
  170DOPC  C21420698   6.739  -0.383   4.984 -0.0071  0.2346 -0.2356
  170DOPC  H14R20699   6.687  -0.469   5.032 -0.2162 -0.4161 -1.6031
  170DOPC  H14S20700   6.847  -0.373   5.011  0.0236  1.8721 -0.8472
  170DOPC  C21520701   6.740  -0.407   4.834 -0.5288 -0.7784  0.1078
  170DOPC  H15R20702   6.757  -0.305   4.794  0.8426 -0.1381  2.1583
  170DOPC  H15S20703   6.641  -0.430   4.790 -1.4499  2.3563  0.2931
  170DOPC  C21620704   6.850  -0.503   4.779 -0.1228 -0.1792  0.1825
  170DOPC  H16R20705   6.853  -0.596   4.839  0.0571 -0.3867 -0.1487
  170DOPC  H16S20706   6.947  -0.450   4.766  0.1745 -1.0395 -1.3131
  170DOPC  C21720707   6.816  -0.539   4.637  0.3677 -0.6098 -0.1100
  170DOPC  H17R20708   6.903  -0.593   4.594  2.0287  1.8818 -0.1176
  170DOPC  H17S20709   6.806  -0.445   4.579  1.6237 -0.6039 -0.3448
  170DOPC  C21820710   6.687  -0.627   4.617  0.6733 -0.5377  0.8608
  170DOPC  H18R20711   6.675  -0.648   4.508 -1.7979  2.1171  0.4903
  170DOPC  H18S20712   6.589  -0.585   4.649 -0.0498 -0.3795 -1.3984
  170DOPC  H18T20713   6.700  -0.722   4.674 -1.8846 -0.7415  1.2315
  170DOPC   C3320714   7.139   0.180   5.928 -0.2264 -0.5337 -0.5099
  170DOPC   H3X20715   7.237   0.230   5.920 -0.7772  0.5924 -0.3854
  170DOPC   H3Y20716   7.067   0.257   5.963 -0.1438  0.2315 -1.9362
  170DOPC   C3420717   7.097   0.130   5.788 -0.2932 -0.0547  0.4096
  170DOPC   H4X20718   7.000   0.075   5.787 -1.5457  1.9613 -2.4724
  170DOPC   H4Y20719   7.172   0.058   5.748 -0.6260 -1.3646  2.0156
  170DOPC   C3520720   7.099   0.242   5.686  0.3029 -0.5465  0.1061
  170DOPC   H5X20721   7.207   0.266   5.676  0.4711 -1.4220 -0.2489
  170DOPC   H5Y20722   7.042   0.319   5.742  1.4508 -0.6463  1.4871
  170DOPC   C3620723   7.034   0.209   5.547  0.1359  0.1399 -0.1429
  170DOPC   H6X20724   6.927   0.180   5.556 -0.1709  0.5579 -1.9078
  170DOPC   H6Y20725   7.027   0.302   5.485 -0.8601  0.5738  0.5979
  170DOPC   C3720726   7.103   0.097   5.468 -1.4008  0.5022 -0.0760
  170DOPC   H7X20727   7.206   0.118   5.434 -1.2732 -1.8211 -1.3487
  170DOPC   H7Y20728   7.121   0.008   5.532  0.1413 -0.9364 -2.3467
  170DOPC   C3820729   7.028   0.045   5.342  0.1443 -0.0971  0.0633
  170DOPC   H8X20730   6.934  -0.001   5.379 -0.5780  0.4641 -1.0013
  170DOPC   H8Y20731   7.083  -0.041   5.298 -0.2512 -0.7321  0.7692
  170DOPC   C3920732   7.008   0.147   5.232 -0.3521  0.0356 -0.2007
  170DOPC   H9X20733   6.957   0.240   5.260 -0.1259  0.0322  0.2484
  170DOPC  C31020734   7.060   0.139   5.106 -0.0015 -0.8609 -0.5644
  170DOPC  H10X20735   7.037   0.222   5.038  0.1837  0.9861  1.4974
  170DOPC  C31120736   7.140   0.028   5.054 -0.3709 -0.5973  0.9685
  170DOPC  H11X20737   7.111  -0.067   5.102 -0.7680 -1.5895 -1.1205
  170DOPC  H11Y20738   7.249   0.042   5.076  0.2181 -1.2517 -1.2716
  170DOPC  C31220739   7.126   0.018   4.899  1.4975 -0.5547 -0.2047
  170DOPC  H12X20740   7.145   0.112   4.843  0.7066  0.0772  0.5681
  170DOPC  H12Y20741   7.017   0.006   4.877  1.2576 -0.8677  1.1054
  170DOPC  C31320742   7.209  -0.100   4.837  0.6217 -0.0575  0.0271
  170DOPC  H13X20743   7.181  -0.115   4.731  0.1499  1.6967 -0.1250
  170DOPC  H13Y20744   7.314  -0.075   4.863  1.1371 -0.9975 -1.0604
  170DOPC  C31420745   7.192  -0.238   4.907 -0.9662 -0.1061 -0.1969
  170DOPC  H14X20746   7.223  -0.243   5.014 -0.0764 -0.2730 -0.4506
  170DOPC  H14Y20747   7.084  -0.257   4.889 -0.6306  0.2611 -2.9585
  170DOPC  C31520748   7.273  -0.353   4.834  0.5291  0.4658 -0.0354
  170DOPC  H15X20749   7.228  -0.364   4.733 -1.7342  0.1031  0.9369
  170DOPC  H15Y20750   7.243  -0.448   4.885 -1.0278 -0.0129 -1.7251
  170DOPC  C31620751   7.425  -0.346   4.834  0.3865 -0.0778 -0.5984
  170DOPC  H16X20752   7.459  -0.260   4.772  0.5070 -0.8230 -1.5932
  170DOPC  H16Y20753   7.469  -0.338   4.936 -3.1102  0.5776  1.0199
  170DOPC  C31720754   7.502  -0.464   4.764  0.1400 -0.1353  0.6981
  170DOPC  H17X20755   7.516  -0.540   4.844  0.0406  1.0019  1.8404
  170DOPC  H17Y20756   7.448  -0.496   4.673  1.0466 -2.6958  0.9792
  170DOPC  C31820757   7.632  -0.418   4.710 -0.5131  0.2847 -0.0691
  170DOPC  H18X20758   7.681  -0.498   4.650  1.2999  0.4117  1.1681
  170DOPC  H18Y20759   7.621  -0.331   4.642  2.9253  0.8701 -0.0873
  170DOPC  H18Z20760   7.701  -0.401   4.796 -0.0055 -2.1026  0.0737
  171DOPC     N20761   4.819   3.591   2.772  0.0786  0.6581  0.8356
  171DOPC   C1220762   4.666   3.614   2.752 -0.3883  0.8780  0.2669
  171DOPC  H12A20763   4.650   3.697   2.684 -2.1871  0.9040  0.6829
  171DOPC  H12B20764   4.628   3.621   2.852 -1.4957 -4.5652  0.5487
  171DOPC   C1320765   4.887   3.574   2.643  0.4778 -0.4200 -0.0493
  171DOPC  H13A20766   4.873   3.663   2.584 -0.2608  0.3297  1.2067
  171DOPC  H13B20767   4.994   3.560   2.653  0.7621  1.7500  0.4115
  171DOPC  H13C20768   4.832   3.497   2.592  3.0650 -2.9285  0.6476
  171DOPC   C1420769   4.840   3.468   2.862 -0.3413 -0.4386 -0.6855
  171DOPC  H14A20770   4.811   3.493   2.963  2.0655  1.0592 -0.2667
  171DOPC  H14B20771   4.801   3.376   2.822 -0.8932  0.6640 -2.8270
  171DOPC  H14C20772   4.947   3.461   2.877  0.0932  0.6500 -2.8321
  171DOPC   C1520773   4.871   3.703   2.842 -0.2830 -0.7817  0.2638
  171DOPC  H15A20774   4.972   3.691   2.878 -0.1854  2.1772  1.3040
  171DOPC  H15B20775   4.827   3.728   2.938  1.2186  2.4363  0.2667
  171DOPC  H15C20776   4.875   3.791   2.779 -1.0074 -0.7788  0.2118
  171DOPC   C1120777   4.583   3.499   2.686  0.2371  0.5266  0.1317
  171DOPC  H11A20778   4.479   3.532   2.706  0.6389  1.3211  0.9746
  171DOPC  H11B20779   4.619   3.511   2.582  1.5599  0.8415  0.6013
  171DOPC     P20780   4.485   3.260   2.753 -0.2258  0.0060 -0.6536
  171DOPC   O1320781   4.545   3.136   2.801  0.0859  0.2163 -0.6265
  171DOPC   O1420782   4.416   3.259   2.624  0.1650 -0.2993  0.1496
  171DOPC   O1220783   4.607   3.361   2.728 -0.5397 -0.3500  0.6185
  171DOPC   O1120784   4.397   3.333   2.862  0.1316 -0.1407 -0.3456
  171DOPC    C120785   4.454   3.417   2.963  0.4507  0.3324 -0.0802
  171DOPC    HA20786   4.478   3.519   2.925 -0.7806 -0.0312 -2.0161
  171DOPC    HB20787   4.554   3.380   2.994 -0.2475 -1.0016  0.6474
  171DOPC    C220788   4.356   3.428   3.084 -0.3773  0.7509  0.1792
  171DOPC    HS20789   4.403   3.493   3.162  0.3489  0.2571  0.1634
  171DOPC   O2120790   4.313   3.297   3.134  0.1015  0.8055  0.0670
  171DOPC   C2120791   4.411   3.227   3.181 -0.0410  0.1375 -0.3903
  171DOPC   O2220792   4.527   3.265   3.192  0.3060  0.5587 -0.5886
  171DOPC   C2220793   4.363   3.085   3.208  0.2328  0.0086 -0.1906
  171DOPC   H2R20794   4.279   3.058   3.140  0.2516  0.9552 -0.6126
  171DOPC   H2S20795   4.322   3.092   3.311 -0.3068  1.6889 -0.4852
  171DOPC    C320796   4.223   3.497   3.052  0.0237 -0.4773 -0.0041
  171DOPC    HX20797   4.169   3.429   2.983 -0.2773  0.1330 -0.3865
  171DOPC    HY20798   4.249   3.589   2.994  0.7940 -0.4910  0.3106
  171DOPC   O3120799   4.148   3.539   3.172 -0.3148  0.2334  0.0910
  171DOPC   C3120800   4.194   3.650   3.227 -0.3733  0.1856  0.2165
  171DOPC   O3220801   4.288   3.718   3.184  0.8740  0.1322  0.8182
  171DOPC   C3220802   4.122   3.660   3.367 -0.5382 -0.7461 -0.0456
  171DOPC   H2X20803   4.023   3.699   3.335 -1.5391 -1.1730  2.2871
  171DOPC   H2Y20804   4.117   3.559   3.413 -1.7308 -0.2249  1.0187
  171DOPC   C2320805   4.482   2.986   3.204  0.5747 -0.3182 -0.4462
  171DOPC   H3R20806   4.557   3.002   3.284 -3.0033  0.6614  3.0549
  171DOPC   H3S20807   4.516   2.986   3.099 -1.2798 -3.0149 -1.1594
  171DOPC   C2420808   4.427   2.849   3.241  0.5508  0.5520  0.0469
  171DOPC   H4R20809   4.357   2.830   3.157  2.3534  1.1449 -1.6490
  171DOPC   H4S20810   4.369   2.861   3.335 -1.8586  1.7212 -1.4789
  171DOPC   C2520811   4.524   2.735   3.237 -0.2634 -0.2191 -0.5024
  171DOPC   H5R20812   4.572   2.740   3.337  0.3142 -2.4379 -0.6140
  171DOPC   H5S20813   4.589   2.752   3.149 -1.3300  0.3758 -1.1965
  171DOPC   C2620814   4.466   2.598   3.225 -0.4840  0.3051  0.3676
  171DOPC   H6R20815   4.421   2.580   3.126  0.9564 -0.0867 -0.2472
  171DOPC   H6S20816   4.399   2.573   3.310  1.5258 -1.5169  1.5149
  171DOPC   C2720817   4.583   2.501   3.238  0.3507 -0.1736 -0.5201
  171DOPC   H7R20818   4.618   2.492   3.343 -0.7934  0.4493 -0.0689
  171DOPC   H7S20819   4.659   2.536   3.165  0.0560 -0.5042 -0.9870
  171DOPC   C2820820   4.551   2.358   3.185  0.3207  0.4197 -0.1988
  171DOPC   H8R20821   4.647   2.304   3.169 -1.8458 -3.3981 -1.6668
  171DOPC   H8S20822   4.500   2.366   3.087  0.1301  1.7560 -0.0168
  171DOPC   C2920823   4.468   2.275   3.276  1.2557  0.5305 -0.0465
  171DOPC   H9R20824   4.360   2.284   3.255  1.4333 -1.0591 -2.0683
  171DOPC  C21020825   4.518   2.203   3.379  0.7987 -0.5737  0.3030
  171DOPC  H10R20826   4.445   2.142   3.435  0.4493 -0.6312 -0.1958
  171DOPC  C21120827   4.657   2.211   3.429 -0.5611 -0.4674 -0.0796
  171DOPC  H11R20828   4.726   2.280   3.377 -2.4071 -0.3099 -2.4893
  171DOPC  H11S20829   4.706   2.115   3.401  1.4157  1.2076 -2.7389
  171DOPC  C21220830   4.674   2.253   3.576  0.0809  0.5540  0.2651
  171DOPC  H12R20831   4.608   2.340   3.594  0.4742  0.9899 -0.3586
  171DOPC  H12S20832   4.778   2.283   3.599  0.4489 -0.7737  0.4409
  171DOPC  C21320833   4.648   2.138   3.668  0.0724  0.0981  0.1409
  171DOPC  H13R20834   4.704   2.050   3.629 -0.3905  0.4906 -1.4833
  171DOPC  H13S20835   4.542   2.115   3.643 -0.0047  0.4468  0.1459
  171DOPC  C21420836   4.677   2.158   3.813  0.1782  0.1971  0.0664
  171DOPC  H14R20837   4.629   2.248   3.857 -0.9518 -0.1077 -0.5080
  171DOPC  H14S20838   4.783   2.192   3.806 -0.0302  1.7891  3.2412
  171DOPC  C21520839   4.662   2.029   3.893 -0.0020  0.2885 -0.0763
  171DOPC  H15R20840   4.668   1.947   3.819  1.2010  0.2408  0.0557
  171DOPC  H15S20841   4.565   2.017   3.945  0.9778 -2.1112  1.3716
  171DOPC  C21620842   4.773   2.012   3.984 -0.4440  0.7903 -0.5386
  171DOPC  H16R20843   4.810   2.105   4.032 -0.0382  0.4449 -0.1702
  171DOPC  H16S20844   4.859   1.984   3.919  0.2558 -0.8639  1.0018
  171DOPC  C21720845   4.752   1.905   4.091 -0.0259  0.0119  0.0014
  171DOPC  H17R20846   4.736   1.803   4.049 -0.0749 -0.1989  0.5212
  171DOPC  H17S20847   4.652   1.925   4.135  1.4546  0.7240  3.3275
  171DOPC  C21820848   4.861   1.900   4.198 -0.2480  0.0031  0.1744
  171DOPC  H18R20849   4.949   1.860   4.142  0.5804  0.1424  1.3470
  171DOPC  H18S20850   4.850   1.840   4.290 -0.1098  0.9335  0.8070
  171DOPC  H18T20851   4.895   2.003   4.223  2.0900 -0.6347 -0.1154
  171DOPC   C3320852   4.176   3.769   3.468  0.0462  0.3773 -0.4111
  171DOPC   H3X20853   4.093   3.842   3.474 -1.3725 -1.2597  1.3603
  171DOPC   H3Y20854   4.266   3.823   3.431  0.1223  0.5762  0.0665
  171DOPC   C3420855   4.211   3.709   3.607  0.8876 -0.0435 -0.6441
  171DOPC   H4X20856   4.277   3.621   3.591 -0.1641 -0.9346 -0.2093
  171DOPC   H4Y20857   4.114   3.671   3.645  1.3383  0.7267  1.4056
  171DOPC   C3520858   4.269   3.804   3.714  0.2119  0.4766  0.7213
  171DOPC   H5X20859   4.190   3.882   3.718 -1.8322 -1.4235 -0.1836
  171DOPC   H5Y20860   4.366   3.840   3.673  0.0477  1.8932  1.5186
  171DOPC   C3620861   4.288   3.746   3.847  0.0676 -0.3209  0.0241
  171DOPC   H6X20862   4.294   3.821   3.929 -0.6650 -0.8479  0.5719
  171DOPC   H6Y20863   4.200   3.681   3.866  0.9745 -1.5412  0.1270
  171DOPC   C3720864   4.411   3.668   3.853 -0.6396  0.7374 -0.3025
  171DOPC   H7X20865   4.396   3.573   3.797 -0.2141 -0.0045  0.8120
  171DOPC   H7Y20866   4.503   3.716   3.815 -0.2765 -0.8616 -1.5631
  171DOPC   C3820867   4.448   3.638   4.004 -0.1903  0.5703  0.4816
  171DOPC   H8X20868   4.355   3.596   4.045 -0.8854  1.3430 -0.2473
  171DOPC   H8Y20869   4.468   3.735   4.054  2.0718  0.7036 -0.5562
  171DOPC   C3920870   4.569   3.544   4.026 -0.7197 -0.5978  0.1307
  171DOPC   H9X20871   4.537   3.442   3.998 -0.7484 -0.1207 -1.6420
  171DOPC  C31020872   4.689   3.568   4.075  1.0520  0.7977  0.3586
  171DOPC  H10X20873   4.763   3.486   4.079 -1.2416 -1.4209  0.0640
  171DOPC  C31120874   4.749   3.691   4.116 -0.3848  0.1801  0.2965
  171DOPC  H11X20875   4.718   3.774   4.049 -1.1355 -0.4320 -0.1184
  171DOPC  H11Y20876   4.860   3.693   4.116 -0.3471 -0.8261  1.6607
  171DOPC  C31220877   4.718   3.718   4.259 -0.0491  0.3833  0.0440
  171DOPC  H12X20878   4.768   3.640   4.320 -2.3713  0.0392  1.6676
  171DOPC  H12Y20879   4.609   3.703   4.279  0.3119 -2.0768  0.5430
  171DOPC  C31320880   4.774   3.855   4.295 -0.4940  0.2065 -0.7355
  171DOPC  H13X20881   4.882   3.864   4.267  0.1862  0.2263  1.6654
  171DOPC  H13Y20882   4.724   3.942   4.248 -0.5589  0.9655  0.6774
  171DOPC  C31420883   4.779   3.881   4.450 -0.5147 -0.1486  0.2854
  171DOPC  H14X20884   4.681   3.871   4.500 -0.9972 -0.8123 -0.7472
  171DOPC  H14Y20885   4.840   3.803   4.501 -0.0179  0.7140  1.0312
  171DOPC  C31520886   4.852   4.016   4.474 -0.2338  0.1777  0.6130
  171DOPC  H15X20887   4.925   4.041   4.393 -0.5029 -1.0789 -0.0376
  171DOPC  H15Y20888   4.904   4.009   4.572  0.7617  0.5029  0.1247
  171DOPC  C31620889   4.754   4.128   4.469  0.2586 -1.0653 -0.4206
  171DOPC  H16X20890   4.721   4.148   4.364  2.1599  1.2701 -0.6682
  171DOPC  H16Y20891   4.664   4.101   4.529 -0.5821  0.3482 -0.9771
  171DOPC  C31720892   4.820   4.258   4.510 -0.1172 -0.6464  0.5512
  171DOPC  H17X20893   4.924   4.272   4.475  0.0263 -0.4157  1.0564
  171DOPC  H17Y20894   4.769   4.343   4.461  0.1290 -1.1716 -0.6402
  171DOPC  C31820895   4.811   4.266   4.658 -0.5505  0.5314 -0.1758
  171DOPC  H18X20896   4.849   4.171   4.701 -1.9076  0.3197  0.5999
  171DOPC  H18Y20897   4.893   4.334   4.687  1.1313 -1.9098  1.1530
  171DOPC  H18Z20898   4.707   4.285   4.692 -0.2896 -0.8435  1.5447
  172DOPC     N20899   2.944   4.554   2.651 -0.0739 -0.0639 -0.2659
  172DOPC   C1220900   2.816   4.629   2.713  0.3332 -0.0582 -0.1475
  172DOPC  H12A20901   2.752   4.549   2.748  2.4835 -0.8671  2.2607
  172DOPC  H12B20902   2.757   4.664   2.630  0.2632  0.0660 -0.0455
  172DOPC   C1320903   3.041   4.515   2.753  0.6201 -0.0722 -0.1754
  172DOPC  H13A20904   3.124   4.462   2.709 -0.2039  0.1165 -2.0362
  172DOPC  H13B20905   3.083   4.605   2.795 -0.8695  0.7611 -0.3878
  172DOPC  H13C20906   2.992   4.453   2.828 -0.4375  1.9492  0.8887
  172DOPC   C1420907   3.011   4.648   2.554  0.8406 -0.7070  0.2617
  172DOPC  H14A20908   3.116   4.626   2.536  1.0476  0.8088 -0.5257
  172DOPC  H14B20909   2.956   4.653   2.461 -1.7375  0.7474  1.7801
  172DOPC  H14C20910   3.020   4.748   2.594  1.1936 -0.8061  0.4331
  172DOPC   C1520911   2.892   4.424   2.589 -0.4570 -0.0248 -0.0486
  172DOPC  H15A20912   2.824   4.450   2.509 -0.9911 -2.5691 -0.5224
  172DOPC  H15B20913   2.842   4.356   2.657  0.9697 -1.8656 -0.7495
  172DOPC  H15C20914   2.967   4.357   2.551  0.8387  0.7700  1.0423
  172DOPC   C1120915   2.825   4.731   2.825  0.1510  0.3033 -0.0963
  172DOPC  H11A20916   2.725   4.772   2.851  1.0700  3.4309 -0.9908
  172DOPC  H11B20917   2.869   4.675   2.910 -1.2303 -0.2221  0.3027
  172DOPC     P20918   2.851   4.967   2.703  0.1779  0.2855  0.0035
  172DOPC   O1320919   2.708   4.942   2.669 -0.1944  0.2854 -0.5533
  172DOPC   O1420920   2.936   5.016   2.591  0.2148 -0.2309  0.0329
  172DOPC   O1220921   2.907   4.834   2.776  0.4107 -0.1437  0.1491
  172DOPC   O1120922   2.857   5.082   2.812  0.1386  0.2563 -0.2092
  172DOPC    C120923   2.885   5.052   2.948 -0.5981  0.5324 -0.3442
  172DOPC    HA20924   2.931   5.142   2.995 -1.3459  0.4852  0.4928
  172DOPC    HB20925   2.962   4.972   2.944 -1.0367  0.1447 -1.8092
  172DOPC    C220926   2.759   5.017   3.036  0.3368 -0.2271  0.0577
  172DOPC    HS20927   2.710   4.936   2.979 -0.7531  0.1545  0.4225
  172DOPC   O2120928   2.673   5.136   3.038 -0.7119  0.0680  0.0250
  172DOPC   C2120929   2.565   5.135   3.100  0.1791  0.8866 -0.2089
  172DOPC   O2220930   2.513   5.034   3.145  0.3220 -0.0177  0.3628
  172DOPC   C2220931   2.510   5.274   3.098 -0.8052  0.1869 -0.4681
  172DOPC   H2R20932   2.450   5.291   3.007  0.1131 -0.8292 -1.2951
  172DOPC   H2S20933   2.596   5.344   3.096  0.1340 -0.8668  0.7602
  172DOPC    C320934   2.804   4.971   3.169 -0.0471 -0.2227 -0.2358
  172DOPC    HX20935   2.872   4.883   3.161  1.1361  0.5025  1.2451
  172DOPC    HY20936   2.724   4.918   3.226 -0.5237  1.6279  0.8806
  172DOPC   O3120937   2.853   5.081   3.244 -0.5653 -0.3609 -0.2156
  172DOPC   C3120938   2.972   5.065   3.300  0.3856 -0.2296  0.3374
  172DOPC   O3220939   3.045   4.972   3.278 -1.0193 -0.0817 -0.0692
  172DOPC   C3220940   3.005   5.182   3.389  0.0833  0.0635  0.1479
  172DOPC   H2X20941   3.015   5.277   3.333  2.2245  0.4286  1.0573
  172DOPC   H2Y20942   2.912   5.197   3.448  1.0358  2.3587  1.1804
  172DOPC   C2320943   2.414   5.308   3.223 -0.7076  0.2915  1.1432
  172DOPC   H3R20944   2.312   5.271   3.197 -0.8314  1.6647 -0.4848
  172DOPC   H3S20945   2.401   5.418   3.217 -1.4610  0.1515 -0.2586
  172DOPC   C2420946   2.458   5.262   3.361 -0.5536  0.2043 -0.2726
  172DOPC   H4R20947   2.459   5.151   3.357 -0.9739  0.2250 -1.3985
  172DOPC   H4S20948   2.386   5.295   3.439  0.2827  1.8432 -0.1441
  172DOPC   C2520949   2.592   5.315   3.411 -0.0349  0.7479 -0.0158
  172DOPC   H5R20950   2.603   5.424   3.394  0.3203  0.7331  0.0999
  172DOPC   H5S20951   2.684   5.276   3.362 -0.3932 -0.2721  0.0970
  172DOPC   C2620952   2.622   5.285   3.560  0.3496  0.3897 -0.4767
  172DOPC   H6R20953   2.527   5.319   3.606 -0.2332 -0.7256 -0.8293
  172DOPC   H6S20954   2.708   5.338   3.605  0.7310  0.7499 -1.5783
  172DOPC   C2720955   2.641   5.136   3.590 -0.0179  0.3794  0.1949
  172DOPC   H7R20956   2.693   5.098   3.500 -0.2189  2.9619 -1.1273
  172DOPC   H7S20957   2.548   5.076   3.583 -0.5031  1.2549 -1.2233
  172DOPC   C2820958   2.725   5.103   3.712  0.9800  0.2722 -0.3575
  172DOPC   H8R20959   2.806   5.178   3.714  1.0659  0.1716 -0.1086
  172DOPC   H8S20960   2.773   5.003   3.702  0.1545 -0.1407 -0.2538
  172DOPC   C2920961   2.640   5.104   3.838  0.5007 -0.8602  0.4770
  172DOPC   H9R20962   2.546   5.048   3.832  1.2288 -2.1024  0.4879
  172DOPC  C21020963   2.664   5.172   3.952  0.4255  0.0420 -0.0532
  172DOPC  H10R20964   2.589   5.165   4.033  0.2408 -6.8761 -0.2090
  172DOPC  C21120965   2.791   5.241   3.978  0.5359 -0.3955 -0.3267
  172DOPC  H11R20966   2.762   5.331   4.037  1.6453 -1.7592  2.4630
  172DOPC  H11S20967   2.833   5.282   3.883 -2.1036 -0.2380 -1.5109
  172DOPC  C21220968   2.902   5.182   4.071  0.3129 -0.1742 -0.0790
  172DOPC  H12R20969   2.945   5.093   4.019  0.6209 -0.4141  0.5735
  172DOPC  H12S20970   2.859   5.142   4.165  0.3099 -0.2500 -0.1124
  172DOPC  C21320971   3.014   5.287   4.095  0.2805 -0.9501  0.0850
  172DOPC  H13R20972   3.062   5.336   4.008 -0.1209  0.9972  0.8978
  172DOPC  H13S20973   3.100   5.237   4.145  2.0411  0.6817 -1.1490
  172DOPC  C21420974   2.966   5.390   4.197 -0.6594 -0.1716 -0.1191
  172DOPC  H14R20975   2.914   5.346   4.285 -2.3070  1.3583 -0.2734
  172DOPC  H14S20976   2.894   5.461   4.152 -0.2923  0.9482  0.9976
  172DOPC  C21520977   3.092   5.459   4.253  0.4033  0.5412  0.1045
  172DOPC  H15R20978   3.122   5.518   4.164 -0.0047 -0.4061 -0.6815
  172DOPC  H15S20979   3.170   5.384   4.279 -0.2968 -0.7733 -1.3980
  172DOPC  C21620980   3.047   5.547   4.373 -0.8752 -0.1698  0.3738
  172DOPC  H16R20981   3.017   5.488   4.463 -0.2115  1.2702  1.5886
  172DOPC  H16S20982   2.971   5.612   4.326 -0.4463 -0.9172 -1.4269
  172DOPC  C21720983   3.168   5.641   4.407 -0.7388  0.3306  0.3504
  172DOPC  H17R20984   3.186   5.722   4.332  0.3160  0.4855  0.7469
  172DOPC  H17S20985   3.264   5.585   4.408 -0.8436  0.1600  0.7582
  172DOPC  C21820986   3.156   5.701   4.540 -0.3056  0.2003  0.3581
  172DOPC  H18R20987   3.065   5.765   4.546 -0.0348  0.5048  1.5346
  172DOPC  H18S20988   3.241   5.772   4.546 -1.8179  2.0301  1.2657
  172DOPC  H18T20989   3.157   5.623   4.619 -1.2632  0.3916  0.5767
  172DOPC   C3320990   3.117   5.156   3.485  0.3358 -0.2603 -0.3496
  172DOPC   H3X20991   3.211   5.135   3.429 -0.1747  1.7585 -2.1123
  172DOPC   H3Y20992   3.097   5.072   3.555 -0.2359  1.7705  2.0678
  172DOPC   C3420993   3.143   5.280   3.581 -0.0544 -0.1391  0.1068
  172DOPC   H4X20994   3.046   5.288   3.632 -0.4611 -2.4392 -0.1679
  172DOPC   H4Y20995   3.170   5.370   3.522  3.3106 -2.1169 -1.7837
  172DOPC   C3520996   3.265   5.254   3.674 -0.2497  0.4259  0.7445
  172DOPC   H5X20997   3.299   5.347   3.724  0.4607  1.1241 -0.9585
  172DOPC   H5Y20998   3.348   5.235   3.603 -2.2077  1.2187 -1.9167
  172DOPC   C3620999   3.248   5.143   3.778 -0.3883  0.0769 -0.1293
  172DOPC   H6X21000   3.149   5.159   3.826  0.0706  0.3041  0.7534
  172DOPC   H6Y21001   3.244   5.039   3.737 -2.5111  0.6797 -1.6164
  172DOPC   C3721002   3.354   5.152   3.880 -0.3539  0.3585 -0.9715
  172DOPC   H7X21003   3.457   5.132   3.843  0.1745 -0.2130  0.6863
  172DOPC   H7Y21004   3.360   5.259   3.911 -0.7086  0.2400 -0.4894
  172DOPC   C3821005   3.326   5.057   4.001  0.7732 -0.2558  0.3020
  172DOPC   H8X21006   3.220   5.065   4.033  0.4893  2.5278 -1.0352
  172DOPC   H8Y21007   3.391   5.089   4.085  0.0806  2.8507 -0.1916
  172DOPC   C3921008   3.361   4.916   3.969 -0.5436  0.9277 -0.2518
  172DOPC   H9X21009   3.357   4.887   3.863 -0.5994 -0.6034  0.1500
  172DOPC  C31021010   3.392   4.822   4.061  0.3516  0.3022  0.1954
  172DOPC  H10X21011   3.427   4.723   4.031  1.5418  0.9702 -0.7047
  172DOPC  C31121012   3.396   4.854   4.208 -0.0100  0.5614  0.1622
  172DOPC  H11X21013   3.307   4.917   4.232  0.4675  1.2721  0.0997
  172DOPC  H11Y21014   3.495   4.902   4.223  1.3430 -1.6556 -1.2436
  172DOPC  C31221015   3.388   4.732   4.292 -0.3137  0.2156  0.1376
  172DOPC  H12X21016   3.479   4.670   4.276 -1.0363 -0.4407 -1.5430
  172DOPC  H12Y21017   3.299   4.673   4.262 -1.1780  0.1118  2.6744
  172DOPC  C31321018   3.363   4.771   4.443 -0.2941  0.4617 -0.0328
  172DOPC  H13X21019   3.421   4.855   4.488 -0.0602  0.3948 -0.2080
  172DOPC  H13Y21020   3.259   4.809   4.439 -1.0788 -1.6588 -1.1566
  172DOPC  C31421021   3.359   4.651   4.537  0.8744 -0.2931 -0.4372
  172DOPC  H14X21022   3.325   4.565   4.477 -0.5776  1.0211 -1.5851
  172DOPC  H14Y21023   3.460   4.632   4.579 -0.3924 -0.5042  2.8580
  172DOPC  C31521024   3.258   4.661   4.657 -0.3119 -0.0743 -0.5828
  172DOPC  H15X21025   3.156   4.675   4.618 -0.9967 -0.9928  0.7630
  172DOPC  H15Y21026   3.280   4.752   4.717  2.2370  0.9346 -2.8427
  172DOPC  C31621027   3.257   4.529   4.740  0.5428  0.0563 -0.1789
  172DOPC  H16X21028   3.187   4.463   4.684 -2.4898  2.1867  0.8678
  172DOPC  H16Y21029   3.356   4.487   4.766  0.0961  0.7734  3.0986
  172DOPC  C31721030   3.176   4.546   4.875  0.2887 -0.4516  0.6721
  172DOPC  H17X21031   3.076   4.579   4.839  1.1072 -0.7338 -2.1301
  172DOPC  H17Y21032   3.150   4.445   4.913 -3.0160  0.2004  0.4465
  172DOPC  C31821033   3.244   4.638   4.984 -0.0417  0.1991  0.8631
  172DOPC  H18X21034   3.165   4.657   5.060 -0.5266  2.5511 -0.1610
  172DOPC  H18Y21035   3.334   4.583   5.020 -0.2556 -0.7815 -0.0583
  172DOPC  H18Z21036   3.271   4.737   4.942 -1.2213 -0.3969 -1.4503
  173DOPC     N21037   0.988   3.497   2.764  0.2561 -0.3993 -0.3835
  173DOPC   C1221038   1.061   3.361   2.785 -0.4593  0.4944 -0.8075
  173DOPC  H12A21039   1.139   3.345   2.713 -0.4996 -0.2304 -0.6960
  173DOPC  H12B21040   0.988   3.282   2.775 -0.9175  0.6220  1.1062
  173DOPC   C1321041   0.953   3.508   2.616  0.6213 -0.7770 -0.0635
  173DOPC  H13A21042   0.895   3.429   2.571 -0.7064  0.3150 -0.3433
  173DOPC  H13B21043   0.904   3.604   2.610  1.1699 -0.5496 -1.0733
  173DOPC  H13C21044   1.044   3.519   2.560  2.4393 -1.9460  2.4601
  173DOPC   C1421045   1.087   3.605   2.802  0.0655 -0.2309 -0.3136
  173DOPC  H14A21046   1.134   3.646   2.714  1.5144 -0.4259  0.3324
  173DOPC  H14B21047   1.039   3.687   2.853 -1.4484  0.9553 -3.4126
  173DOPC  H14C21048   1.161   3.555   2.863  1.2348 -0.6264 -1.9762
  173DOPC   C1521049   0.864   3.505   2.847  0.0067 -0.0843 -1.0052
  173DOPC  H15A21050   0.794   3.428   2.819 -1.4246  1.3690 -1.5764
  173DOPC  H15B21051   0.824   3.604   2.838  1.2607  0.6292  0.7236
  173DOPC  H15C21052   0.898   3.493   2.949  1.4245  0.8233 -1.3434
  173DOPC   C1121053   1.121   3.329   2.922 -0.7488  0.0027  0.2663
  173DOPC  H11A21054   1.052   3.363   3.002  0.3501  0.0701  1.2131
  173DOPC  H11B21055   1.133   3.220   2.938  0.2924  0.1684  0.7075
  173DOPC     P21056   1.383   3.352   2.875  0.0249  0.0789  0.3019
  173DOPC   O1321057   1.476   3.469   2.866  0.3842  0.3549 -0.0511
  173DOPC   O1421058   1.342   3.289   2.751 -0.7648 -0.0460 -0.4564
  173DOPC   O1221059   1.244   3.405   2.938  0.5786 -0.4101  0.1479
  173DOPC   O1121060   1.439   3.241   2.971 -0.7915  0.6435 -0.1001
  173DOPC    C121061   1.389   3.224   3.108 -0.7162  0.4984 -0.5980
  173DOPC    HA21062   1.425   3.125   3.144 -0.7731  1.4116  2.2063
  173DOPC    HB21063   1.280   3.228   3.129 -0.4452  3.1144  0.7532
  173DOPC    C221064   1.443   3.329   3.210 -0.2130 -0.4740 -0.0737
  173DOPC    HS21065   1.400   3.425   3.177  0.0952  0.0557  1.0190
  173DOPC   O2121066   1.590   3.332   3.202  0.0208 -0.4265 -0.2647
  173DOPC   C2121067   1.643   3.441   3.253 -0.5472  0.4444 -0.2993
  173DOPC   O2221068   1.588   3.539   3.297  0.1439  0.0965  0.3898
  173DOPC   C2221069   1.795   3.398   3.255 -0.2497  0.2385  0.7442
  173DOPC   H2R21070   1.829   3.408   3.150 -2.1956  3.2890  0.2936
  173DOPC   H2S21071   1.804   3.291   3.283  3.0223  0.0219 -0.6325
  173DOPC    C321072   1.402   3.304   3.357 -0.1638 -0.2274  0.2265
  173DOPC    HX21073   1.305   3.351   3.384  1.5437  3.7843  0.1976
  173DOPC    HY21074   1.472   3.368   3.415  0.5237  1.7527 -2.5557
  173DOPC   O3121075   1.403   3.169   3.396  0.2333  0.0455  0.1787
  173DOPC   C3121076   1.507   3.121   3.461  0.0825 -0.1484 -0.1930
  173DOPC   O3221077   1.606   3.193   3.489  0.4092  0.2119  0.2233
  173DOPC   C3221078   1.488   2.981   3.519 -0.2069  0.2450 -0.2935
  173DOPC   H2X21079   1.397   2.992   3.581 -0.5389  2.4195 -1.0964
  173DOPC   H2Y21080   1.465   2.915   3.432  2.7451  1.8322 -2.4728
  173DOPC   C2321081   1.878   3.490   3.341  0.2824  0.0983  0.4175
  173DOPC   H3R21082   1.827   3.491   3.439 -0.0550 -0.2233  0.2484
  173DOPC   H3S21083   1.868   3.594   3.305 -0.9665 -0.5392 -1.1997
  173DOPC   C2421084   2.025   3.464   3.363 -0.1731 -0.0818 -0.2384
  173DOPC   H4R21085   2.074   3.535   3.432  0.6838 -0.3024 -0.6168
  173DOPC   H4S21086   2.070   3.485   3.264 -0.5602 -0.3880 -0.4814
  173DOPC   C2521087   2.068   3.322   3.398 -0.1909 -0.0418  0.0272
  173DOPC   H5R21088   2.064   3.262   3.304 -1.6273 -0.6366  0.4420
  173DOPC   H5S21089   2.001   3.266   3.466 -0.3665 -0.8793 -0.8084
  173DOPC   C2621090   2.216   3.320   3.452 -0.0884 -0.1412 -0.0998
  173DOPC   H6R21091   2.259   3.219   3.468  0.1094 -0.1329 -0.5572
  173DOPC   H6S21092   2.220   3.369   3.552  0.8578 -0.4129  0.0060
  173DOPC   C2721093   2.313   3.381   3.351 -0.0931 -0.5203  0.4832
  173DOPC   H7R21094   2.295   3.490   3.339 -0.9987 -0.6226  0.8411
  173DOPC   H7S21095   2.311   3.338   3.249 -0.7137  0.2605  0.1585
  173DOPC   C2821096   2.471   3.372   3.386 -0.3171  0.3072 -0.4535
  173DOPC   H8R21097   2.483   3.440   3.472 -0.5011  0.3955 -0.4982
  173DOPC   H8S21098   2.527   3.424   3.304  0.1628  1.6801  0.7110
  173DOPC   C2921099   2.531   3.238   3.422  0.0747  0.0602 -0.2268
  173DOPC   H9R21100   2.530   3.160   3.345  1.4043  0.2605 -0.4767
  173DOPC  C21021101   2.577   3.200   3.543  0.8532 -0.4490  0.2424
  173DOPC  H10R21102   2.618   3.099   3.556  1.0754 -0.4007 -0.0786
  173DOPC  C21121103   2.591   3.284   3.665 -0.1998 -0.7279  0.4945
  173DOPC  H11R21104   2.604   3.390   3.634  2.3936 -0.5793  1.7981
  173DOPC  H11S21105   2.688   3.255   3.712  0.7424 -1.3990 -1.7697
  173DOPC  C21221106   2.476   3.269   3.765  0.5582  0.7328  0.8245
  173DOPC  H12R21107   2.456   3.163   3.791 -0.1426 -0.0664 -2.4248
  173DOPC  H12S21108   2.382   3.298   3.713 -0.3094 -1.7392  0.8924
  173DOPC  C21321109   2.499   3.361   3.887 -0.2477 -0.3448 -0.1854
  173DOPC  H13R21110   2.400   3.350   3.936 -0.1210 -0.5976  0.0171
  173DOPC  H13S21111   2.524   3.463   3.851 -0.4469 -0.8095 -1.7120
  173DOPC  C21421112   2.600   3.304   3.989 -0.6124  0.5614 -0.8082
  173DOPC  H14R21113   2.701   3.327   3.950  0.2240 -3.5400 -1.5117
  173DOPC  H14S21114   2.578   3.196   3.997 -0.3691  0.5000 -0.9761
  173DOPC  C21521115   2.589   3.376   4.124  0.5879 -0.6021  0.6655
  173DOPC  H15R21116   2.482   3.371   4.154  0.7352  0.1233  1.3395
  173DOPC  H15S21117   2.611   3.482   4.096  2.0697 -1.5018 -1.9343
  173DOPC  C21621118   2.670   3.322   4.244 -0.2548 -0.0004 -0.3342
  173DOPC  H16R21119   2.779   3.321   4.221 -0.0922 -1.3025  0.4114
  173DOPC  H16S21120   2.636   3.217   4.262 -0.4655 -0.0464 -0.9875
  173DOPC  C21721121   2.640   3.401   4.369 -0.3710  0.0940 -0.9271
  173DOPC  H17R21122   2.530   3.396   4.387 -0.1445  1.2895  1.0070
  173DOPC  H17S21123   2.669   3.506   4.346  1.3747  0.2599  1.6319
  173DOPC  C21821124   2.727   3.361   4.489 -0.2843  0.2034 -0.0091
  173DOPC  H18R21125   2.726   3.252   4.509  0.9324 -0.4373 -2.9434
  173DOPC  H18S21126   2.694   3.411   4.582  0.1113  4.0728 -1.7570
  173DOPC  H18T21127   2.828   3.407   4.478 -0.5341  0.8110  0.2099
  173DOPC   C3321128   1.611   2.928   3.603  0.3957  0.2896  0.2748
  173DOPC   H3X21129   1.710   2.947   3.557  0.3400  1.5369  0.6269
  173DOPC   H3Y21130   1.599   2.818   3.603 -1.0266  0.4232 -0.2954
  173DOPC   C3421131   1.612   2.969   3.747  0.3533 -0.3169 -0.2193
  173DOPC   H4X21132   1.507   2.945   3.777  1.1086 -3.3120  0.3323
  173DOPC   H4Y21133   1.618   3.080   3.748  2.8434 -0.3665  2.0034
  173DOPC   C3521134   1.718   2.908   3.837 -0.2701 -0.2183  0.0588
  173DOPC   H5X21135   1.817   2.916   3.787  0.7402  0.4838  2.0714
  173DOPC   H5Y21136   1.694   2.800   3.848 -0.8662 -0.0305  0.6399
  173DOPC   C3621137   1.717   2.978   3.975 -0.2470  0.6517  0.3725
  173DOPC   H6X21138   1.703   3.088   3.968 -2.9779  0.4573  1.3274
  173DOPC   H6Y21139   1.638   2.945   4.046 -1.6640  0.6545 -1.1397
  173DOPC   C3721140   1.854   2.967   4.043  0.8976  0.2542  0.4171
  173DOPC   H7X21141   1.868   2.857   4.055 -1.3122 -0.6801 -3.6000
  173DOPC   H7Y21142   1.938   2.991   3.974  0.4760 -1.9482 -0.9810
  173DOPC   C3821143   1.875   3.048   4.173  0.2388  0.2598  0.0493
  173DOPC   H8X21144   1.841   3.151   4.147 -0.4819  0.2640  0.9528
  173DOPC   H8Y21145   1.984   3.038   4.192  0.2724  0.6858  0.0980
  173DOPC   C3921146   1.792   2.994   4.286  0.3144 -0.2701  0.3325
  173DOPC   H9X21147   1.694   2.957   4.251  0.6425  0.3092 -1.2751
  173DOPC  C31021148   1.830   2.963   4.408  0.1317  0.7438  0.1648
  173DOPC  H10X21149   1.762   2.919   4.482  1.2094 -1.7347 -0.2001
  173DOPC  C31121150   1.965   2.995   4.466  0.7421 -0.0858 -0.2642
  173DOPC  H11X21151   1.955   3.030   4.571 -0.6722  1.1883 -0.7849
  173DOPC  H11Y21152   2.019   3.069   4.403 -1.4917 -0.1292 -2.3561
  173DOPC  C31221153   2.057   2.872   4.460  0.6964 -0.0801 -0.4404
  173DOPC  H12X21154   2.160   2.898   4.492 -0.3243  1.3699  1.9086
  173DOPC  H12Y21155   2.058   2.835   4.355  1.6073 -0.8539 -0.1725
  173DOPC  C31321156   2.011   2.750   4.549 -0.2569  0.7636 -0.3210
  173DOPC  H13X21157   2.012   2.776   4.657  0.8615 -2.2446  0.4928
  173DOPC  H13Y21158   1.913   2.723   4.505  1.0558 -1.3111 -2.2577
  173DOPC  C31421159   2.088   2.621   4.531  0.7065  0.3738  0.9005
  173DOPC  H14X21160   2.029   2.538   4.575 -0.8546  1.4155  0.8424
  173DOPC  H14Y21161   2.105   2.604   4.423  0.5712  1.1847  0.7448
  173DOPC  C31521162   2.224   2.623   4.598 -0.2790 -0.8603  0.5208
  173DOPC  H15X21163   2.203   2.641   4.706 -1.5213 -0.5676  0.2420
  173DOPC  H15Y21164   2.282   2.708   4.557 -3.5209  1.7485  0.8951
  173DOPC  C31621165   2.296   2.495   4.573 -0.1630 -0.6494  0.0023
  173DOPC  H16X21166   2.288   2.447   4.673  3.1537  0.3412  0.8699
  173DOPC  H16Y21167   2.256   2.430   4.492 -0.7518 -0.0458 -0.1988
  173DOPC  C31721168   2.444   2.515   4.563 -0.8855  0.6728 -0.3568
  173DOPC  H17X21169   2.459   2.561   4.464 -1.5871  0.6183 -0.4924
  173DOPC  H17Y21170   2.485   2.575   4.647  0.9146 -0.9585  0.0020
  173DOPC  C31821171   2.523   2.384   4.579  0.2237 -0.0779  0.0094
  173DOPC  H18X21172   2.467   2.305   4.524  2.2459 -1.5617 -0.0478
  173DOPC  H18Y21173   2.622   2.396   4.529  0.4998  1.6138  0.9019
  173DOPC  H18Z21174   2.536   2.350   4.684  3.4612  1.5926  0.2815
  174DOPC     N21175   5.169   2.911   2.289  0.0546 -0.1492  0.1141
  174DOPC   C1221176   5.281   2.858   2.385  0.6817  0.3561  0.3345
  174DOPC  H12A21177   5.351   2.937   2.412  0.9018  0.1286  0.4330
  174DOPC  H12B21178   5.350   2.789   2.338  2.5470  2.1112  0.3491
  174DOPC   C1321179   5.232   2.966   2.162 -0.2460 -0.8080 -1.1092
  174DOPC  H13A21180   5.284   3.058   2.183 -1.1955 -0.9140  2.2727
  174DOPC  H13B21181   5.304   2.895   2.123  2.4215 -0.0254  1.9298
  174DOPC  H13C21182   5.165   3.002   2.085  0.7639  1.6830 -0.9073
  174DOPC   C1421183   5.100   3.025   2.352 -0.5178  0.1228 -0.2699
  174DOPC  H14A21184   5.161   3.112   2.374 -0.5120 -0.4425  2.3100
  174DOPC  H14B21185   5.013   3.045   2.291 -1.2635 -1.7701  0.1093
  174DOPC  H14C21186   5.056   2.994   2.446 -1.7756  0.0089 -0.8735
  174DOPC   C1521187   5.072   2.810   2.242  0.3781 -0.1194 -0.9988
  174DOPC  H15A21188   5.115   2.730   2.185 -1.3981 -1.1786 -0.9248
  174DOPC  H15B21189   5.008   2.856   2.168  2.4429  2.1025 -1.5297
  174DOPC  H15C21190   5.012   2.774   2.325  0.2674  0.3771 -0.8574
  174DOPC   C1121191   5.228   2.790   2.512  0.4903  0.0799  0.3917
  174DOPC  H11A21192   5.157   2.861   2.561 -2.7132 -2.0134 -0.9000
  174DOPC  H11B21193   5.162   2.703   2.492  2.4558 -1.4331  0.2203
  174DOPC     P21194   5.407   2.628   2.607 -0.4469 -0.2141 -0.0226
  174DOPC   O1321195   5.549   2.656   2.603  0.4449  0.3924 -0.4783
  174DOPC   O1421196   5.355   2.539   2.499  0.0754 -0.5018 -0.3566
  174DOPC   O1221197   5.338   2.767   2.594 -0.0901  0.3721  0.1461
  174DOPC   O1121198   5.364   2.571   2.744  0.4330 -0.2708  0.3609
  174DOPC    C121199   5.453   2.483   2.816  0.0599  0.7429 -0.1779
  174DOPC    HA21200   5.534   2.429   2.763 -1.2532  0.3604 -1.9096
  174DOPC    HB21201   5.395   2.396   2.854  0.4755  0.6208  0.1743
  174DOPC    C221202   5.533   2.544   2.935  0.0626 -0.0005 -0.2568
  174DOPC    HS21203   5.608   2.469   2.969 -0.0342  1.1874  2.9243
  174DOPC   O2121204   5.451   2.588   3.043  0.0539 -0.1429  0.0092
  174DOPC   C2121205   5.403   2.494   3.121 -0.0967 -0.3282 -0.7346
  174DOPC   O2221206   5.399   2.372   3.104 -0.7009  0.3728  0.6005
  174DOPC   C2221207   5.337   2.569   3.239 -0.1690 -0.1104  0.3850
  174DOPC   H2R21208   5.229   2.541   3.233  0.3234 -1.8475 -1.2715
  174DOPC   H2S21209   5.355   2.679   3.237 -0.2454 -0.1075 -0.9729
  174DOPC    C321210   5.627   2.665   2.890  0.4613  0.1518  0.2239
  174DOPC    HX21211   5.560   2.724   2.824 -0.3883 -1.0716 -0.0634
  174DOPC    HY21212   5.709   2.624   2.827 -0.5329  0.9347 -1.6448
  174DOPC   O3121213   5.690   2.747   2.990 -0.3151 -0.6526  0.3098
  174DOPC   C3121214   5.620   2.854   3.029  0.7585  0.2914 -0.0489
  174DOPC   O3221215   5.522   2.903   2.975  0.5112  0.3832  0.2267
  174DOPC   C3221216   5.688   2.920   3.147 -0.1752  0.7021  0.5114
  174DOPC   H2X21217   5.728   3.020   3.120  0.4193  0.8255  1.7374
  174DOPC   H2Y21218   5.600   2.933   3.214 -2.1732 -2.9947 -1.0851
  174DOPC   C2321219   5.380   2.509   3.373 -0.5182 -0.1861 -0.4094
  174DOPC   H3R21220   5.490   2.500   3.386 -0.6931 -0.3669  1.0871
  174DOPC   H3S21221   5.332   2.410   3.385 -1.0949 -0.0044 -1.1462
  174DOPC   C2421222   5.347   2.603   3.486 -0.1977  0.4043 -0.3973
  174DOPC   H4R21223   5.239   2.632   3.483 -0.2563  0.6514  2.0361
  174DOPC   H4S21224   5.417   2.689   3.480 -0.1934  0.2979 -4.8284
  174DOPC   C2521225   5.356   2.534   3.631 -0.6396 -0.9646 -0.0547
  174DOPC   H5R21226   5.458   2.537   3.675  0.1762  0.7340 -1.9163
  174DOPC   H5S21227   5.308   2.433   3.624 -0.2518 -1.0801 -1.3145
  174DOPC   C2621228   5.266   2.606   3.739 -0.5446 -0.0800  0.5198
  174DOPC   H6R21229   5.159   2.599   3.709 -0.6375 -0.7520  1.0013
  174DOPC   H6S21230   5.295   2.714   3.737  1.6781 -0.6259 -0.9740
  174DOPC   C2721231   5.290   2.546   3.879 -0.3283  0.4979 -0.1885
  174DOPC   H7R21232   5.392   2.574   3.911  0.5240 -0.2846 -2.0600
  174DOPC   H7S21233   5.284   2.436   3.865 -1.5495  0.5783 -0.4173
  174DOPC   C2821234   5.189   2.592   3.986  0.0402 -0.0608  0.0714
  174DOPC   H8R21235   5.206   2.701   3.980  0.6111  0.2197  3.9537
  174DOPC   H8S21236   5.212   2.558   4.090  0.0227  1.4116  0.5879
  174DOPC   C2921237   5.044   2.565   3.954  0.4716 -0.0512 -0.6247
  174DOPC   H9R21238   4.992   2.650   3.908  0.1816 -0.9205 -1.9771
  174DOPC  C21021239   4.987   2.448   3.981  0.2377 -0.0581 -0.5820
  174DOPC  H10R21240   4.881   2.434   3.955 -0.2531  0.2284  1.0945
  174DOPC  C21121241   5.056   2.323   4.036  0.0425 -0.6321  0.4460
  174DOPC  H11R21242   5.153   2.309   3.984  0.7814  0.7879  1.3846
  174DOPC  H11S21243   5.002   2.234   3.999 -0.1165 -0.6405  0.6886
  174DOPC  C21221244   5.064   2.314   4.188 -0.2668 -0.3963  0.8219
  174DOPC  H12R21245   5.128   2.402   4.209 -0.4625 -0.3685  1.3209
  174DOPC  H12S21246   5.113   2.220   4.222 -0.8251  0.0768  3.0954
  174DOPC  C21321247   4.930   2.325   4.262  0.1464 -0.4941  0.0126
  174DOPC  H13R21248   4.863   2.241   4.234  1.9903 -1.6842 -1.0375
  174DOPC  H13S21249   4.879   2.418   4.230  0.4143 -0.8151 -1.3983
  174DOPC  C21421250   4.938   2.324   4.414 -0.3011  0.1659  0.7023
  174DOPC  H14R21251   4.996   2.241   4.459  0.7748  0.8134  0.5494
  174DOPC  H14S21252   4.839   2.333   4.465 -0.8398 -1.2220 -0.0437
  174DOPC  C21521253   5.017   2.449   4.468 -0.1097  0.4450  0.3420
  174DOPC  H15R21254   4.995   2.539   4.407 -1.0290  0.5734  0.8380
  174DOPC  H15S21255   5.123   2.428   4.443 -1.1589 -0.2217 -4.5608
  174DOPC  C21621256   4.997   2.473   4.617 -0.0974 -0.6887 -0.4847
  174DOPC  H16R21257   4.887   2.487   4.624  0.0350  1.1661 -1.3091
  174DOPC  H16S21258   5.038   2.572   4.649  2.1389 -2.1848  1.5909
  174DOPC  C21721259   5.039   2.370   4.722 -0.3872  0.2320  0.0579
  174DOPC  H17R21260   5.148   2.383   4.735 -0.3947 -0.0652  0.4368
  174DOPC  H17S21261   5.018   2.266   4.689  1.6591  0.1193 -1.0231
  174DOPC  C21821262   4.970   2.388   4.859  0.3408 -0.1072 -0.4345
  174DOPC  H18R21263   5.001   2.318   4.940  0.2047  1.4039  0.9744
  174DOPC  H18S21264   4.859   2.389   4.848 -0.0819 -0.6876  2.6243
  174DOPC  H18T21265   4.986   2.486   4.909 -1.0044  0.0966 -0.3517
  174DOPC   C3321266   5.798   2.834   3.207 -0.2017 -0.5487  0.6036
  174DOPC   H3X21267   5.763   2.729   3.212 -1.0725 -0.2817  0.1977
  174DOPC   H3Y21268   5.812   2.870   3.311  0.2653 -0.6124  0.5688
  174DOPC   C3421269   5.925   2.858   3.123 -0.1510 -0.1864  0.2931
  174DOPC   H4X21270   5.955   2.965   3.120 -0.7759 -0.0077  0.3318
  174DOPC   H4Y21271   5.919   2.812   3.022  1.5718  0.3259 -0.0776
  174DOPC   C3521272   6.045   2.786   3.191  0.5606 -0.1590  0.2517
  174DOPC   H5X21273   6.122   2.753   3.118 -0.7501  0.2287 -1.3786
  174DOPC   H5Y21274   5.998   2.699   3.241  0.5818 -1.2290 -1.5102
  174DOPC   C3621275   6.112   2.875   3.299 -0.1466  0.1794 -0.2415
  174DOPC   H6X21276   6.139   2.972   3.252  0.9154 -0.3850 -0.8384
  174DOPC   H6Y21277   6.029   2.891   3.371 -0.5357  0.4978 -0.7543
  174DOPC   C3721278   6.227   2.794   3.353  0.0051  0.3725 -0.0911
  174DOPC   H7X21279   6.191   2.692   3.376 -0.7083  0.3347 -1.3111
  174DOPC   H7Y21280   6.308   2.788   3.277  0.0680 -1.3587  0.0860
  174DOPC   C3821281   6.293   2.860   3.485 -0.6791  0.5594  0.4851
  174DOPC   H8X21282   6.351   2.774   3.526 -1.4035  0.2873  0.9523
  174DOPC   H8Y21283   6.200   2.876   3.543  0.1616 -0.6217  2.2853
  174DOPC   C3921284   6.375   2.990   3.459  0.1139  0.4645  0.2890
  174DOPC   H9X21285   6.304   3.072   3.446 -3.4271 -2.3554  0.0772
  174DOPC  C31021286   6.512   3.009   3.472  0.1871  0.0733 -0.3011
  174DOPC  H10X21287   6.551   3.109   3.448 -1.5292  0.5505 -1.2266
  174DOPC  C31121288   6.616   2.902   3.490  0.3743 -0.0114 -0.4331
  174DOPC  H11X21289   6.561   2.820   3.541 -0.4486  0.8753  0.1362
  174DOPC  H11Y21290   6.705   2.938   3.546  0.3414  0.0612 -0.4286
  174DOPC  C31221291   6.663   2.848   3.352 -1.1142 -0.1835 -0.9280
  174DOPC  H12X21292   6.697   2.928   3.283 -2.7010  0.1628 -1.3535
  174DOPC  H12Y21293   6.587   2.795   3.291 -0.4649 -1.1596 -0.9105
  174DOPC  C31321294   6.788   2.754   3.373  0.2763 -0.6442  0.1798
  174DOPC  H13X21295   6.811   2.715   3.271  1.4349  2.5949 -0.9302
  174DOPC  H13Y21296   6.872   2.821   3.402  0.2409 -0.6563  0.3088
  174DOPC  C31421297   6.762   2.636   3.473 -0.1412  0.0863 -0.0431
  174DOPC  H14X21298   6.730   2.677   3.571  0.6965  0.4600  0.0839
  174DOPC  H14Y21299   6.676   2.579   3.432 -0.1503  0.7977 -1.0644
  174DOPC  C31521300   6.886   2.556   3.497  0.4844  0.5333 -0.1940
  174DOPC  H15X21301   6.967   2.629   3.519  1.6982 -0.5372 -0.8828
  174DOPC  H15Y21302   6.916   2.513   3.398 -0.8752 -3.2476  0.8498
  174DOPC  C31621303   6.859   2.430   3.582  0.0728 -0.2700 -0.2975
  174DOPC  H16X21304   6.762   2.393   3.542  0.5795 -0.5417 -1.3271
  174DOPC  H16Y21305   6.938   2.355   3.563  1.6562  1.7206 -2.1328
  174DOPC  C31721306   6.843   2.465   3.732 -0.1541  0.1312  0.3479
  174DOPC  H17X21307   6.946   2.494   3.765  0.6637 -0.1670 -1.7664
  174DOPC  H17Y21308   6.773   2.550   3.745 -0.3146 -0.0776  0.8848
  174DOPC  C31821309   6.801   2.354   3.818  0.3975 -0.0926 -0.8799
  174DOPC  H18X21310   6.818   2.399   3.918  2.9087  0.7794 -1.6152
  174DOPC  H18Y21311   6.695   2.325   3.801  0.3423 -2.0754  2.0988
  174DOPC  H18Z21312   6.862   2.261   3.814  2.9378  1.3265  1.4791
  175DOPC     N21313   3.547   6.168   2.220  0.2804  0.2928  0.6646
  175DOPC   C1221314   3.585   6.169   2.370 -0.5092 -0.1546 -0.7575
  175DOPC  H12A21315   3.556   6.267   2.405 -1.1091  0.2103 -2.1899
  175DOPC  H12B21316   3.692   6.167   2.388 -0.9522  1.6014  2.7285
  175DOPC   C1321317   3.399   6.167   2.218 -0.0189 -0.4020  0.2583
  175DOPC  H13A21318   3.350   6.081   2.260  1.5399 -1.0790  0.7548
  175DOPC  H13B21319   3.364   6.254   2.271 -1.4483 -0.0973 -1.1200
  175DOPC  H13C21320   3.359   6.175   2.118 -0.7453 -0.0874  0.5669
  175DOPC   C1421321   3.600   6.048   2.149 -0.1577  0.0809  0.1602
  175DOPC  H14A21322   3.558   6.034   2.051  1.2811  1.6368 -0.7354
  175DOPC  H14B21323   3.704   6.054   2.120  0.0117  0.9650  0.8894
  175DOPC  H14C21324   3.574   5.966   2.215 -3.3285 -0.0338 -1.0703
  175DOPC   C1521325   3.617   6.279   2.152  0.0488  0.1005 -0.1182
  175DOPC  H15A21326   3.603   6.378   2.193  0.7473  1.8740 -3.7336
  175DOPC  H15B21327   3.590   6.295   2.048  3.0557 -0.4991 -1.0933
  175DOPC  H15C21328   3.721   6.252   2.146 -0.1618 -0.9093  0.6561
  175DOPC   C1121329   3.519   6.067   2.461  0.2017 -1.5788 -0.3683
  175DOPC  H11A21330   3.555   6.085   2.565 -0.0088  0.0724 -0.5471
  175DOPC  H11B21331   3.409   6.079   2.456  0.4108  1.9719  0.4839
  175DOPC     P21332   3.652   5.837   2.503  0.2506 -0.2411 -0.0160
  175DOPC   O1321333   3.778   5.912   2.513 -0.5617 -0.1370  0.3914
  175DOPC   O1421334   3.658   5.705   2.436 -0.0441 -0.2464  0.0751
  175DOPC   O1221335   3.552   5.937   2.420 -0.1091  0.5815 -0.1987
  175DOPC   O1121336   3.592   5.829   2.649 -0.0975 -0.4238 -0.5251
  175DOPC    C121337   3.485   5.729   2.664 -0.0824 -0.5536 -1.0380
  175DOPC    HA21338   3.494   5.642   2.596 -0.2237 -1.5992  0.2406
  175DOPC    HB21339   3.386   5.778   2.652 -0.3617 -0.1855  1.9234
  175DOPC    C221340   3.480   5.668   2.819 -0.3505  0.3149  0.2034
  175DOPC    HS21341   3.390   5.604   2.824 -0.1186  0.1030  2.2899
  175DOPC   O2121342   3.477   5.759   2.929  0.4235 -0.7605  0.9020
  175DOPC   C2121343   3.361   5.822   2.948 -0.2607 -0.1035 -0.0266
  175DOPC   O2221344   3.261   5.808   2.878 -0.5441 -0.8554 -0.4085
  175DOPC   C2221345   3.375   5.914   3.064  0.5098  0.1338 -0.4752
  175DOPC   H2R21346   3.473   5.963   3.044  0.6407  0.7828  1.5128
  175DOPC   H2S21347   3.391   5.861   3.161  0.0432  0.7577 -0.0473
  175DOPC    C321348   3.599   5.571   2.838  0.4679  0.4417 -0.0398
  175DOPC    HX21349   3.687   5.621   2.793 -0.4401  1.2429 -1.0062
  175DOPC    HY21350   3.586   5.477   2.780 -2.4465 -0.3278  1.6276
  175DOPC   O3121351   3.634   5.543   2.979 -0.2978 -0.5368 -0.5882
  175DOPC   C3121352   3.550   5.473   3.052  0.2530 -0.0557  0.9307
  175DOPC   O3221353   3.455   5.404   3.013  0.4282 -0.0117 -0.3879
  175DOPC   C3221354   3.591   5.511   3.190  0.2252 -0.5024 -0.1651
  175DOPC   H2X21355   3.681   5.452   3.219 -0.4983 -1.7407 -0.3445
  175DOPC   H2Y21356   3.609   5.619   3.206 -1.3289 -0.4455  1.6333
  175DOPC   C2321357   3.256   6.004   3.084  0.0071 -0.2172  0.7081
  175DOPC   H3R21358   3.171   5.947   3.127  1.1470 -0.6713  2.4753
  175DOPC   H3S21359   3.226   6.044   2.985  0.2959 -2.6383 -0.4296
  175DOPC   C2421360   3.283   6.116   3.189 -0.2253  0.1406  0.3916
  175DOPC   H4R21361   3.211   6.198   3.170  0.9640  1.0767 -0.2551
  175DOPC   H4S21362   3.379   6.163   3.159 -0.1492 -0.7610 -0.8308
  175DOPC   C2521363   3.280   6.075   3.329  0.2056  0.4946  0.1559
  175DOPC   H5R21364   3.371   6.011   3.337 -0.7207 -0.7427  1.4047
  175DOPC   H5S21365   3.191   6.014   3.352  1.2674 -0.7470  1.1489
  175DOPC   C2621366   3.289   6.179   3.431  0.3863 -0.5417 -0.5078
  175DOPC   H6R21367   3.196   6.238   3.416 -0.1432 -1.1520  0.3038
  175DOPC   H6S21368   3.377   6.244   3.412  0.6290  0.4602  3.2457
  175DOPC   C2721369   3.294   6.118   3.570 -0.5481 -0.0295  0.3583
  175DOPC   H7R21370   3.397   6.078   3.580  0.2350  1.3980 -1.3706
  175DOPC   H7S21371   3.227   6.030   3.579 -2.4775  1.3429  0.2154
  175DOPC   C2821372   3.259   6.212   3.680  0.2155  0.0547  0.4882
  175DOPC   H8R21373   3.223   6.147   3.763  0.7116 -1.3850 -0.3842
  175DOPC   H8S21374   3.172   6.274   3.650  0.6766 -0.0172 -1.0887
  175DOPC   C2921375   3.362   6.310   3.707  0.3951  0.5396 -0.8504
  175DOPC   H9R21376   3.413   6.343   3.615 -0.9651  1.6461 -1.2448
  175DOPC  C21021377   3.405   6.339   3.831  0.3424  0.4514 -0.2753
  175DOPC  H10R21378   3.480   6.419   3.845 -0.2460  0.8886  0.4272
  175DOPC  C21121379   3.344   6.280   3.951  0.0450 -0.3353 -0.0709
  175DOPC  H11R21380   3.244   6.234   3.933 -0.5577  0.7765  0.3886
  175DOPC  H11S21381   3.330   6.351   4.035  0.4450 -2.4921  1.9183
  175DOPC  C21221382   3.431   6.164   4.010 -0.5388 -0.3075  0.2581
  175DOPC  H12R21383   3.539   6.184   3.996 -1.0281  2.4228 -0.1511
  175DOPC  H12S21384   3.395   6.072   3.959 -1.2183 -1.2303  2.2615
  175DOPC  C21321385   3.415   6.157   4.165  0.1644  0.4917  1.0265
  175DOPC  H13R21386   3.308   6.157   4.196  0.6882 -1.0405  3.0524
  175DOPC  H13S21387   3.458   6.251   4.206  0.0807  0.6187  0.8259
  175DOPC  C21421388   3.495   6.035   4.215 -0.0277 -0.3988 -0.5466
  175DOPC  H14R21389   3.603   6.054   4.201 -0.2865  2.1876  0.2643
  175DOPC  H14S21390   3.466   5.945   4.158  0.4309 -1.0692  0.2584
  175DOPC  C21521391   3.471   6.003   4.370  0.3707 -0.2144 -0.0458
  175DOPC  H15R21392   3.540   5.919   4.394  0.1863 -0.6324 -0.9495
  175DOPC  H15S21393   3.364   5.975   4.379 -0.3618  2.5474  0.6866
  175DOPC  C21621394   3.529   6.115   4.457 -0.2938  0.6791  0.6380
  175DOPC  H16R21395   3.469   6.208   4.444  2.2773  2.4289  0.5092
  175DOPC  H16S21396   3.633   6.125   4.422 -0.1685  0.4831  0.9460
  175DOPC  C21721397   3.533   6.077   4.602 -0.9310 -0.1295  0.3582
  175DOPC  H17R21398   3.617   6.006   4.618 -1.6100 -1.4858 -1.7144
  175DOPC  H17S21399   3.441   6.025   4.636 -1.0105  1.1007  2.1391
  175DOPC  C21821400   3.554   6.204   4.686 -0.0567  0.2606 -0.3354
  175DOPC  H18R21401   3.582   6.173   4.789 -0.3729 -0.8536 -0.5722
  175DOPC  H18S21402   3.465   6.270   4.689  0.4268  0.8902  1.4371
  175DOPC  H18T21403   3.635   6.261   4.635  2.0786 -1.6850  0.6972
  175DOPC   C3321404   3.464   5.490   3.280  0.0702 -0.0836  0.3343
  175DOPC   H3X21405   3.442   5.382   3.263  1.2407 -0.2553 -0.1821
  175DOPC   H3Y21406   3.383   5.561   3.251 -0.6099 -0.4370  1.2884
  175DOPC   C3421407   3.495   5.538   3.425  0.5277  0.6394  0.1384
  175DOPC   H4X21408   3.602   5.514   3.438  0.5983  0.8868  0.0105
  175DOPC   H4Y21409   3.433   5.477   3.494  0.0609  0.3895 -0.4933
  175DOPC   C3521410   3.472   5.689   3.459 -0.0535 -0.0326  0.0551
  175DOPC   H5X21411   3.369   5.722   3.439 -0.0262 -0.0276 -0.0751
  175DOPC   H5Y21412   3.551   5.733   3.395  0.1489 -0.7819 -0.2259
  175DOPC   C3621413   3.515   5.731   3.600 -0.1228 -0.0074 -0.3794
  175DOPC   H6X21414   3.610   5.680   3.628 -0.1694  0.3110  0.4024
  175DOPC   H6Y21415   3.534   5.841   3.592  0.8702  0.0203  1.6799
  175DOPC   C3721416   3.406   5.729   3.711 -0.2892 -0.9306  0.3439
  175DOPC   H7X21417   3.428   5.796   3.797 -0.9308 -0.0529 -0.1572
  175DOPC   H7Y21418   3.322   5.772   3.652 -0.6980 -1.1759  0.7283
  175DOPC   C3821419   3.349   5.590   3.754 -0.0103  0.3758 -0.9401
  175DOPC   H8X21420   3.434   5.523   3.732  1.0378  1.8611 -1.5757
  175DOPC   H8Y21421   3.265   5.562   3.686 -0.7204  0.7179 -0.2218
  175DOPC   C3921422   3.305   5.592   3.898  0.5392  0.0963 -0.0828
  175DOPC   H9X21423   3.201   5.624   3.910 -0.5622 -2.8115 -1.0582
  175DOPC  C31021424   3.378   5.571   4.009 -0.2066 -0.7401 -0.4310
  175DOPC  H10X21425   3.340   5.591   4.110 -1.2229 -1.1095 -0.7269
  175DOPC  C31121426   3.525   5.546   4.007 -0.5281  0.0415  0.1043
  175DOPC  H11X21427   3.560   5.545   3.901 -3.7222 -1.5691 -1.0461
  175DOPC  H11Y21428   3.555   5.449   4.052 -2.2794 -0.5003  0.1768
  175DOPC  C31221429   3.611   5.648   4.083  0.2511  0.2949  0.1832
  175DOPC  H12X21430   3.588   5.750   4.044  2.0850  0.7030  0.0928
  175DOPC  H12Y21431   3.719   5.627   4.067  0.1320 -0.2302  0.0507
  175DOPC  C31321432   3.603   5.648   4.240  0.3127  0.4281  1.0678
  175DOPC  H13X21433   3.500   5.687   4.256 -0.1618 -1.2160  2.3604
  175DOPC  H13Y21434   3.595   5.541   4.271 -0.6073 -0.4173 -1.7314
  175DOPC  C31421435   3.727   5.713   4.304  0.2848  0.2684  0.0963
  175DOPC  H14X21436   3.822   5.689   4.251 -0.1618  0.1713 -0.6920
  175DOPC  H14Y21437   3.716   5.822   4.283 -0.0901  0.6371  2.0307
  175DOPC  C31521438   3.737   5.705   4.454  0.5998 -0.2426 -0.0418
  175DOPC  H15X21439   3.749   5.602   4.495  3.5676 -0.4224 -1.1753
  175DOPC  H15Y21440   3.643   5.749   4.493 -1.3445 -0.1548 -4.2184
  175DOPC  C31621441   3.855   5.776   4.518 -0.3428 -0.0552  0.5404
  175DOPC  H16X21442   3.939   5.711   4.484 -1.1774 -0.1035 -1.5815
  175DOPC  H16Y21443   3.868   5.867   4.456  0.5584 -1.7833 -1.9600
  175DOPC  C31721444   3.869   5.818   4.664  0.2799  0.4785  0.0285
  175DOPC  H17X21445   3.969   5.866   4.672  1.2237 -1.1722 -1.2842
  175DOPC  H17Y21446   3.786   5.888   4.686  0.6499  1.0045 -0.2131
  175DOPC  C31821447   3.852   5.698   4.758  0.4583 -0.1849  0.4157
  175DOPC  H18X21448   3.949   5.646   4.770  1.1074  0.7648 -0.5111
  175DOPC  H18Y21449   3.825   5.739   4.858  0.7553  3.7178 -0.9442
  175DOPC  H18Z21450   3.775   5.621   4.735  0.3865  0.2583 -0.8805
  176DOPC     N21451   3.201   2.399   2.188 -0.0062 -0.3593  0.6874
  176DOPC   C1221452   3.234   2.335   2.318 -0.1494 -0.7040  0.3585
  176DOPC  H12A21453   3.339   2.347   2.342  0.4632 -0.2994 -2.2737
  176DOPC  H12B21454   3.218   2.228   2.321  1.0609 -0.8856  1.6406
  176DOPC   C1321455   3.232   2.543   2.184 -0.5354  0.3792  0.1676
  176DOPC  H13A21456   3.196   2.588   2.092 -0.9157 -2.4814 -1.2045
  176DOPC  H13B21457   3.177   2.587   2.266 -1.7874 -3.6057  1.6813
  176DOPC  H13C21458   3.336   2.572   2.187 -0.3836 -0.1206 -0.0981
  176DOPC   C1421459   3.060   2.376   2.156  0.0204  0.4340 -0.9906
  176DOPC  H14A21460   3.046   2.449   2.078  1.4407  1.5631 -0.2412
  176DOPC  H14B21461   3.037   2.277   2.120  1.3222 -0.0872 -0.4719
  176DOPC  H14C21462   2.999   2.396   2.242 -1.2637  1.5477 -2.1092
  176DOPC   C1521463   3.293   2.338   2.086  0.2106 -0.4283  0.2205
  176DOPC  H15A21464   3.291   2.397   1.996  0.3964 -1.6592 -0.6276
  176DOPC  H15B21465   3.265   2.237   2.059  0.1195 -0.1869 -0.6159
  176DOPC  H15C21466   3.391   2.329   2.130 -0.5691 -1.7352  1.8595
  176DOPC   C1121467   3.149   2.374   2.445  0.6747  0.4844  0.9405
  176DOPC  H11A21468   3.206   2.348   2.537  0.0415  0.3791  1.3172
  176DOPC  H11B21469   3.127   2.482   2.438 -1.3207  0.0213 -1.1507
  176DOPC     P21470   3.035   2.158   2.501  0.0964 -0.4032 -0.2341
  176DOPC   O1321471   3.155   2.094   2.449  0.0752 -0.1586 -0.5463
  176DOPC   O1421472   2.906   2.087   2.461 -0.4735  0.1525 -0.0354
  176DOPC   O1221473   3.020   2.304   2.444  0.4501 -0.4300 -0.3365
  176DOPC   O1121474   3.041   2.165   2.659 -0.2734  0.3926 -0.5610
  176DOPC    C121475   2.950   2.256   2.725 -0.0311 -0.0670 -0.1420
  176DOPC    HA21476   2.856   2.198   2.740  0.2977 -0.6088 -0.1503
  176DOPC    HB21477   2.936   2.347   2.664  2.1304 -0.7002 -1.6886
  176DOPC    C221478   2.999   2.293   2.862  0.1277 -1.0125 -0.1608
  176DOPC    HS21479   2.928   2.361   2.914  1.4462  1.1716 -1.0929
  176DOPC   O2121480   3.128   2.367   2.858  0.3864 -0.7391 -0.2165
  176DOPC   C2121481   3.101   2.502   2.828 -0.1703  0.2894 -0.4097
  176DOPC   O2221482   2.986   2.547   2.823 -0.5356  0.5555 -0.2530
  176DOPC   C2221483   3.229   2.577   2.804 -0.1053  0.2269 -0.3539
  176DOPC   H2R21484   3.201   2.633   2.712 -2.0885  0.2746  0.2363
  176DOPC   H2S21485   3.317   2.513   2.779 -0.9838 -0.9265 -0.5677
  176DOPC    C321486   3.023   2.174   2.957  1.0543  0.6549  0.9196
  176DOPC    HX21487   3.098   2.106   2.911  2.2518  3.0612 -0.9090
  176DOPC    HY21488   2.929   2.116   2.949  2.2207 -0.9938 -3.6856
  176DOPC   O3121489   3.070   2.211   3.088  0.2486  0.1078  0.2389
  176DOPC   C3121490   3.074   2.110   3.177  0.1956 -0.0090  0.3016
  176DOPC   O3221491   3.043   1.996   3.148  0.4585 -0.3640  0.3317
  176DOPC   C3221492   3.129   2.172   3.304  0.6201  0.0731  0.6697
  176DOPC   H2X21493   3.137   2.282   3.291 -1.1396  0.1926  0.3970
  176DOPC   H2Y21494   3.048   2.157   3.379 -1.9062  0.9643 -1.7088
  176DOPC   C2321495   3.250   2.681   2.911  0.9213 -0.2063  0.3879
  176DOPC   H3R21496   3.276   2.628   3.005  1.5966 -0.9354 -0.1995
  176DOPC   H3S21497   3.154   2.732   2.934  0.8723 -0.6607  1.2429
  176DOPC   C2421498   3.361   2.783   2.890 -0.0377  0.0846  0.1584
  176DOPC   H4R21499   3.363   2.810   2.782 -1.3913  0.4745  0.2161
  176DOPC   H4S21500   3.460   2.734   2.900  0.7468  1.3264 -1.1517
  176DOPC   C2521501   3.354   2.897   2.987  0.2262 -0.5192  0.4342
  176DOPC   H5R21502   3.245   2.918   2.992 -0.0999 -0.6566 -3.4698
  176DOPC   H5S21503   3.398   2.987   2.940 -1.3254 -0.6345 -1.3430
  176DOPC   C2621504   3.415   2.855   3.125  0.1486  0.0385  0.1589
  176DOPC   H6R21505   3.524   2.846   3.106 -0.0382 -1.0702 -0.4664
  176DOPC   H6S21506   3.369   2.758   3.153  1.3733 -1.0982 -1.5993
  176DOPC   C2721507   3.399   2.969   3.234 -0.0095  1.2016  0.4904
  176DOPC   H7R21508   3.295   3.001   3.258 -0.7193  0.5968 -1.5408
  176DOPC   H7S21509   3.443   3.056   3.180  0.1498 -0.8543 -2.9692
  176DOPC   C2821510   3.472   2.934   3.361  0.2173  0.3394 -0.0850
  176DOPC   H8R21511   3.571   2.885   3.346  0.9327  1.9055 -0.7916
  176DOPC   H8S21512   3.411   2.855   3.410 -2.6101  1.1571 -2.0502
  176DOPC   C2921513   3.474   3.049   3.453 -0.0572 -0.8650  0.2455
  176DOPC   H9R21514   3.416   3.138   3.427  1.2828  0.1469  0.5651
  176DOPC  C21021515   3.551   3.066   3.560 -0.8372 -0.5544  0.2040
  176DOPC  H10R21516   3.542   3.162   3.612 -1.8173 -0.1543 -0.6698
  176DOPC  C21121517   3.654   2.964   3.616  0.3863  0.3832  0.5111
  176DOPC  H11R21518   3.758   2.999   3.598  0.7754 -0.9497  0.1013
  176DOPC  H11S21519   3.630   2.864   3.575 -1.1695  0.7569  0.4318
  176DOPC  C21221520   3.642   2.937   3.762  0.4025  0.1450  0.5484
  176DOPC  H12R21521   3.692   2.847   3.803  1.5532  1.2573  1.6400
  176DOPC  H12S21522   3.535   2.920   3.786  0.6916 -4.6744 -0.5120
  176DOPC  C21321523   3.696   3.051   3.847  0.3423 -0.0019 -0.1432
  176DOPC  H13R21524   3.621   3.133   3.851 -0.8194 -1.0733  1.1102
  176DOPC  H13S21525   3.783   3.106   3.806 -0.8441  1.6467 -0.5246
  176DOPC  C21421526   3.725   3.021   3.993 -0.3263 -0.6498 -0.2138
  176DOPC  H14R21527   3.770   3.114   4.036  2.1748 -2.0415  0.3881
  176DOPC  H14S21528   3.798   2.939   4.012 -0.2816 -0.0096  2.9432
  176DOPC  C21521529   3.593   2.995   4.071  0.1701  0.5499 -0.7860
  176DOPC  H15R21530   3.562   2.898   4.025  2.9023 -0.9574  0.3137
  176DOPC  H15S21531   3.522   3.076   4.042  1.7380  1.6439 -1.7370
  176DOPC  C21621532   3.597   2.977   4.228 -0.1252 -0.2817 -0.3487
  176DOPC  H16R21533   3.656   2.892   4.266 -0.9024 -0.1368  1.2833
  176DOPC  H16S21534   3.494   2.969   4.269  0.8492 -0.2090  2.3086
  176DOPC  C21721535   3.662   3.096   4.299  0.0848 -0.5689 -0.1313
  176DOPC  H17R21536   3.763   3.119   4.260 -0.5431  0.8974 -0.9656
  176DOPC  H17S21537   3.684   3.066   4.404  3.4643  3.8884  0.7343
  176DOPC  C21821538   3.584   3.226   4.325 -0.0059  0.2147 -0.3010
  176DOPC  H18R21539   3.614   3.283   4.415 -2.2178  0.6150  0.2567
  176DOPC  H18S21540   3.476   3.199   4.329 -0.0337  0.3988  0.2439
  176DOPC  H18T21541   3.598   3.297   4.242 -1.2851 -0.5298 -1.1861
  176DOPC   C3321542   3.261   2.121   3.368  0.0630  0.1143 -0.3735
  176DOPC   H3X21543   3.349   2.127   3.301  0.3519  0.9832  0.0803
  176DOPC   H3Y21544   3.233   2.014   3.382 -2.4693  0.9060  1.4532
  176DOPC   C3421545   3.285   2.185   3.500 -0.4187 -0.6273  0.4238
  176DOPC   H4X21546   3.190   2.203   3.554 -0.3380 -0.6250  0.5660
  176DOPC   H4Y21547   3.331   2.284   3.480 -1.5363  0.0380  1.0451
  176DOPC   C3521548   3.378   2.107   3.592  0.1941  0.3559  0.3233
  176DOPC   H5X21549   3.459   2.062   3.531  1.4749  0.7697  1.6525
  176DOPC   H5Y21550   3.326   2.020   3.637  3.3854 -2.3128 -0.7705
  176DOPC   C3621551   3.450   2.175   3.707 -0.0400 -0.4601 -0.4205
  176DOPC   H6X21552   3.517   2.097   3.751  1.4614  1.2942  0.5324
  176DOPC   H6Y21553   3.516   2.253   3.664  0.2345 -0.6766 -0.4011
  176DOPC   C3721554   3.352   2.241   3.812  0.1494 -0.1986  0.3857
  176DOPC   H7X21555   3.264   2.289   3.764 -1.7580 -1.3155  2.5644
  176DOPC   H7Y21556   3.304   2.156   3.866 -1.7202  0.4902 -0.1038
  176DOPC   C3821557   3.412   2.345   3.912  0.0307  0.1380  0.5178
  176DOPC   H8X21558   3.324   2.396   3.957  0.1619  0.8516 -0.0228
  176DOPC   H8Y21559   3.460   2.420   3.847 -0.1594 -0.8374 -0.7939
  176DOPC   C3921560   3.504   2.284   4.018 -0.3587  0.2951  0.0796
  176DOPC   H9X21561   3.584   2.231   3.965  0.1316  0.4276  0.6729
  176DOPC  C31021562   3.483   2.265   4.146 -0.0699 -0.2548 -0.1989
  176DOPC  H10X21563   3.564   2.236   4.214  1.0878 -0.2122 -1.5087
  176DOPC  C31121564   3.366   2.297   4.239 -0.5278 -0.0666  0.8604
  176DOPC  H11X21565   3.303   2.206   4.249 -0.1100 -0.2778  1.6998
  176DOPC  H11Y21566   3.300   2.372   4.191  0.2429  0.6669  0.9203
  176DOPC  C31221567   3.403   2.344   4.375 -0.7914  0.2673 -0.3922
  176DOPC  H12X21568   3.457   2.271   4.439 -2.1527  0.6988  1.3091
  176DOPC  H12Y21569   3.313   2.354   4.439  0.3707 -0.9235  1.5050
  176DOPC  C31321570   3.491   2.470   4.381 -0.0497  0.1386 -0.1326
  176DOPC  H13X21571   3.599   2.448   4.390  0.6259  2.8131 -0.8214
  176DOPC  H13Y21572   3.477   2.532   4.290  1.0987  1.6251  0.6600
  176DOPC  C31421573   3.466   2.553   4.503  0.5880  0.5065 -0.1865
  176DOPC  H14X21574   3.482   2.487   4.592 -1.5097 -0.2234 -0.2733
  176DOPC  H14Y21575   3.556   2.617   4.508  1.5208 -0.7497 -0.3474
  176DOPC  C31521576   3.335   2.632   4.522 -0.1703 -0.2071 -0.2784
  176DOPC  H15X21577   3.302   2.606   4.625 -0.7077 -0.2277 -0.4514
  176DOPC  H15Y21578   3.252   2.607   4.453 -1.1099 -0.8584  1.0411
  176DOPC  C31621579   3.352   2.779   4.503 -0.3173  0.2680  0.4051
  176DOPC  H16X21580   3.415   2.813   4.588 -0.7482  2.8275 -0.2169
  176DOPC  H16Y21581   3.411   2.804   4.413 -0.2581 -0.0048  0.3672
  176DOPC  C31721582   3.219   2.861   4.497 -0.1255 -0.5523 -0.0847
  176DOPC  H17X21583   3.157   2.832   4.410  0.0500 -0.2677 -0.3080
  176DOPC  H17Y21584   3.159   2.846   4.588 -0.3538 -0.1112 -0.1591
  176DOPC  C31821585   3.245   3.012   4.476 -0.2740  0.1998  0.0629
  176DOPC  H18X21586   3.315   3.060   4.548 -0.3782  0.6475 -0.1287
  176DOPC  H18Y21587   3.272   3.023   4.369 -2.1667 -2.3737 -0.7813
  176DOPC  H18Z21588   3.152   3.070   4.495  0.2839  0.7732  1.1166
  177DOPC     N21589   5.582   5.624   2.118 -0.2682 -0.3450  0.0310
  177DOPC   C1221590   5.593   5.476   2.158 -0.3454 -0.2270 -0.0932
  177DOPC  H12A21591   5.682   5.463   2.219  0.4525 -2.4197 -1.5989
  177DOPC  H12B21592   5.618   5.431   2.063 -0.0030  1.1426 -0.6754
  177DOPC   C1321593   5.585   5.709   2.247 -0.4020 -0.1460  0.2606
  177DOPC  H13A21594   5.516   5.666   2.319  1.8780 -2.3400  1.2819
  177DOPC  H13B21595   5.680   5.736   2.289 -1.5888 -0.8774  3.8089
  177DOPC  H13C21596   5.550   5.808   2.220  0.5750 -0.0597 -0.7211
  177DOPC   C1421597   5.452   5.653   2.050  0.2168  0.1397  0.1006
  177DOPC  H14A21598   5.444   5.601   1.956 -1.6574  0.4534  0.0571
  177DOPC  H14B21599   5.372   5.609   2.107  0.0292 -0.8196 -0.8756
  177DOPC  H14C21600   5.422   5.756   2.048 -1.2596 -0.2596  0.5352
  177DOPC   C1521601   5.695   5.665   2.030 -0.3060  0.0217 -0.4867
  177DOPC  H15A21602   5.691   5.764   1.987 -1.1221 -1.4620 -4.2983
  177DOPC  H15B21603   5.709   5.595   1.949  0.3565 -1.1335  0.5910
  177DOPC  H15C21604   5.785   5.650   2.087  0.2674 -0.6567 -1.5355
  177DOPC   C1121605   5.479   5.403   2.238 -0.2046  0.3042 -0.2193
  177DOPC  H11A21606   5.387   5.414   2.175 -0.8894  0.7970  0.8486
  177DOPC  H11B21607   5.512   5.299   2.255  0.9259  1.2002  4.1225
  177DOPC     P21608   5.536   5.441   2.491  0.1558  0.1002 -0.5328
  177DOPC   O1321609   5.503   5.543   2.590 -0.4723  0.1368 -0.4698
  177DOPC   O1421610   5.679   5.424   2.452  0.3623 -0.0271  0.0792
  177DOPC   O1221611   5.443   5.464   2.363 -0.1259  0.4232 -0.2148
  177DOPC   O1121612   5.488   5.298   2.534  0.6469  0.1943 -0.3262
  177DOPC    C121613   5.350   5.283   2.588  0.2910  0.3116  0.5377
  177DOPC    HA21614   5.300   5.206   2.527  1.0476 -0.0707  0.3869
  177DOPC    HB21615   5.281   5.367   2.564  2.6048  2.4262  0.8207
  177DOPC    C221616   5.348   5.254   2.740  0.0947  0.3744  0.3410
  177DOPC    HS21617   5.247   5.215   2.766  0.0091 -0.1629 -0.7531
  177DOPC   O2121618   5.375   5.378   2.802 -0.2998  0.1182  0.2168
  177DOPC   C2121619   5.299   5.415   2.902  0.4776 -0.0875  0.1141
  177DOPC   O2221620   5.198   5.361   2.946 -0.8666  0.6200 -0.4890
  177DOPC   C2221621   5.341   5.565   2.937 -0.8741 -0.1663  0.4196
  177DOPC   H2R21622   5.275   5.627   2.872  1.7715  2.3915 -0.0161
  177DOPC   H2S21623   5.444   5.573   2.897 -0.5333 -1.4588  0.9839
  177DOPC    C321624   5.462   5.156   2.767 -0.4019  0.2655 -0.5820
  177DOPC    HX21625   5.551   5.221   2.780  0.2723 -0.4152 -1.7320
  177DOPC    HY21626   5.460   5.086   2.681 -2.7500  1.6591 -1.7677
  177DOPC   O3121627   5.431   5.082   2.889  0.1455  0.0136  1.0324
  177DOPC   C3121628   5.510   5.103   2.994 -0.2227 -0.3649  0.2947
  177DOPC   O3221629   5.614   5.170   3.000 -0.0717  0.2605  0.5970
  177DOPC   C3221630   5.455   5.017   3.109  0.4876  0.0666 -0.5357
  177DOPC   H2X21631   5.346   4.996   3.103  0.2433  1.0202  0.2825
  177DOPC   H2Y21632   5.502   4.917   3.095  1.0167  0.5431 -2.3546
  177DOPC   C2321633   5.340   5.593   3.086  0.0265  0.1435  0.0124
  177DOPC   H3R21634   5.240   5.621   3.126 -0.7096  0.9397 -2.2118
  177DOPC   H3S21635   5.393   5.690   3.100 -1.4461  0.8635  0.9514
  177DOPC   C2421636   5.412   5.492   3.172  0.1657  0.5136  0.0888
  177DOPC   H4R21637   5.519   5.489   3.140  0.8992 -0.7459  2.4275
  177DOPC   H4S21638   5.376   5.387   3.169  2.7341 -0.4257 -0.3597
  177DOPC   C2521639   5.400   5.528   3.317  0.1288  0.2312  0.3238
  177DOPC   H5R21640   5.292   5.527   3.342 -0.2388 -1.0842 -1.1483
  177DOPC   H5S21641   5.446   5.626   3.341 -2.8382  1.8320 -0.0771
  177DOPC   C2621642   5.479   5.436   3.418 -0.0841 -0.3794  0.2550
  177DOPC   H6R21643   5.586   5.423   3.394 -0.0353 -3.7563  1.7778
  177DOPC   H6S21644   5.432   5.336   3.408 -1.1711 -0.0205  1.3711
  177DOPC   C2721645   5.476   5.492   3.564  0.1821  0.4212 -0.0768
  177DOPC   H7R21646   5.368   5.484   3.591  0.7115 -1.2024  1.7738
  177DOPC   H7S21647   5.509   5.598   3.572  0.6408  0.1564  2.1973
  177DOPC   C2821648   5.560   5.403   3.663  0.2322  0.4635  0.3137
  177DOPC   H8R21649   5.655   5.371   3.616  1.1955 -2.2273  3.6341
  177DOPC   H8S21650   5.496   5.312   3.664  0.5077  0.2667  0.1991
  177DOPC   C2921651   5.579   5.470   3.796 -0.1389 -0.0921  0.2748
  177DOPC   H9R21652   5.682   5.500   3.818  0.6592 -3.0228  0.9313
  177DOPC  C21021653   5.503   5.459   3.904 -0.1606 -0.0112 -0.2124
  177DOPC  H10R21654   5.523   5.532   3.984  0.0418  0.7544 -0.9454
  177DOPC  C21121655   5.374   5.389   3.913 -0.0662 -1.0920 -0.3916
  177DOPC  H11R21656   5.394   5.285   3.948  2.5853 -0.0875  1.4454
  177DOPC  H11S21657   5.321   5.385   3.816  0.3076  0.4746 -0.6909
  177DOPC  C21221658   5.292   5.475   4.011 -0.5881 -0.0955 -0.2561
  177DOPC  H12R21659   5.186   5.445   4.001 -0.9452  1.4264 -1.4128
  177DOPC  H12S21660   5.281   5.581   3.980  0.1337 -0.0508 -0.3857
  177DOPC  C21321661   5.331   5.462   4.161 -0.4351 -0.5256  0.6408
  177DOPC  H13R21662   5.270   5.540   4.210 -0.5030  2.1395 -3.2699
  177DOPC  H13S21663   5.439   5.484   4.175 -0.3290 -0.5526 -0.1284
  177DOPC  C21421664   5.296   5.318   4.227 -0.0210 -0.5027 -0.8440
  177DOPC  H14R21665   5.316   5.234   4.157  0.2008 -1.8851  0.8163
  177DOPC  H14S21666   5.187   5.308   4.243 -0.3141  0.5681 -1.9848
  177DOPC  C21521667   5.353   5.306   4.375 -0.2626  0.0116 -0.0090
  177DOPC  H15R21668   5.460   5.276   4.365 -0.2300  0.1025  0.0733
  177DOPC  H15S21669   5.300   5.222   4.425 -0.5099  0.2688  0.1625
  177DOPC  C21621670   5.328   5.426   4.466  0.5361 -0.3413  0.1015
  177DOPC  H16R21671   5.219   5.449   4.467  0.4744 -0.5559  2.0766
  177DOPC  H16S21672   5.376   5.519   4.426 -0.0080 -1.1658 -2.6857
  177DOPC  C21721673   5.380   5.398   4.611 -0.0832 -0.1601 -0.2121
  177DOPC  H17R21674   5.490   5.398   4.598  0.0438  0.5884  0.7672
  177DOPC  H17S21675   5.357   5.296   4.648  0.0564  0.2413  1.0070
  177DOPC  C21821676   5.337   5.501   4.722  0.0444  0.1131  0.3448
  177DOPC  H18R21677   5.416   5.503   4.800  1.1868 -0.5169 -0.7460
  177DOPC  H18S21678   5.244   5.463   4.769 -0.3152 -1.8129 -1.7201
  177DOPC  H18T21679   5.333   5.609   4.696  1.5505 -0.3030 -1.8776
  177DOPC   C3321680   5.488   5.073   3.245  0.9876  0.7768 -0.0358
  177DOPC   H3X21681   5.437   5.172   3.246  0.3073  0.4887 -2.3062
  177DOPC   H3Y21682   5.593   5.106   3.266  0.1522  2.5512  1.7632
  177DOPC   C3421683   5.446   4.968   3.356  0.1177  0.5745  0.1332
  177DOPC   H4X21684   5.524   4.890   3.341  0.1312  0.9117 -1.8731
  177DOPC   H4Y21685   5.347   4.938   3.316  1.7572 -0.8605 -3.3758
  177DOPC   C3521686   5.449   5.030   3.493 -0.5513 -0.9367  0.0957
  177DOPC   H5X21687   5.372   5.110   3.494 -0.7693 -1.1411 -0.2366
  177DOPC   H5Y21688   5.541   5.092   3.506 -2.3707  1.6168  1.5841
  177DOPC   C3621689   5.431   4.937   3.610 -0.4034 -0.5789  0.0698
  177DOPC   H6X21690   5.340   4.874   3.606  0.7920 -2.7102  3.0520
  177DOPC   H6Y21691   5.517   4.867   3.610  2.1201  2.3034  0.2945
  177DOPC   C3721692   5.430   5.019   3.746  0.4100 -0.1230 -0.2443
  177DOPC   H7X21693   5.498   5.102   3.716  2.3912 -1.3262  0.6937
  177DOPC   H7Y21694   5.326   5.054   3.762 -0.2406 -1.6861 -0.8304
  177DOPC   C3821695   5.483   4.941   3.872  0.6239 -0.3741 -0.1195
  177DOPC   H8X21696   5.503   5.032   3.932  0.9766 -0.2183 -0.4692
  177DOPC   H8Y21697   5.582   4.902   3.839  1.6258  0.5411  1.6734
  177DOPC   C3921698   5.394   4.844   3.940 -0.1020  0.7939  0.0489
  177DOPC   H9X21699   5.341   4.778   3.870  1.9779 -0.9696  0.0671
  177DOPC  C31021700   5.352   4.835   4.066 -0.1593  0.3098 -0.5027
  177DOPC  H10X21701   5.292   4.748   4.096  0.6106  0.2418  0.9422
  177DOPC  C31121702   5.379   4.940   4.170 -0.0230  0.2675 -0.6095
  177DOPC  H11X21703   5.284   4.955   4.227  0.2868  2.6937 -0.6503
  177DOPC  H11Y21704   5.414   5.038   4.132 -2.5718  1.8177  0.7366
  177DOPC  C31221705   5.483   4.895   4.278  0.5371 -0.2469 -0.1033
  177DOPC  H12X21706   5.575   4.865   4.223  0.1075 -2.3585  0.2594
  177DOPC  H12Y21707   5.441   4.806   4.329  0.5344 -0.6605 -0.8176
  177DOPC  C31321708   5.520   4.996   4.386  0.7769 -0.1293 -0.0121
  177DOPC  H13X21709   5.566   5.084   4.337  0.5914  1.3622  2.3246
  177DOPC  H13Y21710   5.429   5.015   4.448 -0.3583 -0.6185 -1.4710
  177DOPC  C31421711   5.630   4.955   4.479  0.3340  0.1473 -0.9013
  177DOPC  H14X21712   5.599   4.858   4.523 -0.0492  0.4748 -0.4428
  177DOPC  H14Y21713   5.724   4.946   4.420  0.2911 -3.1244 -0.6401
  177DOPC  C31521714   5.642   5.053   4.588  0.4954 -0.8771  0.4969
  177DOPC  H15X21715   5.629   5.158   4.554  0.8014 -1.0420 -0.1533
  177DOPC  H15Y21716   5.747   5.052   4.624  0.6330  0.7130  0.2239
  177DOPC  C31621717   5.543   5.018   4.708 -0.8287  0.6905 -0.0681
  177DOPC  H16X21718   5.441   5.032   4.666 -1.4215  1.2554  1.4741
  177DOPC  H16Y21719   5.560   4.911   4.731 -0.5530  0.6011 -0.6665
  177DOPC  C31721720   5.575   5.102   4.837  0.3390  0.2016  0.1910
  177DOPC  H17X21721   5.576   5.211   4.818  0.7702  0.6621  2.5815
  177DOPC  H17Y21722   5.494   5.074   4.907  0.1794 -0.6342 -0.3122
  177DOPC  C31821723   5.708   5.057   4.899  0.1010 -0.0923  0.0267
  177DOPC  H18X21724   5.710   5.026   5.005 -0.5010  0.3841  0.1818
  177DOPC  H18Y21725   5.750   4.968   4.847  1.9741  0.4726  0.4833
  177DOPC  H18Z21726   5.795   5.126   4.889 -0.8003  1.1280  0.3755
  178DOPC     N21727   2.686   5.325   2.576  0.1343 -0.2936 -0.1617
  178DOPC   C1221728   2.614   5.448   2.520 -0.3729 -0.2016  0.1600
  178DOPC  H12A21729   2.507   5.434   2.531  0.1088 -4.1425  1.2298
  178DOPC  H12B21730   2.621   5.454   2.412  2.2035  2.6934  0.3472
  178DOPC   C1321731   2.652   5.299   2.719 -0.6694  0.1348 -0.4054
  178DOPC  H13A21732   2.724   5.229   2.759  0.9476  2.0518  0.2061
  178DOPC  H13B21733   2.659   5.389   2.779 -1.5179  0.2476 -0.4618
  178DOPC  H13C21734   2.552   5.259   2.721  0.1546 -2.0928  1.5976
  178DOPC   C1421735   2.834   5.330   2.563  0.2828  0.2329 -0.4794
  178DOPC  H14A21736   2.884   5.240   2.596 -1.3169 -1.2887 -2.0134
  178DOPC  H14B21737   2.862   5.361   2.463  1.7111 -3.1586 -1.2749
  178DOPC  H14C21738   2.864   5.405   2.635 -1.3440  0.6728 -0.2236
  178DOPC   C1521739   2.645   5.200   2.499  0.0381 -0.0299  1.1045
  178DOPC  H15A21740   2.733   5.145   2.471  0.3363  0.4594  1.0642
  178DOPC  H15B21741   2.575   5.217   2.419 -1.3077 -1.8492  1.8127
  178DOPC  H15C21742   2.598   5.132   2.569 -0.8171  0.3773  0.9407
  178DOPC   C1121743   2.649   5.583   2.579  0.2685  0.4808  0.6283
  178DOPC  H11A21744   2.562   5.642   2.544 -0.1992  0.8635  2.3136
  178DOPC  H11B21745   2.646   5.577   2.690  1.6053 -2.3038  0.6084
  178DOPC     P21746   2.816   5.674   2.398 -0.3760  0.2385 -0.0249
  178DOPC   O1321747   2.723   5.618   2.295  0.3046  0.0051  0.6205
  178DOPC   O1421748   2.958   5.646   2.359 -0.1401 -0.0693 -0.4961
  178DOPC   O1221749   2.776   5.622   2.539  0.0080 -0.4617 -0.4790
  178DOPC   O1121750   2.783   5.826   2.396  0.7587 -0.1701  0.2037
  178DOPC    C121751   2.847   5.928   2.471 -0.4862 -0.3298 -0.0369
  178DOPC    HA21752   2.848   6.017   2.405  1.4117  0.1024  0.5157
  178DOPC    HB21753   2.952   5.894   2.485 -0.0009  1.0449 -0.1843
  178DOPC    C221754   2.792   5.943   2.610  0.5534  0.1025 -0.3739
  178DOPC    HS21755   2.852   5.873   2.672 -0.7706 -0.3305  0.4703
  178DOPC   O2121756   2.646   5.914   2.615 -0.6504 -0.1216 -0.1962
  178DOPC   C2121757   2.601   5.893   2.741 -0.5370  0.5368 -0.2310
  178DOPC   O2221758   2.667   5.859   2.835 -0.2163 -0.3110 -0.4867
  178DOPC   C2221759   2.452   5.913   2.740  0.1651 -0.0069  0.0632
  178DOPC   H2R21760   2.405   5.831   2.680  0.9461  0.4085 -1.1586
  178DOPC   H2S21761   2.446   6.014   2.695  0.6932  0.2597  0.5844
  178DOPC    C321762   2.809   6.092   2.663  0.7150  0.5848 -0.7809
  178DOPC    HX21763   2.731   6.144   2.604  0.2561  0.2007 -0.5166
  178DOPC    HY21764   2.913   6.121   2.637  1.1711 -0.7003 -0.4979
  178DOPC   O3121765   2.783   6.111   2.805  0.5716 -0.1385 -0.3283
  178DOPC   C3121766   2.783   6.247   2.825  0.7687 -0.8696  0.6534
  178DOPC   O3221767   2.825   6.329   2.743  0.4907  0.2666 -0.2076
  178DOPC   C3221768   2.743   6.275   2.967  0.0566  0.1444 -0.2520
  178DOPC   H2X21769   2.658   6.346   2.976  0.1982  0.2050  0.7453
  178DOPC   H2Y21770   2.714   6.177   3.011  1.6358 -0.5067 -0.5868
  178DOPC   C2321771   2.387   5.921   2.879  0.3333 -0.0191 -0.0422
  178DOPC   H3R21772   2.282   5.946   2.852  0.8646  0.2819 -2.0099
  178DOPC   H3S21773   2.433   6.006   2.934  0.9338 -1.4119  1.6818
  178DOPC   C2421774   2.378   5.797   2.970  0.2903  1.3303 -0.7119
  178DOPC   H4R21775   2.447   5.718   2.933 -0.1626  0.1820  0.8025
  178DOPC   H4S21776   2.278   5.749   2.963  1.4408 -1.6512  1.2351
  178DOPC   C2521777   2.398   5.839   3.120  0.4603  0.4578  0.4635
  178DOPC   H5R21778   2.306   5.885   3.163 -0.6805 -0.6663 -0.6595
  178DOPC   H5S21779   2.485   5.905   3.137  1.4671 -0.4663 -0.9080
  178DOPC   C2621780   2.428   5.710   3.202 -0.3631 -0.1479  0.3409
  178DOPC   H6R21781   2.507   5.652   3.150  2.4306  2.1801  1.7414
  178DOPC   H6S21782   2.331   5.655   3.208 -1.2884  1.4074  0.0093
  178DOPC   C2721783   2.491   5.742   3.340 -0.5570 -0.3425 -0.0071
  178DOPC   H7R21784   2.543   5.838   3.320 -1.3216  0.2791  0.8800
  178DOPC   H7S21785   2.565   5.668   3.376 -0.9674 -0.7527  0.0068
  178DOPC   C2821786   2.382   5.766   3.444 -0.8404 -0.0342 -0.1378
  178DOPC   H8R21787   2.309   5.682   3.453  0.2739 -0.8520  1.7306
  178DOPC   H8S21788   2.322   5.856   3.419 -0.1181  0.5491  0.1916
  178DOPC   C2921789   2.446   5.805   3.580  0.6003  0.1937  0.5088
  178DOPC   H9R21790   2.491   5.906   3.589  2.0000 -0.4295  0.7804
  178DOPC  C21021791   2.467   5.716   3.677 -0.2637 -0.6549  0.2372
  178DOPC  H10R21792   2.516   5.749   3.769  1.5798  0.0482 -0.9451
  178DOPC  C21121793   2.432   5.567   3.670  0.1767  0.1973  0.5433
  178DOPC  H11R21794   2.532   5.519   3.671  1.5708  2.9272  0.6693
  178DOPC  H11S21795   2.374   5.546   3.578 -1.6655 -0.4758  1.7977
  178DOPC  C21221796   2.345   5.526   3.797  0.5476 -0.0498 -0.9550
  178DOPC  H12R21797   2.296   5.428   3.779  2.8951 -1.1981 -1.4210
  178DOPC  H12S21798   2.280   5.615   3.812  1.9064  0.7091  0.7901
  178DOPC  C21321799   2.439   5.498   3.923  0.3975 -1.0528  0.8048
  178DOPC  H13R21800   2.508   5.584   3.936 -1.1644  0.6612 -1.3358
  178DOPC  H13S21801   2.497   5.406   3.903 -0.0274 -0.8942 -1.4148
  178DOPC  C21421802   2.349   5.477   4.042 -0.4512  0.5816  0.2613
  178DOPC  H14R21803   2.275   5.397   4.020 -0.2459  0.5178 -0.2006
  178DOPC  H14S21804   2.299   5.575   4.055  0.5535  1.2380 -0.7034
  178DOPC  C21521805   2.418   5.433   4.173  0.2036  0.2452  0.0183
  178DOPC  H15R21806   2.446   5.326   4.161  2.6751  0.7128  1.0069
  178DOPC  H15S21807   2.340   5.433   4.252 -1.2476 -4.4074 -1.1319
  178DOPC  C21621808   2.534   5.534   4.213 -0.1018  0.1644  0.2244
  178DOPC  H16R21809   2.472   5.624   4.233 -1.7971 -0.9503  0.1683
  178DOPC  H16S21810   2.597   5.547   4.122 -1.7073  0.0082 -0.9583
  178DOPC  C21721811   2.617   5.488   4.338  0.5538  0.4850  0.5066
  178DOPC  H17R21812   2.692   5.570   4.346  0.5240  0.7666 -1.6172
  178DOPC  H17S21813   2.671   5.392   4.322  1.5563  0.9011  1.2279
  178DOPC  C21821814   2.533   5.474   4.463  0.9266  0.1445  0.0959
  178DOPC  H18R21815   2.454   5.403   4.431  0.1536  1.4233 -0.9471
  178DOPC  H18S21816   2.490   5.570   4.500  0.4849  0.1842 -0.5039
  178DOPC  H18T21817   2.589   5.427   4.547 -0.7617  0.9543  1.7530
  178DOPC   C3321818   2.855   6.330   3.053  0.0246 -0.0909 -0.3746
  178DOPC   H3X21819   2.880   6.431   3.016  3.5705 -0.1729  1.3096
  178DOPC   H3Y21820   2.948   6.268   3.064  0.8641  1.3511  1.0154
  178DOPC   C3421821   2.819   6.349   3.193  0.6597 -0.3103 -0.5119
  178DOPC   H4X21822   2.778   6.260   3.246 -1.8464 -0.6493 -2.8074
  178DOPC   H4Y21823   2.733   6.418   3.198  0.3854 -0.4633 -2.4477
  178DOPC   C3521824   2.932   6.397   3.287  0.4433  0.0701  0.9858
  178DOPC   H5X21825   2.983   6.483   3.239 -0.9170  0.2211 -0.2547
  178DOPC   H5Y21826   2.997   6.309   3.309  0.1955 -0.1992  0.6678
  178DOPC   C3621827   2.881   6.464   3.418 -0.4092  0.5041  0.0406
  178DOPC   H6X21828   2.959   6.528   3.463 -0.4083  2.0865 -2.0294
  178DOPC   H6Y21829   2.790   6.526   3.404  0.1363  1.2331 -0.3564
  178DOPC   C3721830   2.854   6.357   3.522  0.5810 -0.3089  0.5467
  178DOPC   H7X21831   2.782   6.282   3.480  1.1397 -0.5284 -0.0410
  178DOPC   H7Y21832   2.950   6.310   3.552  1.7796  2.2498  0.9520
  178DOPC   C3821833   2.785   6.416   3.650 -0.1079  0.3700  0.0057
  178DOPC   H8X21834   2.771   6.334   3.723 -1.5506  0.2540 -0.3728
  178DOPC   H8Y21835   2.679   6.448   3.637  0.5933  2.8432 -0.1717
  178DOPC   C3921836   2.869   6.519   3.714  0.1672 -0.4656 -0.0005
  178DOPC   H9X21837   2.883   6.603   3.643  0.8534 -1.0129 -0.5289
  178DOPC  C31021838   2.964   6.515   3.807  0.0975 -0.6170  0.3297
  178DOPC  H10X21839   3.034   6.600   3.812 -1.7582  0.9505  0.3675
  178DOPC  C31121840   2.995   6.398   3.902  0.0830 -0.1989  0.0489
  178DOPC  H11X21841   3.103   6.375   3.891  0.5755  1.5554  0.9710
  178DOPC  H11Y21842   2.942   6.306   3.867  1.0245 -0.3109 -1.1681
  178DOPC  C31221843   2.955   6.425   4.047 -0.6245  0.8547  0.3730
  178DOPC  H12X21844   2.963   6.330   4.104  0.6532 -0.6061 -2.0790
  178DOPC  H12Y21845   2.848   6.455   4.052 -0.4795  1.4896 -0.2564
  178DOPC  C31321846   3.056   6.527   4.110  0.3105 -0.0197 -0.2782
  178DOPC  H13X21847   3.153   6.473   4.111 -0.3694 -1.2817  0.6458
  178DOPC  H13Y21848   3.065   6.622   4.052  3.8371 -0.1179 -0.1538
  178DOPC  C31421849   3.029   6.556   4.260 -0.4421 -0.1030  0.4875
  178DOPC  H14X21850   3.109   6.632   4.276 -1.3780  0.4872  2.6698
  178DOPC  H14Y21851   2.932   6.609   4.273  0.3117  1.8254 -1.1309
  178DOPC  C31521852   3.051   6.440   4.357 -0.2763 -0.0494 -0.5001
  178DOPC  H15X21853   3.156   6.409   4.338 -0.4973 -0.7644 -0.5739
  178DOPC  H15Y21854   2.995   6.349   4.330  2.3437 -1.7175 -0.6240
  178DOPC  C31621855   3.028   6.487   4.504 -0.2995  0.8906 -0.0678
  178DOPC  H16X21856   3.093   6.572   4.532 -2.1998  2.6765 -0.7917
  178DOPC  H16Y21857   2.924   6.525   4.501 -0.4615  0.8397  2.4965
  178DOPC  C31721858   3.045   6.375   4.608  0.7410  0.4795  0.5840
  178DOPC  H17X21859   2.987   6.397   4.700 -0.0895 -0.2826  0.2633
  178DOPC  H17Y21860   3.001   6.281   4.568 -0.1097 -0.0095  2.5163
  178DOPC  C31821861   3.184   6.343   4.639 -0.2047 -0.2625  0.2493
  178DOPC  H18X21862   3.189   6.238   4.674  0.3332 -1.8355 -3.9818
  178DOPC  H18Y21863   3.245   6.358   4.548  1.2492  0.1111  1.2557
  178DOPC  H18Z21864   3.225   6.404   4.723  1.2465  0.3090 -0.8357
  179DOPC     N21865   7.039   5.450   2.653  0.1377  0.0490  0.4091
  179DOPC   C1221866   7.115   5.459   2.776  0.2707  0.0231  0.2992
  179DOPC  H12A21867   7.109   5.558   2.819 -0.3188 -0.7690  2.1358
  179DOPC  H12B21868   7.221   5.452   2.754  0.0114 -0.9204 -0.7261
  179DOPC   C1321869   7.076   5.567   2.560  0.3862  0.6533 -0.7081
  179DOPC  H13A21870   7.058   5.658   2.615  1.4477  0.9250 -0.7826
  179DOPC  H13B21871   7.181   5.569   2.536  0.3444 -0.3784 -1.0325
  179DOPC  H13C21872   7.010   5.572   2.475 -0.6062  0.2529  0.0236
  179DOPC   C1421873   6.896   5.451   2.670 -0.5467  0.0248 -0.0901
  179DOPC  H14A21874   6.868   5.526   2.743 -0.1848 -1.0636  1.1996
  179DOPC  H14B21875   6.847   5.462   2.574 -0.2791  0.6059 -0.1656
  179DOPC  H14C21876   6.857   5.354   2.697 -2.5951  0.5184 -1.0595
  179DOPC   C1521877   7.075   5.323   2.582 -0.6755  0.3866  0.0087
  179DOPC  H15A21878   7.064   5.230   2.635 -0.6128 -1.0104 -2.2840
  179DOPC  H15B21879   7.181   5.333   2.563 -0.0024  1.3402  3.5843
  179DOPC  H15C21880   7.024   5.316   2.487  0.0245  0.0834 -0.3495
  179DOPC   C1121881   7.094   5.347   2.886 -0.2253 -0.6204 -0.1276
  179DOPC  H11A21882   7.140   5.384   2.980 -1.8709 -0.1840  0.5517
  179DOPC  H11B21883   6.985   5.356   2.906  0.2730  2.5278  1.8973
  179DOPC     P21884   7.259   5.152   2.848  0.1292  0.5404  0.3848
  179DOPC   O1321885   7.352   5.268   2.841 -0.1281 -0.1237 -0.2242
  179DOPC   O1421886   7.270   5.048   2.737  0.0061  0.0861  0.1921
  179DOPC   O1221887   7.118   5.215   2.855 -0.0359  0.9227 -0.1084
  179DOPC   O1121888   7.282   5.080   2.979 -0.4601  0.5887 -0.4912
  179DOPC    C121889   7.175   5.032   3.062 -0.6961 -0.0570  0.1542
  179DOPC    HA21890   7.214   4.957   3.134 -1.3417 -0.2376  0.3195
  179DOPC    HB21891   7.094   4.983   3.004 -0.8085 -0.9942  1.0765
  179DOPC    C221892   7.124   5.138   3.164  0.2521  0.1011  0.1131
  179DOPC    HS21893   7.069   5.219   3.111 -1.4798  0.1571  1.8778
  179DOPC   O2121894   7.233   5.196   3.236 -0.9754 -0.4148 -0.3988
  179DOPC   C2121895   7.198   5.296   3.314  0.0881  0.2926 -0.5275
  179DOPC   O2221896   7.085   5.351   3.317 -0.3108  0.1635  0.2252
  179DOPC   C2221897   7.314   5.343   3.393 -0.1055  0.0728  0.5413
  179DOPC   H2R21898   7.410   5.299   3.356 -1.3708 -2.3750 -0.0512
  179DOPC   H2S21899   7.297   5.313   3.499 -0.1069 -0.1295  0.4843
  179DOPC    C321900   7.017   5.074   3.264  0.5355  1.0240 -0.6323
  179DOPC    HX21901   6.930   5.061   3.197  0.3693  1.4691 -0.5118
  179DOPC    HY21902   6.965   5.140   3.337  0.5422  0.7595 -0.3865
  179DOPC   O3121903   7.047   4.943   3.323  0.1682  0.3190 -0.3189
  179DOPC   C3121904   7.116   4.948   3.435 -0.2717 -0.2801 -1.3042
  179DOPC   O3221905   7.151   5.054   3.487  0.0055 -0.1301 -0.3059
  179DOPC   C3221906   7.171   4.810   3.476 -0.2348  0.6777  0.9614
  179DOPC   H2X21907   7.087   4.737   3.477  0.2402  0.0451 -0.8287
  179DOPC   H2Y21908   7.248   4.789   3.398  2.1290 -1.0897  3.5391
  179DOPC   C2321909   7.312   5.496   3.399  0.5178 -0.5607  0.4568
  179DOPC   H3R21910   7.208   5.525   3.423  0.5917 -0.3411  0.5118
  179DOPC   H3S21911   7.355   5.538   3.306  2.8471  0.2300  1.8107
  179DOPC   C2421912   7.396   5.547   3.517 -0.6661  0.3186  0.2584
  179DOPC   H4R21913   7.500   5.515   3.498 -0.9675  0.7808 -2.6708
  179DOPC   H4S21914   7.375   5.503   3.617 -1.0383 -0.7135 -0.2658
  179DOPC   C2521915   7.388   5.695   3.536  0.1099 -0.1000 -0.5671
  179DOPC   H5R21916   7.341   5.739   3.446 -1.7582 -1.1940 -0.1878
  179DOPC   H5S21917   7.491   5.729   3.562 -0.5309  0.4724  1.4157
  179DOPC   C2621918   7.309   5.744   3.661  0.3536  0.6586  0.3296
  179DOPC   H6R21919   7.310   5.855   3.657  0.5146  0.7422  2.0547
  179DOPC   H6S21920   7.366   5.715   3.751  1.4251  2.4790  0.2755
  179DOPC   C2721921   7.163   5.699   3.685 -0.3099 -0.0810 -0.1854
  179DOPC   H7R21922   7.151   5.593   3.717 -0.5028 -0.2060 -0.6680
  179DOPC   H7S21923   7.115   5.695   3.585  0.1739  0.8372 -0.4679
  179DOPC   C2821924   7.085   5.789   3.775 -0.0476  0.2237 -0.1851
  179DOPC   H8R21925   7.066   5.887   3.726 -0.3009  0.8516  1.1163
  179DOPC   H8S21926   7.142   5.814   3.867  0.7601 -3.2268  0.3790
  179DOPC   C2921927   6.955   5.741   3.832  0.5598  1.2047  0.5098
  179DOPC   H9R21928   6.877   5.808   3.793  1.3579  1.4681 -0.6985
  179DOPC  C21021929   6.927   5.633   3.910  0.6989  0.5390  0.4284
  179DOPC  H10R21930   6.824   5.604   3.936  1.7826 -2.4809  1.9396
  179DOPC  C21121931   7.027   5.542   3.980 -0.0200  0.1753  0.4465
  179DOPC  H11R21932   7.125   5.594   3.982 -0.8149  1.8741 -1.5216
  179DOPC  H11S21933   7.040   5.449   3.920  0.3501  0.4640  0.0741
  179DOPC  C21221934   6.993   5.512   4.130 -0.4282  0.2300 -0.8008
  179DOPC  H12R21935   6.894   5.461   4.128 -0.6973  0.6385  0.6368
  179DOPC  H12S21936   6.988   5.608   4.187 -0.1547 -0.2621  0.0725
  179DOPC  C21321937   7.095   5.418   4.199  0.0329 -0.1736 -0.2297
  179DOPC  H13R21938   7.170   5.495   4.227 -1.2607  0.2506  2.3274
  179DOPC  H13S21939   7.154   5.348   4.136  2.9036  2.0172 -0.1936
  179DOPC  C21421940   7.033   5.353   4.325  0.1826 -0.2889 -0.3009
  179DOPC  H14R21941   6.970   5.263   4.305 -0.4756 -0.1104  0.8977
  179DOPC  H14S21942   6.971   5.431   4.375 -3.5483 -1.9042 -1.9592
  179DOPC  C21521943   7.145   5.302   4.423  0.4708  0.4659 -0.4271
  179DOPC  H15R21944   7.223   5.381   4.429  1.6113 -0.7204  1.6784
  179DOPC  H15S21945   7.204   5.223   4.373  0.6316  0.9909 -1.0815
  179DOPC  C21621946   7.094   5.247   4.555 -0.3510 -0.0110 -0.5550
  179DOPC  H16R21947   7.022   5.163   4.546  0.7773 -1.0651  0.0186
  179DOPC  H16S21948   7.028   5.321   4.604 -0.8480 -0.3484 -0.7115
  179DOPC  C21721949   7.204   5.212   4.656 -0.1589  0.3037 -0.3156
  179DOPC  H17R21950   7.154   5.188   4.751 -2.8918  0.3464 -1.6526
  179DOPC  H17S21951   7.272   5.300   4.661  0.0646  0.2431 -1.7577
  179DOPC  C21821952   7.289   5.090   4.621 -0.3095 -0.5667 -0.4468
  179DOPC  H18R21953   7.343   5.104   4.525 -0.1185 -1.9733 -0.5679
  179DOPC  H18S21954   7.230   4.997   4.605  1.8444 -2.1010  0.1071
  179DOPC  H18T21955   7.359   5.053   4.699 -0.4523 -1.9351 -0.9437
  179DOPC   C3321956   7.243   4.811   3.613 -0.0698 -0.0485  0.1047
  179DOPC   H3X21957   7.306   4.902   3.617 -1.5628  1.4258 -4.1064
  179DOPC   H3Y21958   7.307   4.721   3.629 -0.4963 -0.0073  2.2395
  179DOPC   C3421959   7.145   4.820   3.729 -0.6410 -0.0883 -1.1515
  179DOPC   H4X21960   7.060   4.748   3.721 -0.2083 -1.1337  2.1068
  179DOPC   H4Y21961   7.118   4.926   3.748 -0.8123 -0.4367  0.7353
  179DOPC   C3521962   7.213   4.772   3.860  0.5341 -0.1660 -0.0881
  179DOPC   H5X21963   7.307   4.830   3.874  1.3456 -0.7527 -2.5938
  179DOPC   H5Y21964   7.245   4.667   3.848  0.5726 -0.0268 -1.4433
  179DOPC   C3621965   7.108   4.788   3.979 -0.3054 -0.0908 -0.1500
  179DOPC   H6X21966   7.005   4.746   3.968 -0.4373  0.6068 -1.9314
  179DOPC   H6Y21967   7.157   4.736   4.064  0.0643  2.4847  1.3255
  179DOPC   C3721968   7.101   4.934   4.021  0.5134  0.0194  0.1237
  179DOPC   H7X21969   7.202   4.977   4.004  1.8056 -2.3640  1.1960
  179DOPC   H7Y21970   7.026   4.986   3.958  0.0817 -0.5149  0.1971
  179DOPC   C3821971   7.055   4.955   4.167  0.4062 -0.2569 -0.0198
  179DOPC   H8X21972   7.039   5.065   4.173 -2.3561 -0.6111  0.2343
  179DOPC   H8Y21973   7.131   4.930   4.244 -1.0643 -1.8018  0.9969
  179DOPC   C3921974   6.932   4.872   4.203 -0.5143 -1.2350 -0.3972
  179DOPC   H9X21975   6.852   4.864   4.129  0.2263 -1.0618 -1.2384
  179DOPC  C31021976   6.902   4.799   4.309 -0.3942 -0.3009 -1.7759
  179DOPC  H10X21977   6.803   4.756   4.329 -0.6266  0.9978  0.1994
  179DOPC  C31121978   6.995   4.778   4.429 -0.1208  0.2762 -0.2004
  179DOPC  H11X21979   6.938   4.804   4.520  0.6731 -0.1469  0.4318
  179DOPC  H11Y21980   7.077   4.853   4.417  0.5848 -0.8339 -3.8325
  179DOPC  C31221981   7.056   4.635   4.434 -0.3677  0.1637 -0.1601
  179DOPC  H12X21982   7.142   4.620   4.366 -1.0868 -0.2875 -0.9798
  179DOPC  H12Y21983   6.980   4.557   4.414 -0.2530  0.0738 -0.2413
  179DOPC  C31321984   7.102   4.595   4.569 -0.6207 -0.8393 -0.0245
  179DOPC  H13X21985   7.169   4.506   4.570  0.9738  0.2649  2.3208
  179DOPC  H13Y21986   7.164   4.676   4.614  2.2483 -1.3661 -2.6735
  179DOPC  C31421987   6.988   4.563   4.669 -0.2531  0.9201 -0.0719
  179DOPC  H14X21988   6.950   4.663   4.696 -2.9803  0.4527 -1.8945
  179DOPC  H14Y21989   6.913   4.495   4.624 -0.1648 -0.3514  1.5661
  179DOPC  C31521990   7.042   4.494   4.801  0.3079 -0.0917 -0.2240
  179DOPC  H15X21991   6.960   4.480   4.875  1.2271 -0.8605  0.6711
  179DOPC  H15Y21992   7.116   4.564   4.845 -0.6327 -0.5913  2.3296
  179DOPC  C31621993   7.120   4.362   4.786  0.3866  0.1559  0.5972
  179DOPC  H16X21994   7.064   4.303   4.710 -0.0662 -0.0966  1.1248
  179DOPC  H16Y21995   7.216   4.396   4.740  0.6497 -1.4629 -0.1288
  179DOPC  C31721996   7.154   4.282   4.907 -0.2042 -0.2479 -0.1411
  179DOPC  H17X21997   7.240   4.325   4.964 -0.6239  1.8371 -0.9810
  179DOPC  H17Y21998   7.071   4.307   4.975 -1.2981 -0.1757 -1.4568
  179DOPC  C31821999   7.168   4.126   4.894 -0.7691 -0.3530  0.4498
  179DOPC  H18X22000   7.162   4.087   4.998  1.3234  0.7659  1.0555
  179DOPC  H18Y22001   7.085   4.095   4.828 -0.5278  1.3818 -0.7347
  179DOPC  H18Z22002   7.260   4.100   4.837 -0.9364  0.6320 -0.3106
  180DOPC     N22003   5.779   2.978   2.656  0.2584 -1.2721  0.3924
  180DOPC   C1222004   5.880   3.084   2.598  0.3235 -0.0465 -0.2286
  180DOPC  H12A22005   5.951   3.100   2.677  0.0836 -0.4889  0.0820
  180DOPC  H12B22006   5.836   3.181   2.578  2.3293  0.9098 -0.2308
  180DOPC   C1322007   5.683   3.034   2.755 -0.8034  0.3179  0.9771
  180DOPC  H13A22008   5.727   3.056   2.851 -1.1994  0.5347  1.1109
  180DOPC  H13B22009   5.642   3.129   2.725  0.2585  0.8445  1.1308
  180DOPC  H13C22010   5.600   2.967   2.770 -1.0731  0.5811  0.6721
  180DOPC   C1422011   5.846   2.856   2.701  0.2132  0.2217 -0.8073
  180DOPC  H14A22012   5.769   2.795   2.746  1.9721 -0.5070  1.4198
  180DOPC  H14B22013   5.919   2.821   2.630  1.1166  0.1440  0.1278
  180DOPC  H14C22014   5.913   2.873   2.784  0.2065 -3.1591  0.0352
  180DOPC   C1522015   5.687   2.943   2.536  0.1596 -0.2753 -0.4328
  180DOPC  H15A22016   5.628   3.026   2.500  0.9592  0.5092  0.0253
  180DOPC  H15B22017   5.624   2.861   2.567  0.4414 -0.8552 -1.3730
  180DOPC  H15C22018   5.749   2.930   2.449 -0.9542 -0.7555 -1.1706
  180DOPC   C1122019   5.961   3.041   2.477  0.3193  0.7168  0.7149
  180DOPC  H11A22020   5.893   3.029   2.390 -1.4487  0.5252  2.0533
  180DOPC  H11B22021   6.029   3.119   2.438  1.3532 -0.2335  0.5623
  180DOPC     P22022   6.166   2.927   2.574 -0.2721 -0.4787 -0.3632
  180DOPC   O1322023   6.253   3.015   2.499  0.0298 -0.8024  0.4573
  180DOPC   O1422024   6.219   2.796   2.605  0.1349 -0.0504  0.4603
  180DOPC   O1222025   6.030   2.923   2.492 -0.4077  0.2310  0.8094
  180DOPC   O1122026   6.128   2.997   2.711  0.4947 -0.1925 -0.1445
  180DOPC    C122027   6.171   2.970   2.843 -0.0072  0.3465  0.4277
  180DOPC    HA22028   6.217   2.869   2.853  2.1888  1.0715 -1.4700
  180DOPC    HB22029   6.081   2.979   2.907 -1.0569  0.4432 -1.0300
  180DOPC    C222030   6.278   3.071   2.888  0.5571  0.6475  0.9910
  180DOPC    HS22031   6.242   3.173   2.863  0.9654  0.1941 -1.7923
  180DOPC   O2122032   6.399   3.041   2.823 -0.1938  0.3489  0.8171
  180DOPC   C2122033   6.484   3.145   2.814 -0.7395  0.0974  0.0365
  180DOPC   O2222034   6.455   3.261   2.841 -0.7937 -0.0615  0.3400
  180DOPC   C2222035   6.620   3.092   2.763 -0.0241  0.2203  0.8113
  180DOPC   H2R22036   6.673   3.174   2.709 -1.3748  0.7196  0.2192
  180DOPC   H2S22037   6.590   3.021   2.684 -1.1597  3.5471 -1.9874
  180DOPC    C322038   6.299   3.057   3.048 -0.1408  0.2696 -0.3143
  180DOPC    HX22039   6.333   2.952   3.063  1.5142  0.7488 -0.4459
  180DOPC    HY22040   6.198   3.070   3.091 -0.8921 -0.3084 -1.8652
  180DOPC   O3122041   6.403   3.139   3.114  0.8030 -0.3069  0.4543
  180DOPC   C3122042   6.380   3.272   3.142  0.0761  0.4748  0.7178
  180DOPC   O3222043   6.282   3.329   3.105  0.1948  0.4386  0.2340
  180DOPC   C3222044   6.499   3.326   3.219  0.0369 -0.1909 -0.4603
  180DOPC   H2X22045   6.566   3.244   3.253 -1.8175 -0.8421  1.8832
  180DOPC   H2Y22046   6.561   3.381   3.145  0.0911 -1.8062 -1.6840
  180DOPC   C2322047   6.707   3.040   2.876 -0.4576  0.1834 -0.3963
  180DOPC   H3R22048   6.795   2.978   2.849 -0.0320  0.3685  0.5300
  180DOPC   H3S22049   6.646   2.969   2.936 -0.5728 -1.0321 -1.8832
  180DOPC   C2422050   6.756   3.164   2.961 -0.6003 -0.2753 -0.3264
  180DOPC   H4R22051   6.674   3.233   2.991  1.0588  1.5963  0.1192
  180DOPC   H4S22052   6.827   3.225   2.900  0.9640 -1.1782  0.5156
  180DOPC   C2522053   6.829   3.124   3.087  0.3684  0.6090 -0.5157
  180DOPC   H5R22054   6.930   3.082   3.065  0.5870  0.5118  0.6346
  180DOPC   H5S22055   6.767   3.045   3.133  2.5080  0.3440  2.1637
  180DOPC   C2622056   6.865   3.232   3.184 -0.8056  0.2194  0.4671
  180DOPC   H6R22057   6.777   3.299   3.191  0.7525  2.2858  1.1920
  180DOPC   H6S22058   6.956   3.285   3.151  0.4079 -1.9256  0.1429
  180DOPC   C2722059   6.904   3.176   3.328 -0.5699  0.1964  0.3084
  180DOPC   H7R22060   6.981   3.096   3.325 -0.7241 -0.2354  3.7625
  180DOPC   H7S22061   6.813   3.139   3.380  0.1361 -1.4885  0.4066
  180DOPC   C2822062   6.964   3.282   3.412  0.7459 -0.0558 -0.6155
  180DOPC   H8R22063   7.056   3.324   3.364  2.0581 -0.0473  1.7611
  180DOPC   H8S22064   7.014   3.236   3.500 -0.9689  0.9580  0.9514
  180DOPC   C2922065   6.866   3.396   3.455 -0.9707  0.1270  0.5431
  180DOPC   H9R22066   6.872   3.485   3.390  1.1403 -0.0449  0.4260
  180DOPC  C21022067   6.791   3.400   3.567  0.3410  1.0405 -0.5944
  180DOPC  H10R22068   6.716   3.480   3.562 -1.7564 -0.8497 -1.0651
  180DOPC  C21122069   6.763   3.290   3.669 -0.5703 -0.4761 -0.5453
  180DOPC  H11R22070   6.827   3.200   3.653 -0.1683 -0.2838 -0.0446
  180DOPC  H11S22071   6.660   3.254   3.647 -0.7471 -0.0083 -0.4855
  180DOPC  C21222072   6.781   3.344   3.808  0.4735  0.1634 -0.7699
  180DOPC  H12R22073   6.878   3.394   3.829 -0.1598  0.9910  0.3094
  180DOPC  H12S22074   6.767   3.267   3.887 -1.3212 -0.4989 -1.6785
  180DOPC  C21322075   6.666   3.443   3.833  0.1000 -0.8962  0.3472
  180DOPC  H13R22076   6.573   3.384   3.822 -0.8905  0.5513  0.7828
  180DOPC  H13S22077   6.660   3.528   3.763  0.2524  0.0711  1.4769
  180DOPC  C21422078   6.666   3.499   3.974 -0.0555 -0.7465  0.0492
  180DOPC  H14R22079   6.631   3.605   3.970 -1.3012 -1.1738 -3.3454
  180DOPC  H14S22080   6.773   3.515   4.001  0.2157 -0.9117 -0.8720
  180DOPC  C21522081   6.596   3.416   4.082  0.6744  0.1379 -0.9153
  180DOPC  H15R22082   6.653   3.322   4.101 -0.8214 -0.8025 -0.8952
  180DOPC  H15S22083   6.498   3.372   4.051  1.3413 -0.7986 -1.7899
  180DOPC  C21622084   6.566   3.507   4.208  0.8243  0.8968  0.0143
  180DOPC  H16R22085   6.517   3.448   4.288  0.4726 -0.0936 -0.9070
  180DOPC  H16S22086   6.500   3.589   4.173 -1.1931  0.9871  3.5808
  180DOPC  C21722087   6.693   3.552   4.277  0.1066  0.3616  0.2433
  180DOPC  H17R22088   6.747   3.632   4.222  0.4365  1.3999  2.0259
  180DOPC  H17S22089   6.756   3.462   4.290  1.5169  1.0351 -1.5266
  180DOPC  C21822090   6.665   3.604   4.416 -0.1495 -0.3504  0.2307
  180DOPC  H18R22091   6.627   3.528   4.488 -4.7115 -0.8646 -2.3018
  180DOPC  H18S22092   6.584   3.680   4.411 -0.3796 -0.4542  1.8968
  180DOPC  H18T22093   6.763   3.642   4.450 -0.0575  2.2178 -2.4809
  180DOPC   C3322094   6.462   3.416   3.341 -0.4229 -0.3740  0.6142
  180DOPC   H3X22095   6.423   3.515   3.307 -0.1111 -0.3974  0.1766
  180DOPC   H3Y22096   6.556   3.452   3.388  1.7704  0.7571 -4.0059
  180DOPC   C3422097   6.364   3.352   3.442 -0.1080 -0.4835  0.1107
  180DOPC   H4X22098   6.438   3.281   3.484  2.3384  1.3717 -0.8072
  180DOPC   H4Y22099   6.280   3.303   3.389 -0.1181  0.2392 -0.5603
  180DOPC   C3522100   6.305   3.459   3.532 -0.1145 -0.4479  0.2775
  180DOPC   H5X22101   6.237   3.518   3.467 -0.0763  0.3499  0.9542
  180DOPC   H5Y22102   6.386   3.518   3.578  0.7938 -1.2763 -0.2080
  180DOPC   C3622103   6.225   3.402   3.650 -0.0614  0.1080  0.0688
  180DOPC   H6X22104   6.129   3.353   3.625  0.5106 -1.1940  0.3309
  180DOPC   H6Y22105   6.290   3.329   3.704 -1.6683 -0.5485  1.1867
  180DOPC   C3722106   6.193   3.504   3.754 -0.1729 -0.5435  0.1840
  180DOPC   H7X22107   6.279   3.571   3.774  0.7747 -1.2666 -1.3329
  180DOPC   H7Y22108   6.125   3.570   3.695 -0.0498 -0.8065 -0.2533
  180DOPC   C3822109   6.131   3.463   3.891  0.6873  0.2426 -0.1241
  180DOPC   H8X22110   6.199   3.395   3.947 -0.1941  0.0341  0.7024
  180DOPC   H8Y22111   6.040   3.406   3.863  1.7407 -1.2803 -0.5788
  180DOPC   C3922112   6.098   3.584   3.971  0.7890 -0.9869  0.1778
  180DOPC   H9X22113   6.045   3.664   3.918  1.1767  0.5953  2.0867
  180DOPC  C31022114   6.126   3.601   4.098  0.6700 -0.0415 -0.3516
  180DOPC  H10X22115   6.091   3.693   4.147  1.3854 -0.7809  1.6545
  180DOPC  C31122116   6.210   3.499   4.180 -0.2823  0.2501 -0.0013
  180DOPC  H11X22117   6.252   3.552   4.268  0.4468  0.5594 -0.5193
  180DOPC  H11Y22118   6.303   3.477   4.123  0.2988  2.1732  0.1123
  180DOPC  C31222119   6.127   3.385   4.241  0.2609 -0.0922  0.2182
  180DOPC  H12X22120   6.087   3.321   4.159 -0.3180  0.8318 -0.2331
  180DOPC  H12Y22121   6.037   3.411   4.300 -0.9920 -0.0876 -1.6335
  180DOPC  C31322122   6.213   3.294   4.323  0.4883  0.0178  1.2667
  180DOPC  H13X22123   6.273   3.226   4.259 -0.1089 -0.0609  0.7860
  180DOPC  H13Y22124   6.278   3.367   4.377 -0.2506  2.2685 -0.7272
  180DOPC  C31422125   6.139   3.203   4.424  0.2791 -0.4653  0.1525
  180DOPC  H14X22126   6.080   3.274   4.486 -0.4449 -1.8806  1.1404
  180DOPC  H14Y22127   6.074   3.130   4.371  0.8143 -2.5411  2.1717
  180DOPC  C31522128   6.250   3.137   4.508 -0.5741  0.7141  0.0017
  180DOPC  H15X22129   6.337   3.204   4.521  1.8498 -2.1838 -0.0067
  180DOPC  H15Y22130   6.294   3.052   4.451  1.4180  0.5495  1.6747
  180DOPC  C31622131   6.192   3.081   4.639  0.1341  0.4915  0.5139
  180DOPC  H16X22132   6.139   3.163   4.693  0.3886 -0.8045  2.8944
  180DOPC  H16Y22133   6.119   3.000   4.619  0.9500 -0.0616 -0.2315
  180DOPC  C31722134   6.302   3.010   4.723  0.2170 -0.9159  0.4827
  180DOPC  H17X22135   6.364   3.099   4.746  0.0743 -0.9501  0.9945
  180DOPC  H17Y22136   6.251   2.976   4.815  0.3217  0.3550  1.0288
  180DOPC  C31822137   6.364   2.895   4.649  0.5223 -0.3874  0.0566
  180DOPC  H18X22138   6.399   2.915   4.545  1.2987 -2.0687 -0.0478
  180DOPC  H18Y22139   6.436   2.843   4.715 -2.8917 -3.5668  1.6782
  180DOPC  H18Z22140   6.288   2.814   4.649 -0.3391  0.4014  0.9550
  181DOPC     N22141   0.716   4.197   2.523 -0.3778  0.4690  0.3748
  181DOPC   C1222142   0.862   4.212   2.554  0.9832 -0.1600 -0.3444
  181DOPC  H12A22143   0.898   4.128   2.611  0.1942 -0.1147  0.2498
  181DOPC  H12B22144   0.872   4.304   2.609  0.3810 -0.6128  0.5536
  181DOPC   C1322145   0.648   4.150   2.646  0.1113 -0.1424  0.0520
  181DOPC  H13A22146   0.542   4.149   2.625  0.3784 -0.1732 -1.3637
  181DOPC  H13B22147   0.670   4.052   2.687  1.8539  0.2689  0.1892
  181DOPC  H13C22148   0.659   4.225   2.724  0.1848  1.8756 -1.8166
  181DOPC   C1422149   0.697   4.092   2.418 -0.4623  0.2290 -0.5236
  181DOPC  H14A22150   0.761   4.008   2.439  0.8631  0.9042 -1.6978
  181DOPC  H14B22151   0.594   4.058   2.419 -0.0214 -1.1511 -0.0424
  181DOPC  H14C22152   0.730   4.127   2.321 -2.5986 -1.1424 -1.8366
  181DOPC   C1522153   0.657   4.318   2.471  0.3923 -0.8506  0.2611
  181DOPC  H15A22154   0.656   4.400   2.543  0.7229  0.8376 -1.5724
  181DOPC  H15B22155   0.555   4.309   2.437  0.8016  1.6573 -1.9575
  181DOPC  H15C22156   0.705   4.366   2.387 -2.3167  1.7327  0.0031
  181DOPC   C1122157   0.963   4.227   2.440  0.5500  0.2971  0.1036
  181DOPC  H11A22158   1.064   4.214   2.486 -0.2295 -1.0489  1.5338
  181DOPC  H11B22159   0.940   4.143   2.371  1.3353 -0.2837  0.5296
  181DOPC     P22160   1.016   4.475   2.415  0.4487 -0.4452 -0.0970
  181DOPC   O1322161   0.937   4.581   2.351 -0.1356  0.5578  0.4120
  181DOPC   O1422162   1.160   4.467   2.389  0.5293  0.6435  0.2122
  181DOPC   O1222163   0.946   4.346   2.368  0.4749  0.9595  0.0978
  181DOPC   O1122164   0.997   4.481   2.570 -0.3474 -0.1760  1.1492
  181DOPC    C122165   0.934   4.587   2.632  0.4554 -0.8149 -0.6180
  181DOPC    HA22166   0.827   4.592   2.601  0.5535 -1.1248 -1.0130
  181DOPC    HB22167   0.987   4.684   2.618  0.9595 -0.9072  0.5201
  181DOPC    C222168   0.954   4.578   2.785  0.4949 -0.3843  0.1152
  181DOPC    HS22169   1.062   4.562   2.808  0.4414 -2.0085 -0.6139
  181DOPC   O2122170   0.871   4.479   2.842  0.9439  0.1737  0.1462
  181DOPC   C2122171   0.918   4.412   2.949 -0.6783 -0.7314  0.8406
  181DOPC   O2222172   1.034   4.417   2.984 -0.3021 -0.6366  0.8130
  181DOPC   C2222173   0.814   4.315   2.993 -0.1676 -0.1710 -0.3723
  181DOPC   H2R22174   0.877   4.224   3.005  0.7140  0.6857  2.1391
  181DOPC   H2S22175   0.723   4.307   2.930  0.7048  0.8039 -1.7976
  181DOPC    C322176   0.919   4.711   2.860  0.1141 -0.4172  0.3108
  181DOPC    HX22177   0.811   4.717   2.834  0.7421  0.3213 -2.5333
  181DOPC    HY22178   0.979   4.794   2.817  0.5843 -0.6147  0.5812
  181DOPC   O3122179   0.945   4.707   3.002  0.1010  0.3593  0.3445
  181DOPC   C3122180   1.069   4.701   3.043  0.4211  0.1331  0.1531
  181DOPC   O3222181   1.168   4.705   2.969  0.2798  0.5085  0.0703
  181DOPC   C3222182   1.066   4.682   3.199  0.0182  0.5755 -0.6725
  181DOPC   H2X22183   0.958   4.665   3.219  0.2117 -0.3603 -0.3660
  181DOPC   H2Y22184   1.133   4.596   3.220  1.1645  0.8136 -3.0017
  181DOPC   C2322185   0.757   4.348   3.138  0.1822  0.2602 -0.5871
  181DOPC   H3R22186   0.678   4.425   3.125 -0.9212 -0.7340 -0.0015
  181DOPC   H3S22187   0.844   4.383   3.199  0.1136  0.2707 -0.4949
  181DOPC   C2422188   0.695   4.222   3.191  0.1226 -0.0730  0.5575
  181DOPC   H4R22189   0.765   4.138   3.208 -3.2216 -3.3057 -0.2620
  181DOPC   H4S22190   0.627   4.181   3.113 -0.1636  2.2220 -0.4892
  181DOPC   C2522191   0.624   4.241   3.326  0.9165  0.0156  0.2389
  181DOPC   H5R22192   0.552   4.159   3.346  0.7370  0.0663 -0.1800
  181DOPC   H5S22193   0.558   4.330   3.310  0.2032 -0.8562 -2.1981
  181DOPC   C2622194   0.717   4.261   3.443  0.2723  0.1399  0.2052
  181DOPC   H6R22195   0.651   4.288   3.528 -3.5916  0.6827 -2.6824
  181DOPC   H6S22196   0.784   4.348   3.426  1.0235 -0.7143 -1.5018
  181DOPC   C2722197   0.778   4.124   3.482 -0.1001 -0.6837 -1.0058
  181DOPC   H7R22198   0.828   4.076   3.395 -1.3505 -0.9568 -1.6025
  181DOPC   H7S22199   0.702   4.056   3.527  1.7725 -2.5047 -0.4382
  181DOPC   C2822200   0.884   4.148   3.601  0.0889 -0.3807 -0.4419
  181DOPC   H8R22201   0.900   4.046   3.641  1.9475 -0.6723 -1.7963
  181DOPC   H8S22202   0.824   4.204   3.677 -0.5314  0.5028 -1.5343
  181DOPC   C2922203   1.020   4.207   3.571  0.1374 -0.3050  0.0519
  181DOPC   H9R22204   1.030   4.217   3.462  1.3204 -0.7814  0.1046
  181DOPC  C21022205   1.120   4.232   3.652 -0.1129  0.1657 -1.4737
  181DOPC  H10R22206   1.218   4.269   3.620  1.4731 -0.9059  1.6926
  181DOPC  C21122207   1.124   4.214   3.799  0.3468 -0.0231 -0.6623
  181DOPC  H11R22208   1.029   4.178   3.844 -1.4212  3.4645 -1.2852
  181DOPC  H11S22209   1.152   4.311   3.845  1.0025 -0.5255  0.0179
  181DOPC  C21222210   1.223   4.110   3.843  0.0658  0.2900  0.6133
  181DOPC  H12R22211   1.314   4.104   3.780  0.6234  1.4104  1.2885
  181DOPC  H12S22212   1.173   4.011   3.826  0.4671  0.6165 -3.7110
  181DOPC  C21322213   1.264   4.136   3.985  0.7911  0.4742 -0.8237
  181DOPC  H13R22214   1.173   4.142   4.047  3.0705  1.3599  2.7751
  181DOPC  H13S22215   1.312   4.237   3.991  0.5204  0.5068  2.2968
  181DOPC  C21422216   1.363   4.028   4.044  0.1062 -0.7992  0.9818
  181DOPC  H14R22217   1.452   4.024   3.977 -0.4109  0.6350  0.1658
  181DOPC  H14S22218   1.312   3.929   4.036 -0.2977 -0.4486 -2.2751
  181DOPC  C21522219   1.401   4.059   4.196  0.4134 -0.1992  0.5904
  181DOPC  H15R22220   1.311   4.106   4.240 -0.5799 -1.7874  0.3292
  181DOPC  H15S22221   1.487   4.130   4.188  0.3280 -0.0769  0.7495
  181DOPC  C21622222   1.446   3.931   4.271  0.0896 -0.4535  0.5248
  181DOPC  H16R22223   1.358   3.865   4.278  0.7533 -1.1342  3.8876
  181DOPC  H16S22224   1.473   3.945   4.378 -1.8513  0.3900  0.9436
  181DOPC  C21722225   1.573   3.860   4.211  0.1661  0.0018  0.7544
  181DOPC  H17R22226   1.645   3.943   4.196 -1.2560  1.5999  2.3354
  181DOPC  H17S22227   1.545   3.826   4.109 -0.8309  1.2632  0.5739
  181DOPC  C21822228   1.633   3.747   4.297  0.5547  0.3481  0.1764
  181DOPC  H18R22229   1.553   3.674   4.322  0.4947  0.9785  2.0116
  181DOPC  H18S22230   1.652   3.791   4.397  0.3627  0.5086  0.1443
  181DOPC  H18T22231   1.724   3.694   4.263  0.1158 -1.4472  1.6234
  181DOPC   C3322232   1.109   4.803   3.284  0.4728 -0.1795  0.1828
  181DOPC   H3X22233   1.056   4.895   3.253 -2.2565 -2.1178 -1.2949
  181DOPC   H3Y22234   1.217   4.823   3.265 -0.0838  1.6267 -1.3521
  181DOPC   C3422235   1.093   4.783   3.435  0.4291  0.2115  0.6312
  181DOPC   H4X22236   1.128   4.679   3.456 -2.1174 -0.5854  1.2888
  181DOPC   H4Y22237   0.989   4.781   3.473 -0.3366  1.2893 -1.2638
  181DOPC   C3522238   1.172   4.891   3.514 -0.6966  0.0906  0.0930
  181DOPC   H5X22239   1.125   4.989   3.493  0.7533  0.5686 -1.0557
  181DOPC   H5Y22240   1.278   4.887   3.480 -0.1946 -0.7352  1.6370
  181DOPC   C3622241   1.173   4.851   3.661  0.9931  0.2599  0.3101
  181DOPC   H6X22242   1.161   4.741   3.671 -1.4731  0.3308 -1.0643
  181DOPC   H6Y22243   1.269   4.872   3.713  1.4385 -2.1875  0.5919
  181DOPC   C3722244   1.072   4.929   3.744 -0.5067  0.1020 -0.6256
  181DOPC   H7X22245   0.976   4.935   3.687 -0.7661 -0.8367 -0.3026
  181DOPC   H7Y22246   1.050   4.864   3.831 -1.7423 -2.4808 -2.7388
  181DOPC   C3822247   1.121   5.070   3.776 -0.2287 -0.5687  0.2248
  181DOPC   H8X22248   1.134   5.134   3.686 -1.0290 -0.6485  0.0468
  181DOPC   H8Y22249   1.220   5.073   3.825 -0.0240  1.7099 -0.1881
  181DOPC   C3922250   1.028   5.146   3.869 -0.4164 -0.3847 -0.2576
  181DOPC   H9X22251   0.937   5.190   3.825 -0.7197  1.5354  2.0757
  181DOPC  C31022252   1.060   5.178   3.991  0.2181  0.0447 -0.4643
  181DOPC  H10X22253   0.976   5.219   4.048  0.2356 -0.8977  0.2584
  181DOPC  C31122254   1.182   5.141   4.075  0.0778  0.4067  0.7375
  181DOPC  H11X22255   1.233   5.227   4.125  0.1763  2.3714 -2.4503
  181DOPC  H11Y22256   1.267   5.103   4.014  0.8771  0.9877  1.4644
  181DOPC  C31222257   1.134   5.046   4.180 -0.0845 -0.6937  0.4989
  181DOPC  H12X22258   1.071   4.963   4.140 -1.0338  0.5374 -0.6204
  181DOPC  H12Y22259   1.075   5.110   4.248  0.1081 -1.5603  1.5041
  181DOPC  C31322260   1.244   4.990   4.265 -0.0478  0.4969  0.3647
  181DOPC  H13X22261   1.347   4.998   4.224  0.1017 -4.2650 -0.8164
  181DOPC  H13Y22262   1.240   5.038   4.365 -3.5631 -1.3763  1.3023
  181DOPC  C31422263   1.224   4.835   4.285  0.0478 -0.1341 -0.1793
  181DOPC  H14X22264   1.154   4.818   4.370  2.5906 -1.6769  1.7573
  181DOPC  H14Y22265   1.184   4.781   4.196 -1.2869 -0.2129  0.4386
  181DOPC  C31522266   1.355   4.773   4.332  0.0240  0.2286  0.4217
  181DOPC  H15X22267   1.375   4.809   4.435  1.1845  0.6373  0.0685
  181DOPC  H15Y22268   1.441   4.817   4.276  0.2355 -1.4236 -0.6192
  181DOPC  C31622269   1.349   4.627   4.325 -0.7458 -0.8476 -0.0277
  181DOPC  H16X22270   1.440   4.579   4.367  0.0271  0.8824  0.3245
  181DOPC  H16Y22271   1.263   4.581   4.378  0.7207 -2.1756  1.2872
  181DOPC  C31722272   1.351   4.575   4.179 -0.3173  0.1616  0.7389
  181DOPC  H17X22273   1.266   4.606   4.114 -1.1199 -3.0497  0.0776
  181DOPC  H17Y22274   1.433   4.625   4.122 -2.6172  1.9328 -1.2286
  181DOPC  C31822275   1.382   4.422   4.165  0.4625 -0.0277  0.3382
  181DOPC  H18X22276   1.483   4.404   4.208  1.1332  1.5024 -0.4863
  181DOPC  H18Y22277   1.302   4.354   4.201 -0.4650  1.9007  2.1403
  181DOPC  H18Z22278   1.389   4.410   4.055 -1.4330 -0.2125  0.2094
  182DOPC     N22279   2.778   1.525   2.263 -0.0692 -0.0718  1.2850
  182DOPC   C1222280   2.673   1.419   2.289  0.0224  0.4869  0.6751
  182DOPC  H12A22281   2.577   1.465   2.267  0.8456  2.5076  1.0639
  182DOPC  H12B22282   2.672   1.392   2.394  3.3340  1.1426  0.9681
  182DOPC   C1322283   2.774   1.635   2.366  0.2582  0.0040 -0.3283
  182DOPC  H13A22284   2.681   1.690   2.359 -1.4276 -2.5092  0.9428
  182DOPC  H13B22285   2.789   1.597   2.466  4.7695 -1.7703 -1.3948
  182DOPC  H13C22286   2.855   1.704   2.349 -0.1623  0.3666 -0.8608
  182DOPC   C1422287   2.755   1.591   2.133  0.3672 -0.3484  1.2390
  182DOPC  H14A22288   2.841   1.652   2.107  0.1353  0.0205  1.3338
  182DOPC  H14B22289   2.755   1.519   2.053  0.6377 -1.1636  1.9603
  182DOPC  H14C22290   2.664   1.648   2.124  0.8651  0.2078 -0.9882
  182DOPC   C1522291   2.919   1.459   2.257  0.1447 -0.0052  0.2639
  182DOPC  H15A22292   2.928   1.382   2.181 -1.8659  0.2810 -0.3386
  182DOPC  H15B22293   2.938   1.401   2.346  0.1660 -1.5239 -0.6931
  182DOPC  H15C22294   2.993   1.533   2.232 -1.0821  1.2294  0.1722
  182DOPC   C1122295   2.679   1.279   2.209 -0.6507 -0.2397 -0.4432
  182DOPC  H11A22296   2.578   1.233   2.216 -0.0330 -1.4377  2.8998
  182DOPC  H11B22297   2.707   1.290   2.102  0.1450  1.2136 -0.1153
  182DOPC     P22298   2.756   1.131   2.415 -0.1658  0.0923  0.0544
  182DOPC   O1322299   2.880   1.152   2.490 -0.9552 -0.1908  0.1842
  182DOPC   O1422300   2.719   0.990   2.405 -0.3460  0.1553 -0.5893
  182DOPC   O1222301   2.778   1.193   2.273 -0.2056  0.2200 -0.0523
  182DOPC   O1122302   2.641   1.211   2.486  0.3614  0.3070  0.0154
  182DOPC    C122303   2.509   1.150   2.508 -0.7240 -0.6051  0.2529
  182DOPC    HA22304   2.497   1.047   2.468 -2.1112 -0.8400  1.1782
  182DOPC    HB22305   2.435   1.215   2.456 -0.9686 -0.9131  0.2100
  182DOPC    C222306   2.475   1.137   2.658 -0.5565 -0.0617  0.4818
  182DOPC    HS22307   2.401   1.054   2.656 -0.8991  0.1304 -3.3386
  182DOPC   O2122308   2.433   1.265   2.710  0.8781 -0.7820 -0.1259
  182DOPC   C2122309   2.344   1.269   2.811  0.3122  0.4649 -0.5667
  182DOPC   O2222310   2.297   1.176   2.866  0.0313 -0.0447 -0.2670
  182DOPC   C2222311   2.305   1.413   2.845  0.2648  0.6582  0.5113
  182DOPC   H2R22312   2.209   1.424   2.790  1.3418 -1.5459 -2.0604
  182DOPC   H2S22313   2.385   1.481   2.807 -0.9368  0.4744 -2.5676
  182DOPC    C322314   2.595   1.082   2.735 -0.0426 -0.1270  0.2382
  182DOPC    HX22315   2.674   1.159   2.726 -0.3714  0.1924  0.1080
  182DOPC    HY22316   2.626   0.994   2.674 -0.3599 -1.5808  2.0624
  182DOPC   O3122317   2.561   1.028   2.869 -0.3441  0.1505  0.3089
  182DOPC   C3122318   2.604   1.101   2.967  0.2038  0.0291 -0.2866
  182DOPC   O3222319   2.681   1.195   2.967 -0.1689 -0.0657  0.1582
  182DOPC   C3222320   2.547   1.035   3.099  0.1029  0.4701  0.3402
  182DOPC   H2X22321   2.447   0.991   3.082  0.6930 -0.2597 -1.6317
  182DOPC   H2Y22322   2.614   0.948   3.110 -0.8440 -0.5999 -1.8109
  182DOPC   C2322323   2.275   1.431   2.988  0.1219  0.5807  0.3395
  182DOPC   H3R22324   2.229   1.340   3.030  1.4813  0.4470  1.6250
  182DOPC   H3S22325   2.197   1.509   2.998 -1.1326 -0.4216 -1.2302
  182DOPC   C2422326   2.396   1.482   3.078  0.0352  0.1470 -0.0011
  182DOPC   H4R22327   2.438   1.577   3.039 -0.0006 -0.1890 -0.8782
  182DOPC   H4S22328   2.481   1.411   3.074 -2.2801 -2.7966 -0.9711
  182DOPC   C2522329   2.351   1.516   3.218 -0.2838 -0.1884 -0.4853
  182DOPC   H5R22330   2.299   1.427   3.261  1.8848 -1.1543  0.3258
  182DOPC   H5S22331   2.279   1.599   3.208  1.1676  1.3683  1.2747
  182DOPC   C2622332   2.469   1.549   3.312 -0.0927  0.9206 -0.0823
  182DOPC   H6R22333   2.533   1.459   3.316 -1.0112  0.0716 -2.4204
  182DOPC   H6S22334   2.424   1.569   3.412  1.2235  0.9102  0.5319
  182DOPC   C2722335   2.562   1.676   3.274 -0.0256  1.1361 -0.3379
  182DOPC   H7R22336   2.504   1.764   3.237  0.6048  2.2779  1.3049
  182DOPC   H7S22337   2.638   1.652   3.195  0.4622 -0.0744  0.4634
  182DOPC   C2822338   2.631   1.733   3.398 -0.8563 -0.4534  0.0425
  182DOPC   H8R22339   2.701   1.651   3.423  1.6641  1.6200  0.1352
  182DOPC   H8S22340   2.551   1.749   3.474 -0.9451 -0.6504 -0.0090
  182DOPC   C2922341   2.705   1.862   3.368 -0.9561  0.4081 -0.3683
  182DOPC   H9R22342   2.627   1.936   3.349 -1.5692  0.6561  2.7032
  182DOPC  C21022343   2.839   1.883   3.367 -0.6342  0.4365 -0.1400
  182DOPC  H10R22344   2.879   1.983   3.345 -0.8515  0.5571  0.0088
  182DOPC  C21122345   2.945   1.777   3.411 -0.1920 -0.4855  0.6638
  182DOPC  H11R22346   3.050   1.783   3.375 -0.1053 -1.8688  0.6224
  182DOPC  H11S22347   2.904   1.677   3.384  0.8721 -1.0334  1.0545
  182DOPC  C21222348   2.944   1.784   3.564  0.1217  0.2630 -0.5041
  182DOPC  H12R22349   2.839   1.778   3.598 -0.0786  0.1346 -1.1444
  182DOPC  H12S22350   2.978   1.883   3.602  1.2850 -0.4110  0.2770
  182DOPC  C21322351   3.024   1.673   3.626  0.2216  0.5180  0.2000
  182DOPC  H13R22352   3.132   1.699   3.630 -0.0103  1.5929 -0.1302
  182DOPC  H13S22353   2.993   1.571   3.597  1.1247  0.6717 -1.3911
  182DOPC  C21422354   2.995   1.661   3.785 -0.6398  0.1798 -0.1647
  182DOPC  H14R22355   2.887   1.637   3.795 -0.6103 -0.5330 -1.3774
  182DOPC  H14S22356   3.027   1.760   3.826 -0.8765  0.4970 -0.7343
  182DOPC  C21522357   3.085   1.545   3.838 -0.4838  0.1914  0.6646
  182DOPC  H15R22358   3.176   1.540   3.776 -1.4498 -2.3195 -0.6873
  182DOPC  H15S22359   3.031   1.449   3.831  1.8783 -1.1347 -0.3180
  182DOPC  C21622360   3.144   1.574   3.976  0.3738  0.0550 -0.4499
  182DOPC  H16R22361   3.054   1.585   4.041 -0.2130 -2.7587 -0.6736
  182DOPC  H16S22362   3.195   1.673   3.975 -2.8397  1.8942 -0.1772
  182DOPC  C21722363   3.230   1.468   4.044  0.0073 -1.1821 -0.1293
  182DOPC  H17R22364   3.246   1.509   4.146  0.4311  1.3403 -1.1473
  182DOPC  H17S22365   3.329   1.466   3.993  0.4881 -1.0572  0.7805
  182DOPC  C21822366   3.170   1.326   4.041  0.0099 -0.5222 -0.3415
  182DOPC  H18R22367   3.160   1.301   3.933  1.1065  2.7721 -1.3168
  182DOPC  H18S22368   3.071   1.319   4.092 -0.4207 -0.0011 -1.0932
  182DOPC  H18T22369   3.242   1.255   4.087  0.0358  0.0644  0.5319
  182DOPC   C3322370   2.559   1.130   3.213 -0.3833 -0.4496 -0.2708
  182DOPC   H3X22371   2.493   1.219   3.201  1.4933  0.8353 -1.7907
  182DOPC   H3Y22372   2.665   1.163   3.225 -0.5335  0.9976 -2.3913
  182DOPC   C3422373   2.522   1.054   3.346  0.2777  0.4467  0.4361
  182DOPC   H4X22374   2.556   0.948   3.352  1.5648  0.5806 -2.5478
  182DOPC   H4Y22375   2.411   1.055   3.352  0.1408 -0.7675 -1.1552
  182DOPC   C3522376   2.557   1.130   3.477 -0.0009 -0.5505 -0.1076
  182DOPC   H5X22377   2.519   1.233   3.461 -2.2648 -1.0965  1.3049
  182DOPC   H5Y22378   2.666   1.134   3.500 -0.5382  1.9085  2.6712
  182DOPC   C3622379   2.474   1.081   3.600  0.5351 -0.4047 -0.0662
  182DOPC   H6X22380   2.469   0.973   3.624 -0.5592 -0.0101  1.6416
  182DOPC   H6Y22381   2.515   1.135   3.689 -0.9185 -0.4864  0.6789
  182DOPC   C3722382   2.328   1.119   3.600  0.4432 -0.3784  0.3083
  182DOPC   H7X22383   2.303   1.214   3.548  1.3399 -0.5337 -0.4222
  182DOPC   H7Y22384   2.274   1.041   3.543  0.2978 -0.1610  0.1486
  182DOPC   C3822385   2.248   1.099   3.733  0.0592 -0.0910  0.3382
  182DOPC   H8X22386   2.269   1.001   3.783  2.1599  0.2151  0.1172
  182DOPC   H8Y22387   2.140   1.094   3.704  0.5480 -0.1998 -1.5872
  182DOPC   C3922388   2.268   1.216   3.828  0.2311  0.3657 -0.5402
  182DOPC   H9X22389   2.319   1.300   3.779  1.0132 -1.4725 -3.0661
  182DOPC  C31022390   2.207   1.223   3.946 -0.1235  0.3425 -0.0713
  182DOPC  H10X22391   2.216   1.316   4.004  1.2244 -0.8488  1.7565
  182DOPC  C31122392   2.140   1.109   4.020 -0.1571 -0.6722 -0.3206
  182DOPC  H11X22393   2.112   1.027   3.950 -0.6233  0.1564 -1.1212
  182DOPC  H11Y22394   2.048   1.146   4.071  1.9450  0.9102  2.5880
  182DOPC  C31222395   2.228   1.046   4.138  0.1774 -0.3273  0.0383
  182DOPC  H12X22396   2.327   1.006   4.109  0.2123 -1.4911  1.6373
  182DOPC  H12Y22397   2.168   0.962   4.180  0.8580 -0.7700  0.1373
  182DOPC  C31322398   2.232   1.149   4.248  0.4505  0.2428  0.8759
  182DOPC  H13X22399   2.288   1.243   4.230 -1.4867  1.3453  0.3085
  182DOPC  H13Y22400   2.125   1.178   4.258  0.5235  0.2865  1.6097
  182DOPC  C31422401   2.276   1.099   4.387  0.1915  0.1427  0.2120
  182DOPC  H14X22402   2.220   1.003   4.389  2.4484 -1.3514 -2.3506
  182DOPC  H14Y22403   2.385   1.082   4.400  0.7433  2.4098 -1.0291
  182DOPC  C31522404   2.251   1.198   4.494  0.5435  0.1684  0.1077
  182DOPC  H15X22405   2.141   1.214   4.498 -0.0569 -3.0738 -0.3028
  182DOPC  H15Y22406   2.303   1.291   4.463  0.9377 -0.7668 -2.2425
  182DOPC  C31622407   2.302   1.152   4.629 -0.2269  0.4679 -0.0627
  182DOPC  H16X22408   2.261   1.052   4.655 -0.0876 -0.2226 -2.2809
  182DOPC  H16Y22409   2.411   1.140   4.609 -0.5737  1.3950 -3.1722
  182DOPC  C31722410   2.302   1.255   4.746 -0.0785 -0.1189 -0.6262
  182DOPC  H17X22411   2.358   1.344   4.710 -1.5419  1.0144 -0.1943
  182DOPC  H17Y22412   2.197   1.289   4.758  0.5164  1.9135 -0.7976
  182DOPC  C31822413   2.348   1.193   4.879 -0.0252 -0.4627  0.8016
  182DOPC  H18X22414   2.317   1.262   4.961 -0.0664 -1.8992  2.0413
  182DOPC  H18Y22415   2.303   1.096   4.909 -1.2353 -0.3818 -0.5976
  182DOPC  H18Z22416   2.458   1.183   4.873 -0.0683 -0.1975 -1.9604
  183DOPC     N22417   0.897   5.772   2.270 -0.3609 -0.1730  0.2817
  183DOPC   C1222418   0.950   5.697   2.393 -0.7604 -0.2226  0.6451
  183DOPC  H12A22419   0.957   5.768   2.475  0.6231  1.9784 -1.2562
  183DOPC  H12B22420   1.045   5.650   2.372 -0.4432  0.9861 -0.7314
  183DOPC   C1322421   0.758   5.820   2.283 -0.5315 -0.0425  0.3923
  183DOPC  H13A22422   0.700   5.741   2.329  0.2406 -1.2047 -0.5645
  183DOPC  H13B22423   0.750   5.903   2.352 -1.0334 -0.0695  0.3689
  183DOPC  H13C22424   0.723   5.850   2.185  2.7322 -1.1547 -1.2584
  183DOPC   C1422425   0.896   5.671   2.153  0.3517 -1.0343  0.0394
  183DOPC  H14A22426   0.824   5.591   2.164  1.0392 -1.4580  1.8296
  183DOPC  H14B22427   0.882   5.720   2.058  0.5443  2.2434  1.5863
  183DOPC  H14C22428   0.990   5.618   2.149  1.4039  0.7076  0.5085
  183DOPC   C1522429   0.988   5.885   2.232  0.1174  0.1646  0.2660
  183DOPC  H15A22430   0.952   5.951   2.154  1.7716  2.4601  1.3143
  183DOPC  H15B22431   1.083   5.849   2.195  1.1590  0.9899  1.9888
  183DOPC  H15C22432   1.008   5.944   2.320  0.2423  0.5015  0.0172
  183DOPC   C1122433   0.860   5.576   2.449  0.6968 -0.2590  0.3315
  183DOPC  H11A22434   0.846   5.499   2.370  0.9824  0.4729 -0.4553
  183DOPC  H11B22435   0.910   5.527   2.535 -2.0277  0.5169  2.5229
  183DOPC     P22436   0.720   5.688   2.634  0.4074 -0.0982  0.1315
  183DOPC   O1322437   0.582   5.739   2.652  0.5781 -0.2470 -0.4854
  183DOPC   O1422438   0.838   5.775   2.656 -0.1041  0.4814 -0.0521
  183DOPC   O1222439   0.730   5.623   2.493 -0.1454  0.6810 -0.2493
  183DOPC   O1122440   0.734   5.557   2.731  0.1223 -0.9341 -0.5564
  183DOPC    C122441   0.664   5.443   2.697  0.1618  0.8240  0.2295
  183DOPC    HA22442   0.732   5.356   2.691  0.8502  1.1820  1.9862
  183DOPC    HB22443   0.614   5.449   2.598 -0.5784 -2.8929  0.2323
  183DOPC    C222444   0.567   5.392   2.811 -0.1229 -0.5649 -0.1788
  183DOPC    HS22445   0.483   5.464   2.806 -0.5909 -1.0114  0.8746
  183DOPC   O2122446   0.630   5.384   2.936  0.4568  0.3107  0.3535
  183DOPC   C2122447   0.542   5.384   3.038 -0.3968 -0.6782  0.5872
  183DOPC   O2222448   0.424   5.414   3.032 -0.3266  0.0988 -0.4437
  183DOPC   C2222449   0.620   5.331   3.160  0.5061 -0.1519 -0.4005
  183DOPC   H2R22450   0.730   5.336   3.150  0.7649 -1.3967  1.2411
  183DOPC   H2S22451   0.603   5.221   3.164  1.6043 -0.3250 -0.3675
  183DOPC    C322452   0.505   5.253   2.776  0.0582  0.2496  0.1150
  183DOPC    HX22453   0.583   5.180   2.806 -0.8971 -0.9925 -0.2774
  183DOPC    HY22454   0.491   5.256   2.665  0.7276  2.3559  0.0452
  183DOPC   O3122455   0.377   5.228   2.838  0.3211 -0.1030  0.3818
  183DOPC   C3122456   0.374   5.127   2.929  0.6534 -0.3500  0.0035
  183DOPC   O3222457   0.470   5.062   2.968 -0.3341 -0.0826 -0.2080
  183DOPC   C3222458   0.228   5.126   2.962  0.4821  0.5839 -0.0670
  183DOPC   H2X22459   0.193   5.232   2.956 -1.4110 -0.0840 -2.7162
  183DOPC   H2Y22460   0.186   5.080   2.870  1.0982 -0.3222  0.0965
  183DOPC   C2322461   0.579   5.383   3.299  0.5776  0.3048 -0.5848
  183DOPC   H3R22462   0.650   5.326   3.363  0.3319 -0.5777 -1.0888
  183DOPC   H3S22463   0.474   5.362   3.328  0.9909  0.3355  1.0840
  183DOPC   C2422464   0.608   5.531   3.317  0.4085  0.4223  0.0064
  183DOPC   H4R22465   0.538   5.595   3.257  1.7132 -0.0937 -2.1812
  183DOPC   H4S22466   0.707   5.552   3.271  1.3159 -0.1225  1.6513
  183DOPC   C2522467   0.623   5.572   3.463 -0.6855  0.3989 -0.0480
  183DOPC   H5R22468   0.693   5.658   3.461  1.3861 -1.1678  1.1476
  183DOPC   H5S22469   0.672   5.488   3.516 -2.1766 -0.8790 -0.6114
  183DOPC   C2622470   0.490   5.618   3.526  0.4403  0.4738  0.3354
  183DOPC   H6R22471   0.441   5.526   3.563 -1.1503  1.1167 -0.0867
  183DOPC   H6S22472   0.420   5.666   3.454 -2.7182 -0.7986  2.3391
  183DOPC   C2722473   0.504   5.723   3.642 -0.0050 -0.3297 -0.5742
  183DOPC   H7R22474   0.544   5.822   3.612 -0.3612  0.5169  1.5615
  183DOPC   H7S22475   0.583   5.681   3.707  0.3694 -0.3204 -1.0210
  183DOPC   C2822476   0.373   5.756   3.729 -0.3764  0.3230 -0.2519
  183DOPC   H8R22477   0.348   5.661   3.782 -0.0709  0.7611  0.6936
  183DOPC   H8S22478   0.299   5.786   3.652 -0.0790 -1.1709 -1.1636
  183DOPC   C2922479   0.390   5.869   3.831 -0.2330 -0.1382 -0.0357
  183DOPC   H9R22480   0.488   5.917   3.818  0.5288 -1.6865 -0.2577
  183DOPC  C21022481   0.296   5.929   3.908 -0.5711  0.9995 -0.1006
  183DOPC  H10R22482   0.329   6.010   3.974  0.3543  1.5632 -1.2251
  183DOPC  C21122483   0.160   5.871   3.930 -0.8868 -0.2639  0.3305
  183DOPC  H11R22484   0.135   5.774   3.882 -2.3272  0.7596 -1.1231
  183DOPC  H11S22485   0.086   5.948   3.897 -0.4404 -0.4045 -1.0687
  183DOPC  C21222486   0.139   5.849   4.082 -1.0968 -0.2998  0.1169
  183DOPC  H12R22487   0.194   5.930   4.134  1.4467 -1.0958 -1.1911
  183DOPC  H12S22488   0.186   5.752   4.108 -0.5343 -0.8118 -2.4918
  183DOPC  C21322489  -0.004   5.842   4.128  0.0053 -0.2874 -0.7694
  183DOPC  H13R22490  -0.061   5.756   4.087 -0.7259  0.5478 -1.5507
  183DOPC  H13S22491  -0.051   5.933   4.085  1.2532  0.2416 -1.0672
  183DOPC  C21422492  -0.005   5.837   4.284  0.7811  0.0173  0.1866
  183DOPC  H14R22493   0.020   5.936   4.327  1.7500 -0.0794 -0.1362
  183DOPC  H14S22494   0.066   5.758   4.318  1.0639 -0.9423 -2.4021
  183DOPC  C21522495  -0.145   5.789   4.329 -0.0051  0.6971  0.0017
  183DOPC  H15R22496  -0.189   5.695   4.289  0.9074  0.0942  0.3637
  183DOPC  H15S22497  -0.203   5.872   4.284  0.3351  0.5082 -0.8104
  183DOPC  C21622498  -0.166   5.793   4.474 -0.7534 -0.0484 -0.6648
  183DOPC  H16R22499  -0.146   5.895   4.513 -0.0576  0.9742 -3.4280
  183DOPC  H16S22500  -0.076   5.736   4.506 -1.6373 -1.0724  0.0789
  183DOPC  C21722501  -0.294   5.744   4.538  0.7925 -0.0265 -0.4537
  183DOPC  H17R22502  -0.316   5.641   4.502  1.3225  0.4425 -2.2294
  183DOPC  H17S22503  -0.379   5.809   4.509  0.2982 -0.4286  0.0880
  183DOPC  C21822504  -0.270   5.729   4.690 -0.3435  0.3351  0.1834
  183DOPC  H18R22505  -0.163   5.706   4.712 -0.2014  1.6684  1.0104
  183DOPC  H18S22506  -0.334   5.652   4.738  0.9933 -1.2163 -0.4018
  183DOPC  H18T22507  -0.289   5.829   4.734  0.2316 -0.0545  1.3723
  183DOPC   C3322508   0.185   5.043   3.089 -0.4705  0.3702  1.1635
  183DOPC   H3X22509   0.225   4.942   3.065  1.2525  1.5973 -1.6237
  183DOPC   H3Y22510   0.076   5.031   3.073  0.1361 -1.6238 -2.5976
  183DOPC   C3422511   0.229   5.121   3.218  0.2835  0.1261  0.6501
  183DOPC   H4X22512   0.175   5.218   3.226  2.3844  1.4456 -0.3413
  183DOPC   H4Y22513   0.339   5.134   3.206  0.6693 -0.7678  2.7431
  183DOPC   C3522514   0.193   5.039   3.347 -0.7573 -0.2816  1.3031
  183DOPC   H5X22515   0.241   4.945   3.312  0.6172  1.0467 -0.6135
  183DOPC   H5Y22516   0.084   5.029   3.365 -0.7362  0.1496  1.6829
  183DOPC   C3622517   0.271   5.097   3.471 -0.7081 -0.3381  0.2664
  183DOPC   H6X22518   0.380   5.080   3.458 -0.2819  2.5008 -0.5644
  183DOPC   H6Y22519   0.258   5.206   3.455 -0.3103 -0.4038 -0.5872
  183DOPC   C3722520   0.228   5.066   3.613 -0.0870  0.3837 -0.3495
  183DOPC   H7X22521   0.306   5.119   3.673 -0.2784  0.4909 -0.1931
  183DOPC   H7Y22522   0.129   5.113   3.632 -0.7077 -0.9908 -0.0866
  183DOPC   C3822523   0.236   4.918   3.648 -0.0065  0.2610 -0.8112
  183DOPC   H8X22524   0.343   4.889   3.644  0.3606  1.2397  0.7518
  183DOPC   H8Y22525   0.173   4.846   3.591 -0.7906 -1.6929  2.2727
  183DOPC   C3922526   0.190   4.911   3.795  0.2289 -0.0256  0.1898
  183DOPC   H9X22527   0.093   4.955   3.822  0.4493  1.8198 -1.8351
  183DOPC  C31022528   0.248   4.856   3.899  0.2661 -0.1176  0.4942
  183DOPC  H10X22529   0.199   4.846   3.997  0.5484 -3.0092  0.4439
  183DOPC  C31122530   0.382   4.790   3.898  0.2383 -0.5019  0.4792
  183DOPC  H11X22531   0.452   4.851   3.837  1.7854 -1.6160  1.0744
  183DOPC  H11Y22532   0.356   4.698   3.840 -2.3551  0.6971 -0.3984
  183DOPC  C31222533   0.449   4.780   4.035  0.5180  0.3570 -0.0472
  183DOPC  H12X22534   0.526   4.700   4.030 -0.8919 -1.0642  0.1702
  183DOPC  H12Y22535   0.385   4.742   4.118  0.1814  1.1128  0.0438
  183DOPC  C31322536   0.518   4.911   4.083 -0.4027  0.6107  0.0475
  183DOPC  H13X22537   0.576   4.953   3.999 -0.3865  2.4588  0.9307
  183DOPC  H13Y22538   0.440   4.989   4.097 -1.7410 -0.5640 -0.6573
  183DOPC  C31422539   0.609   4.902   4.213 -0.0414 -0.5525  0.3522
  183DOPC  H14X22540   0.545   4.888   4.302  0.1924 -0.2161  0.5749
  183DOPC  H14Y22541   0.662   4.805   4.195 -1.2729 -1.3174  0.7324
  183DOPC  C31522542   0.698   5.022   4.236 -0.2799 -0.5892  0.4747
  183DOPC  H15X22543   0.640   5.116   4.249 -1.9725 -1.2129 -1.9087
  183DOPC  H15Y22544   0.766   5.020   4.149 -1.2568 -0.3423 -0.3135
  183DOPC  C31622545   0.792   5.010   4.360 -0.2538 -0.4530  0.8799
  183DOPC  H16X22546   0.863   4.926   4.341  0.5540  0.5624 -0.8444
  183DOPC  H16Y22547   0.841   5.107   4.382 -1.0940 -0.0363  0.9123
  183DOPC  C31722548   0.711   4.976   4.492 -0.2534  0.5131  0.0949
  183DOPC  H17X22549   0.633   5.052   4.514 -0.7545 -0.3897  1.6414
  183DOPC  H17Y22550   0.655   4.880   4.493  1.0967 -0.3034 -0.2684
  183DOPC  C31822551   0.805   4.967   4.608  0.6518  0.0927  0.1570
  183DOPC  H18X22552   0.745   4.967   4.701  1.1358  1.2302  0.4904
  183DOPC  H18Y22553   0.878   4.884   4.596  0.1506 -0.2049 -0.9332
  183DOPC  H18Z22554   0.858   5.064   4.618  1.8141 -0.3653 -1.1616
  184DOPC     N22555   4.426   0.790   2.608 -0.0187  0.2401  0.1226
  184DOPC   C1222556   4.529   0.785   2.721  0.0810 -0.6442 -0.0114
  184DOPC  H12A22557   4.627   0.796   2.677  0.4272  3.8034  1.3296
  184DOPC  H12B22558   4.535   0.694   2.779  0.7712  0.5167  1.8320
  184DOPC   C1322559   4.292   0.771   2.667  0.2924 -0.1798 -0.1041
  184DOPC  H13A22560   4.293   0.685   2.732  0.2873 -0.5437 -0.5785
  184DOPC  H13B22561   4.258   0.854   2.726 -3.1117 -0.9068 -0.8551
  184DOPC  H13C22562   4.222   0.754   2.587  0.4481 -1.5556  0.0375
  184DOPC   C1422563   4.465   0.668   2.527  0.5051 -0.0849  0.6656
  184DOPC  H14A22564   4.389   0.636   2.456  0.3827 -0.1030  0.8045
  184DOPC  H14B22565   4.556   0.684   2.471 -1.2622  1.7030 -1.9679
  184DOPC  H14C22566   4.482   0.586   2.595 -0.0758 -0.9846 -0.2311
  184DOPC   C1522567   4.423   0.915   2.526 -0.0968  0.2456  0.4384
  184DOPC  H15A22568   4.415   1.006   2.584 -2.6258  0.0693  0.5097
  184DOPC  H15B22569   4.341   0.919   2.455  1.6840  1.9459 -1.6696
  184DOPC  H15C22570   4.511   0.924   2.464  0.9855  1.3650  2.0482
  184DOPC   C1122571   4.530   0.902   2.825  0.2380 -0.2072  0.5827
  184DOPC  H11A22572   4.432   0.896   2.878 -0.7631 -2.9628 -1.3289
  184DOPC  H11B22573   4.615   0.876   2.892 -0.3130 -1.2313  0.9119
  184DOPC     P22574   4.678   1.105   2.741  0.1380  0.3839 -0.2752
  184DOPC   O1322575   4.666   1.247   2.699 -0.3769  0.7537  0.1638
  184DOPC   O1422576   4.748   1.013   2.645  0.2734  0.2503 -0.0080
  184DOPC   O1222577   4.532   1.035   2.774 -0.5124 -0.5239 -0.4967
  184DOPC   O1122578   4.753   1.095   2.879 -0.1083  0.2734  0.5504
  184DOPC    C122579   4.732   1.189   2.986  0.5511 -0.5764  0.3549
  184DOPC    HA22580   4.627   1.199   3.022  0.5016  1.1810 -0.1870
  184DOPC    HB22581   4.760   1.290   2.951 -0.6967 -0.0306  0.8444
  184DOPC    C222582   4.799   1.146   3.126 -0.1020 -0.0645  1.0023
  184DOPC    HS22583   4.903   1.120   3.096 -1.5052 -2.9257 -1.9375
  184DOPC   O2122584   4.742   1.029   3.186 -0.1606 -0.0729 -0.1417
  184DOPC   C2122585   4.822   0.932   3.221 -0.4927  0.2297 -0.3193
  184DOPC   O2222586   4.944   0.931   3.204 -0.1308  0.1349 -1.1473
  184DOPC   C2222587   4.737   0.827   3.294  0.1442 -0.2327  0.4916
  184DOPC   H2R22588   4.721   0.751   3.215 -0.9642 -0.7750  1.2224
  184DOPC   H2S22589   4.637   0.866   3.324 -1.8849 -3.5427 -1.4319
  184DOPC    C322590   4.797   1.260   3.226 -0.0916 -0.6854  0.1442
  184DOPC    HX22591   4.693   1.281   3.259  0.0897  1.0510 -0.2785
  184DOPC    HY22592   4.835   1.351   3.173  0.8456  0.3473  2.4791
  184DOPC   O3122593   4.877   1.223   3.338  0.1278  0.1824  0.7719
  184DOPC   C3122594   5.010   1.251   3.318  0.1392  0.0174 -0.0303
  184DOPC   O3222595   5.061   1.295   3.218  0.2745 -0.5924  0.3265
  184DOPC   C3222596   5.096   1.192   3.433 -0.4562 -0.3686  0.2567
  184DOPC   H2X22597   5.125   1.086   3.418  3.6841  0.2079  2.5598
  184DOPC   H2Y22598   5.195   1.242   3.439  0.0418 -1.1731 -0.8179
  184DOPC   C2322599   4.810   0.767   3.419 -0.1049  0.3345  0.3653
  184DOPC   H3R22600   4.915   0.744   3.389 -1.3480 -1.8385 -2.8875
  184DOPC   H3S22601   4.759   0.673   3.448  0.6198  0.2771  1.5057
  184DOPC   C2422602   4.804   0.870   3.536  0.7398  0.4040 -0.5983
  184DOPC   H4R22603   4.700   0.909   3.541  0.2508 -0.9810  1.5080
  184DOPC   H4S22604   4.877   0.949   3.508  0.4720  0.2678 -1.7021
  184DOPC   C2522605   4.845   0.811   3.671 -0.5258  0.0413 -0.5766
  184DOPC   H5R22606   4.849   0.894   3.745 -2.0300 -1.6322  1.5024
  184DOPC   H5S22607   4.948   0.769   3.678 -0.4469  0.4437  1.9249
  184DOPC   C2622608   4.759   0.702   3.728 -0.3458  0.2398  0.2538
  184DOPC   H6R22609   4.787   0.603   3.686 -0.0773  0.2689  0.3650
  184DOPC   H6S22610   4.655   0.726   3.699 -0.6651 -1.8143 -0.4497
  184DOPC   C2722611   4.766   0.699   3.879 -0.0654  0.9644 -0.0515
  184DOPC   H7R22612   4.745   0.805   3.902  2.5033  1.9483 -1.7485
  184DOPC   H7S22613   4.871   0.684   3.913  0.0532 -1.4328 -1.2361
  184DOPC   C2822614   4.661   0.596   3.932  0.3239  0.3568  0.0556
  184DOPC   H8R22615   4.694   0.493   3.908 -0.2393 -0.3756  2.2335
  184DOPC   H8S22616   4.576   0.616   3.863 -0.6798  0.2734  1.2443
  184DOPC   C2922617   4.624   0.620   4.082  0.6710  0.4328 -0.3439
  184DOPC   H9R22618   4.588   0.724   4.094  0.2564  0.4990 -1.8837
  184DOPC  C21022619   4.619   0.532   4.185  0.2845  0.6263  0.2431
  184DOPC  H10R22620   4.594   0.562   4.288 -0.8551 -1.7108  0.7107
  184DOPC  C21122621   4.674   0.393   4.188  0.0577  0.2829 -0.0616
  184DOPC  H11R22622   4.704   0.347   4.092  0.6420 -1.7446  1.0278
  184DOPC  H11S22623   4.594   0.327   4.228  1.1466 -0.7571  0.4892
  184DOPC  C21222624   4.789   0.389   4.289  0.0942  0.1959  0.0152
  184DOPC  H12R22625   4.816   0.284   4.313 -1.5595 -0.6964 -1.7912
  184DOPC  H12S22626   4.750   0.436   4.382 -1.0787 -0.0033 -0.3590
  184DOPC  C21322627   4.911   0.479   4.253 -0.5063  0.1081  0.4186
  184DOPC  H13R22628   4.880   0.583   4.228  0.1090 -0.0462 -1.0739
  184DOPC  H13S22629   4.954   0.436   4.160 -0.5974 -0.3304  0.5746
  184DOPC  C21422630   5.014   0.489   4.360 -0.1807  0.0062 -0.4959
  184DOPC  H14R22631   4.957   0.516   4.452 -1.1177  2.6401 -1.7693
  184DOPC  H14S22632   5.085   0.569   4.331 -0.8097  0.2822 -1.2988
  184DOPC  C21522633   5.088   0.360   4.373 -0.6009  0.0834 -0.2770
  184DOPC  H15R22634   5.159   0.347   4.289 -0.6513 -0.6763 -0.2105
  184DOPC  H15S22635   5.018   0.274   4.373 -0.8358  0.2660  0.2428
  184DOPC  C21622636   5.169   0.349   4.507  0.4138 -0.1502  0.2547
  184DOPC  H16R22637   5.215   0.450   4.511 -2.2987  1.1723  0.5521
  184DOPC  H16S22638   5.247   0.270   4.499  1.0600  0.0049  3.5618
  184DOPC  C21722639   5.091   0.327   4.638 -0.3056  0.2684  0.0180
  184DOPC  H17R22640   5.014   0.407   4.647  0.5813  1.0019  1.5870
  184DOPC  H17S22641   5.157   0.331   4.728  0.2442 -3.6185 -0.0711
  184DOPC  C21822642   5.020   0.192   4.646  0.3967 -0.2853 -0.5354
  184DOPC  H18R22643   4.943   0.189   4.566 -1.4430 -2.9775  1.1896
  184DOPC  H18S22644   4.962   0.178   4.739 -1.2846  3.3290 -0.8262
  184DOPC  H18T22645   5.100   0.118   4.624  0.9801 -0.0394  0.6662
  184DOPC   C3322646   5.029   1.199   3.568  0.5219 -0.0648  0.6387
  184DOPC   H3X22647   4.943   1.130   3.559  0.0748  0.2718  2.1397
  184DOPC   H3Y22648   4.995   1.301   3.592  0.4729  0.2928 -0.8696
  184DOPC   C3422649   5.118   1.136   3.675  0.0900 -0.3430 -0.4340
  184DOPC   H4X22650   5.224   1.160   3.653  1.0606 -1.6407  2.3684
  184DOPC   H4Y22651   5.101   1.026   3.666  0.1340 -0.5385  1.5372
  184DOPC   C3522652   5.091   1.201   3.814 -0.1915  0.4835  0.1022
  184DOPC   H5X22653   4.982   1.192   3.833 -0.3844  2.1431 -0.0390
  184DOPC   H5Y22654   5.113   1.310   3.812  0.3306  0.3739 -1.2681
  184DOPC   C3622655   5.162   1.137   3.937 -0.1220  0.7546  0.1105
  184DOPC   H6X22656   5.269   1.162   3.924 -0.1743  1.2433  0.6035
  184DOPC   H6Y22657   5.123   1.178   4.032  1.3861  0.9450  0.6642
  184DOPC   C3722658   5.153   0.985   3.930  0.4280  0.2579  0.4696
  184DOPC   H7X22659   5.059   0.950   3.883  1.5111 -4.3414  1.2672
  184DOPC   H7Y22660   5.238   0.956   3.864  1.1242 -1.1177  1.9017
  184DOPC   C3822661   5.169   0.923   4.071  0.4308  0.7110 -0.3415
  184DOPC   H8X22662   5.074   0.954   4.119  0.2506  1.1722 -0.9794
  184DOPC   H8Y22663   5.247   0.974   4.132  1.0216  0.4251 -0.8529
  184DOPC   C3922664   5.180   0.773   4.070 -0.1413 -0.0958 -0.0928
  184DOPC   H9X22665   5.095   0.727   4.016  1.3632  1.3062 -3.9608
  184DOPC  C31022666   5.287   0.698   4.103  0.0351  0.0472  0.3889
  184DOPC  H10X22667   5.272   0.590   4.117  1.1979 -0.3497 -1.0718
  184DOPC  C31122668   5.416   0.751   4.155  0.1739  0.6071 -0.4941
  184DOPC  H11X22669   5.424   0.861   4.147  2.5317  0.4120 -1.5974
  184DOPC  H11Y22670   5.500   0.715   4.093  0.4886  2.8827 -1.4638
  184DOPC  C31222671   5.447   0.725   4.306  0.0977 -0.2650 -0.1348
  184DOPC  H12X22672   5.396   0.790   4.379  0.2457  2.0876 -1.9985
  184DOPC  H12Y22673   5.554   0.756   4.311  0.5170 -1.6850  0.1678
  184DOPC  C31322674   5.450   0.578   4.353  0.2057 -0.0749  0.5347
  184DOPC  H13X22675   5.351   0.564   4.403 -2.5722  2.4230 -3.6180
  184DOPC  H13Y22676   5.448   0.521   4.258 -1.2948  0.3344  0.2866
  184DOPC  C31422677   5.566   0.536   4.432 -0.3517  0.1259 -0.2805
  184DOPC  H14X22678   5.660   0.544   4.374 -0.2014  1.1260  0.0924
  184DOPC  H14Y22679   5.588   0.613   4.508  0.5708 -0.4396  0.0345
  184DOPC  C31522680   5.555   0.394   4.490  0.2632  0.5320 -0.5426
  184DOPC  H15X22681   5.620   0.322   4.435 -1.1238 -1.0081 -0.2843
  184DOPC  H15Y22682   5.451   0.356   4.479 -0.2608  1.7395  0.1393
  184DOPC  C31622683   5.586   0.376   4.638  0.1360  0.2072 -0.0096
  184DOPC  H16X22684   5.563   0.456   4.712  0.7406 -0.3591  0.8021
  184DOPC  H16Y22685   5.538   0.282   4.671 -0.0175  0.4099  0.3532
  184DOPC  C31722686   5.740   0.362   4.648  0.0299 -0.1351  0.1720
  184DOPC  H17X22687   5.776   0.267   4.602  1.9228  0.5443  0.1532
  184DOPC  H17Y22688   5.790   0.442   4.589 -0.0617 -0.6154 -0.5738
  184DOPC  C31822689   5.790   0.363   4.790  0.2554 -0.1021 -0.2214
  184DOPC  H18X22690   5.775   0.464   4.834 -0.1374  1.0955 -2.9030
  184DOPC  H18Y22691   5.738   0.294   4.859  1.8309 -2.0724 -0.9055
  184DOPC  H18Z22692   5.898   0.337   4.800  0.0843 -0.7639 -0.0942
  185DOPC     N22693   6.286   6.357   2.405 -0.5365 -0.4292 -0.0167
  185DOPC   C1222694   6.357   6.329   2.536  0.0331  0.2132  0.3615
  185DOPC  H12A22695   6.289   6.278   2.602  0.7316 -2.1822 -0.6428
  185DOPC  H12B22696   6.379   6.420   2.589  0.0101  0.5862 -0.2541
  185DOPC   C1322697   6.379   6.438   2.314  0.1557 -0.5889 -0.1486
  185DOPC  H13A22698   6.319   6.488   2.239  2.9007  0.2181 -1.9240
  185DOPC  H13B22699   6.415   6.520   2.374 -0.1781  0.1960 -1.0006
  185DOPC  H13C22700   6.452   6.379   2.262  0.2131  0.9825 -1.9564
  185DOPC   C1422701   6.161   6.444   2.429 -0.8441 -0.0544  0.1770
  185DOPC  H14A22702   6.190   6.533   2.482 -1.5814 -1.0825  2.4264
  185DOPC  H14B22703   6.105   6.462   2.338  0.7888 -0.0133 -0.8581
  185DOPC  H14C22704   6.090   6.394   2.493  0.5074 -2.6206 -0.1734
  185DOPC   C1522705   6.256   6.231   2.328  0.5461 -0.0831 -0.2492
  185DOPC  H15A22706   6.191   6.174   2.393  0.3017 -1.0431 -1.2933
  185DOPC  H15B22707   6.346   6.177   2.305  0.4604 -0.2204 -0.2653
  185DOPC  H15C22708   6.188   6.254   2.247 -0.6199  0.1630  0.7582
  185DOPC   C1122709   6.486   6.237   2.530  0.4721 -0.8915 -0.6292
  185DOPC  H11A22710   6.558   6.288   2.463  1.7381 -0.4164  1.0216
  185DOPC  H11B22711   6.525   6.242   2.634 -0.9678  2.2723 -0.1222
  185DOPC     P22712   6.564   5.991   2.485 -0.3028  0.1479 -0.3901
  185DOPC   O1322713   6.663   6.009   2.375 -0.1079 -0.1972  0.0194
  185DOPC   O1422714   6.491   5.860   2.475  0.3068 -0.4610  0.8171
  185DOPC   O1222715   6.460   6.106   2.489 -0.0011 -0.2803 -0.5918
  185DOPC   O1122716   6.645   5.990   2.624  0.5800 -0.0563  0.1201
  185DOPC    C122717   6.587   5.960   2.749 -0.0988 -0.5670 -0.5963
  185DOPC    HA22718   6.578   5.849   2.750 -0.6489 -0.5273 -0.8724
  185DOPC    HB22719   6.485   6.001   2.765 -0.7850 -1.9711 -1.1963
  185DOPC    C222720   6.674   5.994   2.878 -0.1216 -0.5073  0.3553
  185DOPC    HS22721   6.778   5.959   2.861  0.4023  1.1921 -0.0875
  185DOPC   O2122722   6.620   5.933   2.989  0.3010 -0.0631 -0.5278
  185DOPC   C2122723   6.659   5.816   3.026  0.5066 -0.8819  0.6526
  185DOPC   O2222724   6.730   5.737   2.966 -0.4767  0.0949  0.1579
  185DOPC   C2222725   6.600   5.788   3.165  0.4553 -0.0761 -0.1706
  185DOPC   H2R22726   6.525   5.867   3.187 -0.0966 -0.3761 -0.9582
  185DOPC   H2S22727   6.680   5.793   3.242 -1.1895 -0.0210  1.5979
  185DOPC    C322728   6.697   6.150   2.903  0.2381 -0.1761  0.0812
  185DOPC    HX22729   6.597   6.190   2.929  0.2527 -1.1325  1.7101
  185DOPC    HY22730   6.731   6.185   2.803 -0.9076  0.2883 -0.1624
  185DOPC   O3122731   6.798   6.171   3.009  0.6217  1.1304  0.3193
  185DOPC   C3122732   6.857   6.292   2.997 -0.5851  0.4137 -0.8223
  185DOPC   O3222733   6.824   6.374   2.911 -0.3274 -0.3915 -0.3527
  185DOPC   C3222734   6.971   6.309   3.102  0.0297  0.3782 -0.1412
  185DOPC   H2X22735   6.947   6.233   3.179 -1.2489 -0.2207 -1.0936
  185DOPC   H2Y22736   7.069   6.285   3.056 -0.5266 -0.2650 -1.0131
  185DOPC   C2322737   6.529   5.646   3.168 -0.0933  0.5255  0.2399
  185DOPC   H3R22738   6.597   5.561   3.150  1.9397  2.1732 -0.2501
  185DOPC   H3S22739   6.463   5.644   3.078  0.6164  0.3321 -0.2771
  185DOPC   C2422740   6.461   5.619   3.302 -0.6546  0.1340 -0.6145
  185DOPC   H4R22741   6.418   5.516   3.299  4.0564 -2.2086  1.1036
  185DOPC   H4S22742   6.375   5.689   3.305 -2.4800 -1.9962  2.9883
  185DOPC   C2522743   6.549   5.633   3.434 -0.6488  0.1042 -0.0999
  185DOPC   H5R22744   6.483   5.613   3.522  0.8985 -1.2918  0.8092
  185DOPC   H5S22745   6.597   5.732   3.425 -0.9143  0.4006  1.4931
  185DOPC   C2622746   6.655   5.524   3.436 -0.2997  0.4324 -0.2820
  185DOPC   H6R22747   6.715   5.531   3.343  0.4874 -1.4768  0.0205
  185DOPC   H6S22748   6.609   5.423   3.435  2.1952 -0.8730  2.1030
  185DOPC   C2722749   6.752   5.543   3.560  0.0106  1.2960  0.6532
  185DOPC   H7R22750   6.690   5.498   3.641 -1.0453  0.0223 -0.7951
  185DOPC   H7S22751   6.759   5.649   3.591  2.5334  1.3870 -0.0671
  185DOPC   C2822752   6.888   5.473   3.555 -0.3457  0.2924  0.2231
  185DOPC   H8R22753   6.959   5.498   3.637  0.6219  2.4822 -1.1898
  185DOPC   H8S22754   6.936   5.510   3.462  3.0722 -1.8508  0.9306
  185DOPC   C2922755   6.869   5.327   3.555 -0.2816  0.4197  0.1817
  185DOPC   H9R22756   6.888   5.278   3.459 -0.3533 -0.8797  0.8130
  185DOPC  C21022757   6.823   5.242   3.650 -0.4298 -0.5919 -0.0773
  185DOPC  H10R22758   6.806   5.138   3.621  2.4287 -0.9668 -0.6685
  185DOPC  C21122759   6.784   5.278   3.790  0.0736 -0.2410 -0.3218
  185DOPC  H11R22760   6.674   5.266   3.796 -0.0419  0.7388 -0.2997
  185DOPC  H11S22761   6.804   5.383   3.819  1.6873 -0.8649  0.9734
  185DOPC  C21222762   6.840   5.184   3.894 -0.0552 -0.6225  0.3037
  185DOPC  H12R22763   6.949   5.199   3.906 -0.2877  0.9537  0.7436
  185DOPC  H12S22764   6.822   5.080   3.861 -0.7171 -0.0467 -1.2418
  185DOPC  C21322765   6.794   5.218   4.035  0.5314 -0.3809 -0.0325
  185DOPC  H13R22766   6.780   5.328   4.042 -1.1175 -0.6300  1.1086
  185DOPC  H13S22767   6.872   5.204   4.113  0.6653  2.5039  0.4804
  185DOPC  C21422768   6.668   5.150   4.075  0.5178  0.0288  0.4418
  185DOPC  H14R22769   6.683   5.043   4.098 -0.5599  0.1991  2.0924
  185DOPC  H14S22770   6.593   5.141   3.994  0.1988  0.2583  0.7081
  185DOPC  C21522771   6.595   5.216   4.196  0.5357 -0.8205 -0.4518
  185DOPC  H15R22772   6.550   5.315   4.174 -1.2251 -0.5039  3.6611
  185DOPC  H15S22773   6.665   5.230   4.281 -1.4827  0.9916  1.0178
  185DOPC  C21622774   6.479   5.126   4.255 -0.7680  0.1631 -0.3414
  185DOPC  H16R22775   6.534   5.037   4.293  0.1774  0.0437 -1.8995
  185DOPC  H16S22776   6.410   5.095   4.174 -2.1154  1.7561  0.1386
  185DOPC  C21722777   6.409   5.194   4.372 -0.2670  0.0514  0.2386
  185DOPC  H17R22778   6.431   5.140   4.467  0.9928 -1.2297 -0.7414
  185DOPC  H17S22779   6.300   5.171   4.366 -0.6077  1.6656 -0.2224
  185DOPC  C21822780   6.428   5.350   4.381 -0.4400 -0.4032  0.5650
  185DOPC  H18R22781   6.533   5.383   4.393  0.6786 -2.5428 -2.3849
  185DOPC  H18S22782   6.357   5.394   4.455  0.7640  0.1537  1.4206
  185DOPC  H18T22783   6.390   5.400   4.290 -1.6693 -0.0853  1.2298
  185DOPC   C3322784   6.983   6.457   3.152 -0.1684 -0.3492  0.9646
  185DOPC   H3X22785   6.953   6.513   3.061  2.8665 -1.8631 -1.1559
  185DOPC   H3Y22786   7.091   6.479   3.167 -0.1776  0.2932  0.1703
  185DOPC   C3422787   6.898   6.488   3.276 -0.1583 -0.3550  0.3457
  185DOPC   H4X22788   6.931   6.435   3.368  0.4028 -0.9715 -0.2023
  185DOPC   H4Y22789   6.802   6.445   3.241 -1.1923  1.4877  0.7568
  185DOPC   C3522790   6.879   6.642   3.305  0.0354 -0.1955  0.0248
  185DOPC   H5X22791   6.840   6.688   3.211  3.8209  0.8636 -1.1969
  185DOPC   H5Y22792   6.977   6.692   3.320 -0.9245  2.1483 -0.9389
  185DOPC   C3622793   6.785   6.689   3.415 -0.1731  0.1054 -0.5248
  185DOPC   H6X22794   6.680   6.663   3.387 -0.3278 -0.9869  0.9569
  185DOPC   H6Y22795   6.803   6.648   3.516 -0.2801 -2.2358 -1.4043
  185DOPC   C3722796   6.779   6.845   3.442  0.0397  0.4260  0.3453
  185DOPC   H7X22797   6.740   6.876   3.541  0.7622  3.1876 -0.1511
  185DOPC   H7Y22798   6.885   6.877   3.451  0.2229 -0.2044  0.4470
  185DOPC   C3822799   6.703   6.923   3.336 -0.2792 -0.6106 -0.0856
  185DOPC   H8X22800   6.733   6.886   3.236 -3.1891 -0.0781 -1.2646
  185DOPC   H8Y22801   6.746   7.024   3.352 -1.2882  0.0256 -1.1688
  185DOPC   C3922802   6.553   6.910   3.350 -0.2220 -0.3939 -0.0285
  185DOPC   H9X22803   6.529   6.804   3.332  0.8019 -1.1545  2.6948
  185DOPC  C31022804   6.465   7.001   3.387 -0.1488 -0.3164  0.2512
  185DOPC  H10X22805   6.363   6.963   3.401 -0.9105  0.1729 -3.1270
  185DOPC  C31122806   6.484   7.142   3.423 -0.2250  0.3767  0.1294
  185DOPC  H11X22807   6.397   7.199   3.383 -1.4616 -1.2797  0.3335
  185DOPC  H11Y22808   6.584   7.178   3.394  0.1935  1.5368  2.7214
  185DOPC  C31222809   6.463   7.143   3.578 -0.0906  0.7281  0.2376
  185DOPC  H12X22810   6.546   7.087   3.625  1.5446  1.7706 -1.2765
  185DOPC  H12Y22811   6.365   7.104   3.612 -0.3649  1.9211  0.8959
  185DOPC  C31322812   6.479   7.272   3.657 -0.5428  0.2001  0.5093
  185DOPC  H13X22813   6.580   7.314   3.641 -0.1456 -1.0753 -0.3700
  185DOPC  H13Y22814   6.401   7.337   3.611  0.5550  0.8598 -0.4541
  185DOPC  C31422815   6.460   7.262   3.811 -0.1250  0.4092  0.0487
  185DOPC  H14X22816   6.361   7.222   3.845 -0.0746  2.0680  2.4610
  185DOPC  H14Y22817   6.525   7.181   3.850  0.3175 -0.1820 -1.8620
  185DOPC  C31522818   6.480   7.386   3.894 -0.1894  0.2630 -0.3716
  185DOPC  H15X22819   6.422   7.472   3.853 -1.6078 -0.7486 -0.5680
  185DOPC  H15Y22820   6.582   7.429   3.887 -0.5241  0.9065 -1.5454
  185DOPC  C31622821   6.432   7.384   4.042 -0.2225  0.0439 -0.3096
  185DOPC  H16X22822   6.324   7.359   4.051  0.2623 -1.6050  1.7817
  185DOPC  H16Y22823   6.476   7.303   4.104 -3.8424 -0.6112  1.6354
  185DOPC  C31722824   6.452   7.502   4.124 -0.3437 -0.4777 -0.3459
  185DOPC  H17X22825   6.557   7.541   4.120 -0.6910  0.6210  0.5902
  185DOPC  H17Y22826   6.394   7.582   4.073  0.2793  0.3471  0.2076
  185DOPC  C31822827   6.412   7.482   4.270 -0.0971  0.3693 -0.6755
  185DOPC  H18X22828   6.310   7.442   4.287  0.4795 -0.2263  1.6385
  185DOPC  H18Y22829   6.489   7.424   4.325 -0.2946  0.6271 -0.1229
  185DOPC  H18Z22830   6.420   7.585   4.310  1.3922  0.3275 -0.8102
  186DOPC     N22831   0.110   3.214   2.764 -0.1094 -0.3704 -0.1810
  186DOPC   C1222832   0.167   3.290   2.883  0.0650  0.0400 -0.2503
  186DOPC  H12A22833   0.083   3.315   2.945  0.9891  2.2670  0.2227
  186DOPC  H12B22834   0.200   3.386   2.846 -0.6677 -0.3799 -2.0969
  186DOPC   C1322835   0.216   3.198   2.670 -0.0865  0.2666  0.2233
  186DOPC  H13A22836   0.303   3.154   2.717 -0.4221 -0.4131  0.2110
  186DOPC  H13B22837   0.184   3.139   2.586  2.2233 -1.0525  0.1932
  186DOPC  H13C22838   0.253   3.295   2.639 -1.3664  0.1073 -1.9782
  186DOPC   C1422839   0.000   3.287   2.695 -0.1368  0.0878  0.7303
  186DOPC  H14A22840  -0.081   3.314   2.760 -0.2944  1.1968  0.0895
  186DOPC  H14B22841   0.040   3.372   2.643  1.3054  0.1045  1.8014
  186DOPC  H14C22842  -0.035   3.221   2.617  0.2154 -0.1611  0.7766
  186DOPC   C1522843   0.046   3.085   2.802  0.3948 -0.1567  0.0154
  186DOPC  H15A22844  -0.025   3.105   2.880  0.4094  3.3134 -0.6752
  186DOPC  H15B22845   0.122   3.019   2.840  1.0634  1.3646  1.4243
  186DOPC  H15C22846  -0.007   3.041   2.719 -0.6984 -0.0366  0.6390
  186DOPC   C1122847   0.289   3.217   2.959 -0.9557 -0.2616 -0.4545
  186DOPC  H11A22848   0.300   3.279   3.052  2.1183  1.4382 -1.7908
  186DOPC  H11B22849   0.247   3.116   2.977 -0.9714 -0.4414 -1.4714
  186DOPC     P22850   0.524   3.314   2.906  0.2646  0.2714 -0.4968
  186DOPC   O1322851   0.466   3.448   2.932 -0.1240  0.3554 -0.1410
  186DOPC   O1422852   0.633   3.303   2.807  0.0478  0.4780 -0.5577
  186DOPC   O1222853   0.411   3.208   2.879 -0.2845  0.3042 -0.4185
  186DOPC   O1122854   0.585   3.269   3.047  0.1288  0.2588  0.0279
  186DOPC    C122855   0.688   3.359   3.101 -0.2000 -0.4965 -0.4863
  186DOPC    HA22856   0.693   3.459   3.053 -3.2761 -0.9603 -2.0055
  186DOPC    HB22857   0.787   3.311   3.090 -0.2390 -0.5638 -0.5420
  186DOPC    C222858   0.659   3.383   3.257 -0.0503  0.0461  0.6765
  186DOPC    HS22859   0.588   3.467   3.271 -0.0454  0.1409  0.1514
  186DOPC   O2122860   0.789   3.407   3.315  0.2731 -0.7529  0.5878
  186DOPC   C2122861   0.834   3.528   3.304 -0.1550 -0.0476  0.5047
  186DOPC   O2222862   0.805   3.613   3.218  0.5782  0.3802 -0.1885
  186DOPC   C2222863   0.949   3.550   3.412 -0.2502  0.4333 -0.2634
  186DOPC   H2R22864   1.000   3.648   3.399  0.2517  0.4116  1.3712
  186DOPC   H2S22865   1.018   3.464   3.404  1.0271  1.4778 -0.8827
  186DOPC    C322866   0.592   3.265   3.325  0.4267  0.0071 -0.0180
  186DOPC    HX22867   0.638   3.169   3.295 -1.7268 -0.8735 -0.6342
  186DOPC    HY22868   0.485   3.261   3.296  0.0419  1.0646  1.1661
  186DOPC   O3122869   0.599   3.266   3.473  0.6514  0.5742 -0.1886
  186DOPC   C3122870   0.550   3.366   3.541 -0.0322  0.0178  0.0520
  186DOPC   O3222871   0.484   3.463   3.498 -0.9570 -0.3426  0.5814
  186DOPC   C3222872   0.570   3.333   3.693 -0.1879  0.2392  1.1232
  186DOPC   H2X22873   0.530   3.232   3.714  0.2180 -0.8929 -2.7920
  186DOPC   H2Y22874   0.678   3.311   3.707  0.2844  0.3232 -1.7389
  186DOPC   C2322875   0.885   3.555   3.553 -0.0536 -0.3621  0.3152
  186DOPC   H3R22876   0.825   3.463   3.572  0.5523 -0.7760  0.2562
  186DOPC   H3S22877   0.822   3.646   3.567  0.6131  0.2915 -0.8282
  186DOPC   C2422878   0.996   3.560   3.663 -0.5731 -0.3122  0.0276
  186DOPC   H4R22879   1.071   3.636   3.632 -0.4826 -0.1839  0.5536
  186DOPC   H4S22880   1.044   3.462   3.682 -0.5580 -0.4191 -0.5564
  186DOPC   C2522881   0.939   3.600   3.798  0.3396  0.2857  0.2256
  186DOPC   H5R22882   0.889   3.512   3.843 -0.8857  0.6009 -0.4801
  186DOPC   H5S22883   0.872   3.685   3.778  0.4960 -0.0130 -1.7894
  186DOPC   C2622884   1.052   3.652   3.887 -0.4957 -0.0012  0.1241
  186DOPC   H6R22885   1.016   3.710   3.974 -0.7658  2.5755 -1.6040
  186DOPC   H6S22886   1.110   3.726   3.829 -1.6437  0.8343  0.0121
  186DOPC   C2722887   1.137   3.540   3.941  0.4193 -0.0011  0.7863
  186DOPC   H7R22888   1.191   3.511   3.849  0.9694  0.9962  0.7844
  186DOPC   H7S22889   1.066   3.461   3.975 -0.1628 -0.2142 -0.8175
  186DOPC   C2822890   1.236   3.571   4.052  0.4989 -0.4319  0.0583
  186DOPC   H8R22891   1.189   3.646   4.120  3.8598  1.1759  0.8343
  186DOPC   H8S22892   1.321   3.621   4.001 -0.2625 -0.0511 -0.8731
  186DOPC   C2922893   1.287   3.454   4.136  0.4027  0.5554  0.2909
  186DOPC   H9R22894   1.346   3.381   4.078 -0.8200 -1.0707  1.0025
  186DOPC  C21022895   1.268   3.436   4.272  0.2008  0.2870  0.6939
  186DOPC  H10R22896   1.307   3.341   4.313  0.3643 -0.3531 -0.8818
  186DOPC  C21122897   1.194   3.532   4.368 -0.1582 -0.0976  0.0784
  186DOPC  H11R22898   1.103   3.571   4.317 -0.2777 -1.2749 -0.6454
  186DOPC  H11S22899   1.250   3.625   4.388 -1.0684  0.1922  1.4111
  186DOPC  C21222900   1.169   3.477   4.515  0.0194 -0.8124 -0.0675
  186DOPC  H12R22901   1.163   3.564   4.585 -0.4727  0.7380 -1.9334
  186DOPC  H12S22902   1.250   3.409   4.546  0.1416 -0.8368 -0.4414
  186DOPC  C21322903   1.041   3.389   4.518  0.1381  0.1573 -0.5238
  186DOPC  H13R22904   1.031   3.330   4.424  1.9557  0.7470 -1.1441
  186DOPC  H13S22905   0.953   3.457   4.512  0.3145  0.4567  0.2262
  186DOPC  C21422906   1.021   3.296   4.636  0.1673  0.0949 -0.2772
  186DOPC  H14R22907   1.105   3.223   4.634  0.4373  0.4085 -0.6401
  186DOPC  H14S22908   0.926   3.243   4.615 -0.8324  1.7327 -0.0904
  186DOPC  C21522909   1.000   3.364   4.776 -0.6760 -0.2007  0.4773
  186DOPC  H15R22910   0.893   3.392   4.781 -0.2398  2.0310 -1.2766
  186DOPC  H15S22911   1.053   3.462   4.782 -1.6538  0.5392 -1.9498
  186DOPC  C21622912   1.044   3.271   4.888  0.2171  0.0361  0.4836
  186DOPC  H16R22913   1.016   3.320   4.984 -2.8039 -0.5277 -0.0054
  186DOPC  H16S22914   1.152   3.252   4.871 -0.2647  0.4203 -4.3744
  186DOPC  C21722915   0.967   3.140   4.893  1.3528 -0.1608  0.0298
  186DOPC  H17R22916   1.006   3.070   4.816 -1.1326 -0.5250 -0.9834
  186DOPC  H17S22917   0.865   3.171   4.861 -0.4752 -2.8909  2.6912
  186DOPC  C21822918   0.962   3.079   5.040 -0.0673  0.0675  0.0249
  186DOPC  H18R22919   0.901   3.132   5.116  1.1602 -1.1888  1.9844
  186DOPC  H18S22920   1.064   3.061   5.079  0.2982 -1.3189 -1.4298
  186DOPC  H18T22921   0.916   2.978   5.037 -0.4720  0.2733 -1.1882
  186DOPC   C3322922   0.515   3.433   3.787  0.2776 -0.0781  0.7176
  186DOPC   H3X22923   0.414   3.464   3.752  0.8195  0.2715 -0.5804
  186DOPC   H3Y22924   0.579   3.524   3.792 -0.9455  0.8406  0.3672
  186DOPC   C3422925   0.501   3.368   3.927  0.0390  0.1352 -0.1227
  186DOPC   H4X22926   0.601   3.337   3.963  0.5843 -1.1447 -2.5248
  186DOPC   H4Y22927   0.448   3.270   3.924 -0.9241  0.6050  0.7774
  186DOPC   C3522928   0.440   3.463   4.032 -0.0943  0.1390 -0.8325
  186DOPC   H5X22929   0.335   3.476   3.999 -0.2669 -0.3134 -0.4741
  186DOPC   H5Y22930   0.497   3.558   4.022 -0.5506  0.2472 -2.6952
  186DOPC   C3622931   0.448   3.405   4.176 -0.4528 -0.8173 -1.7041
  186DOPC   H6X22932   0.449   3.294   4.177 -1.0893 -0.8757  1.2446
  186DOPC   H6Y22933   0.546   3.441   4.214 -0.7631 -0.5535 -1.1325
  186DOPC   C3722934   0.336   3.454   4.264  0.3460  0.4142  0.6638
  186DOPC   H7X22935   0.326   3.562   4.241 -0.8663  0.1874  0.0290
  186DOPC   H7Y22936   0.247   3.390   4.245  0.4203  0.3569  0.5105
  186DOPC   C3822937   0.372   3.435   4.411 -0.3192 -0.4418  0.1181
  186DOPC   H8X22938   0.471   3.482   4.428 -0.9575  1.6275 -1.4714
  186DOPC   H8Y22939   0.373   3.326   4.435 -0.1834 -0.2905  0.8006
  186DOPC   C3922940   0.298   3.512   4.513 -0.1965  0.5647 -0.0285
  186DOPC   H9X22941   0.341   3.610   4.538  0.0407  1.0174 -2.0362
  186DOPC  C31022942   0.208   3.461   4.598  0.5263  0.0474 -0.3343
  186DOPC  H10X22943   0.164   3.533   4.668  1.0376 -0.1419  0.1835
  186DOPC  C31122944   0.151   3.325   4.601  0.1429 -0.2494  1.0881
  186DOPC  H11X22945   0.222   3.250   4.642  0.4795 -0.5214  0.0546
  186DOPC  H11Y22946   0.126   3.288   4.499  1.2599  0.2970  0.5943
  186DOPC  C31222947   0.028   3.315   4.693 -0.2351  0.5993  0.4105
  186DOPC  H12X22948  -0.008   3.210   4.684 -1.4438  0.8502  1.8521
  186DOPC  H12Y22949  -0.053   3.386   4.663  1.1129  1.8083 -0.5320
  186DOPC  C31322950   0.059   3.345   4.842  0.2883 -0.6162  0.7752
  186DOPC  H13X22951   0.097   3.257   4.899 -0.8522 -1.6866 -0.0616
  186DOPC  H13Y22952   0.140   3.418   4.860 -0.0150 -0.3762  1.1788
  186DOPC  C31422953  -0.069   3.389   4.923 -0.1958 -0.0869 -0.3565
  186DOPC  H14X22954  -0.094   3.491   4.888 -1.9029 -0.4009 -0.1444
  186DOPC  H14Y22955  -0.158   3.325   4.905 -2.1541  1.7788  2.0010
  186DOPC  C31522956  -0.043   3.383   5.071  0.5914  0.3127 -0.4183
  186DOPC  H15X22957  -0.004   3.288   5.115  2.6487  1.5578  0.6021
  186DOPC  H15Y22958  -0.139   3.401   5.124  0.8795 -0.5637  0.4315
  186DOPC  C31622959   0.046   3.493   5.120 -0.3687  0.3632 -0.1703
  186DOPC  H16X22960   0.152   3.469   5.096 -0.8248 -0.8168 -1.1148
  186DOPC  H16Y22961   0.034   3.576   5.046  0.5695 -0.1049 -0.8783
  186DOPC  C31722962   0.027   3.544   5.264  0.0716 -0.0262 -0.5533
  186DOPC  H17X22963   0.059   3.649   5.284 -0.7818 -0.2688  2.6693
  186DOPC  H17Y22964  -0.084   3.536   5.273  0.1426 -0.9805 -0.4220
  186DOPC  C31822965   0.084   3.457   5.371  0.2254  0.5726 -0.2139
  186DOPC  H18X22966   0.042   3.354   5.365  2.7493 -0.5942  0.8588
  186DOPC  H18Y22967   0.193   3.454   5.354  0.3061  1.8519 -0.0397
  186DOPC  H18Z22968   0.074   3.496   5.475 -0.7396  1.3656 -0.5837
  187DOPC     N22969   5.927   1.035   2.090  0.5095 -1.0197 -0.1863
  187DOPC   C1222970   5.895   1.165   2.154 -0.2139 -0.3830 -0.0277
  187DOPC  H12A22971   5.789   1.165   2.176 -0.4712  1.2681 -1.1254
  187DOPC  H12B22972   5.902   1.249   2.086  0.8596 -0.0189  0.5024
  187DOPC   C1322973   5.955   0.928   2.188 -0.2393  0.6593  0.0948
  187DOPC  H13A22974   5.881   0.911   2.265  0.2799  3.6779  1.3563
  187DOPC  H13B22975   5.973   0.842   2.124  2.0171  0.6495  0.6750
  187DOPC  H13C22976   6.047   0.950   2.238 -0.5965 -0.6560  1.3863
  187DOPC   C1422977   6.045   1.059   1.997  0.5376  0.2349  0.4706
  187DOPC  H14A22978   6.091   0.966   1.968  0.8287  0.3689  0.5038
  187DOPC  H14B22979   6.014   1.117   1.911 -0.5014 -1.6377 -0.4814
  187DOPC  H14C22980   6.124   1.109   2.051  0.4741 -1.7579  2.5632
  187DOPC   C1522981   5.808   0.993   2.009  0.3484  0.3779  0.0628
  187DOPC  H15A22982   5.832   0.912   1.942 -0.2343 -0.1375  0.4725
  187DOPC  H15B22983   5.767   1.069   1.944 -0.0109 -0.4440 -0.6967
  187DOPC  H15C22984   5.724   0.971   2.072 -2.3549  0.6052 -3.1942
  187DOPC   C1122985   5.966   1.218   2.278 -0.2739  0.1139  0.4593
  187DOPC  H11A22986   5.910   1.306   2.316  4.0102  3.9680 -1.1650
  187DOPC  H11B22987   5.982   1.149   2.364  0.0286 -1.5308 -0.8616
  187DOPC     P22988   6.129   1.400   2.189  0.6037  0.1870  0.1255
  187DOPC   O1322989   6.088   1.410   2.047 -0.3183  0.1144 -0.3303
  187DOPC   O1422990   6.265   1.437   2.223  0.2726 -0.3533 -0.0908
  187DOPC   O1222991   6.095   1.258   2.230 -0.7129  0.7664  0.0967
  187DOPC   O1122992   6.033   1.484   2.274  0.1977  0.3464  0.2652
  187DOPC    C122993   6.070   1.549   2.404 -0.0665  0.2583  0.4546
  187DOPC    HA22994   6.015   1.642   2.430 -0.3941 -0.0174  0.7497
  187DOPC    HB22995   6.175   1.585   2.403  0.7200 -1.8913 -0.2786
  187DOPC    C222996   6.071   1.445   2.522 -0.0175  0.2144  0.1512
  187DOPC    HS22997   6.118   1.351   2.485 -1.7361 -0.4407 -0.4551
  187DOPC   O2122998   5.932   1.433   2.570 -0.4029 -0.2461  0.0033
  187DOPC   C2122999   5.898   1.315   2.625  0.1930 -0.2740 -0.0593
  187DOPC   O2223000   5.966   1.217   2.633  0.0818  0.7642 -0.2434
  187DOPC   C2223001   5.756   1.325   2.683 -0.5665  0.2252  0.5399
  187DOPC   H2R23002   5.729   1.224   2.721 -1.3131  0.1517 -0.1390
  187DOPC   H2S23003   5.679   1.351   2.607 -2.2361 -0.9776  1.7340
  187DOPC    C323004   6.160   1.491   2.648  0.1273  0.8778  0.2281
  187DOPC    HX23005   6.121   1.592   2.672  1.8000  1.8199 -0.8935
  187DOPC    HY23006   6.265   1.500   2.615  0.1984  3.7734  0.9571
  187DOPC   O3123007   6.150   1.395   2.761 -0.1959  0.4431 -0.2008
  187DOPC   C3123008   6.229   1.277   2.745  0.7846 -0.6863 -0.2571
  187DOPC   O3223009   6.296   1.250   2.649  0.2249 -0.3789 -0.6137
  187DOPC   C3223010   6.212   1.200   2.874  0.1809  0.0937  0.6769
  187DOPC   H2X23011   6.104   1.197   2.898  0.3491 -3.0672  1.4564
  187DOPC   H2Y23012   6.235   1.095   2.848 -0.7968 -0.5478  2.3079
  187DOPC   C2323013   5.730   1.419   2.807 -0.2847  0.5645  0.3021
  187DOPC   H3R23014   5.628   1.393   2.843  0.3772 -0.5651  1.4679
  187DOPC   H3S23015   5.736   1.523   2.770  0.1490  0.2307 -0.5805
  187DOPC   C2423016   5.830   1.408   2.928  0.1013  0.2170  0.4205
  187DOPC   H4R23017   5.926   1.434   2.877  0.1080  0.5821  0.6114
  187DOPC   H4S23018   5.825   1.304   2.966 -3.4985  0.3036  0.5001
  187DOPC   C2523019   5.813   1.497   3.048 -0.1396  0.1853 -0.4495
  187DOPC   H5R23020   5.787   1.599   3.014  1.1518  0.9977  0.8855
  187DOPC   H5S23021   5.897   1.495   3.121  0.9231 -2.1444 -1.6285
  187DOPC   C2623022   5.699   1.437   3.136 -0.5940 -0.4707  1.0267
  187DOPC   H6R23023   5.741   1.352   3.195  0.6639 -1.3350 -1.0080
  187DOPC   H6S23024   5.630   1.388   3.064 -1.0004 -0.2423  1.2585
  187DOPC   C2723025   5.631   1.549   3.216  0.0483 -0.4389 -0.1400
  187DOPC   H7R23026   5.547   1.506   3.276 -1.2418 -0.1950 -1.7057
  187DOPC   H7S23027   5.582   1.622   3.148 -1.0262 -0.1199  0.9367
  187DOPC   C2823028   5.727   1.616   3.323 -0.8172 -0.0182 -0.0194
  187DOPC   H8R23029   5.652   1.666   3.389 -0.8638  0.7131 -0.6134
  187DOPC   H8S23030   5.783   1.697   3.272  1.4871 -2.1587 -1.0730
  187DOPC   C2923031   5.824   1.534   3.410 -0.3359  0.6032  0.2429
  187DOPC   H9R23032   5.897   1.474   3.353 -2.0499 -0.6714 -0.7150
  187DOPC  C21023033   5.824   1.521   3.545  0.1881 -1.0636  0.7728
  187DOPC  H10R23034   5.894   1.448   3.589 -0.1511  0.5215  4.2303
  187DOPC  C21123035   5.732   1.582   3.636  0.5021  0.5653 -0.3694
  187DOPC  H11R23036   5.729   1.531   3.735  0.2310  1.1641 -0.0646
  187DOPC  H11S23037   5.632   1.572   3.588  1.3819  1.1548 -2.4269
  187DOPC  C21223038   5.761   1.725   3.664 -0.1026  0.1132 -0.6266
  187DOPC  H12R23039   5.759   1.774   3.564 -0.9631  1.4944  0.0372
  187DOPC  H12S23040   5.860   1.735   3.712 -1.2245  0.9738  1.6867
  187DOPC  C21323041   5.656   1.781   3.760  0.6333  0.0273 -0.3716
  187DOPC  H13R23042   5.556   1.755   3.717  1.0497  0.7338 -1.8375
  187DOPC  H13S23043   5.647   1.892   3.762 -0.2092  0.0263 -2.1823
  187DOPC  C21423044   5.660   1.736   3.901 -0.1272 -0.0326 -0.5350
  187DOPC  H14R23045   5.698   1.632   3.906 -2.5239 -0.9398  0.5145
  187DOPC  H14S23046   5.560   1.727   3.949  0.3724 -1.5216  0.2998
  187DOPC  C21523047   5.733   1.834   3.990 -0.1953  0.1131 -0.8117
  187DOPC  H15R23048   5.681   1.932   3.983 -2.6934 -0.9575  1.0459
  187DOPC  H15S23049   5.838   1.843   3.954  0.8145 -1.9558  1.2962
  187DOPC  C21623050   5.726   1.793   4.140 -0.7815 -0.0246 -0.8408
  187DOPC  H16R23051   5.734   1.684   4.156 -2.7252 -0.2269 -1.0412
  187DOPC  H16S23052   5.622   1.815   4.170 -1.9127 -4.8311 -0.4271
  187DOPC  C21723053   5.840   1.865   4.218  1.0570 -0.2588 -1.0542
  187DOPC  H17R23054   5.841   1.971   4.183 -0.8205 -0.0142 -0.4984
  187DOPC  H17S23055   5.936   1.813   4.197  0.5376 -1.4825 -0.4612
  187DOPC  C21823056   5.823   1.865   4.371 -0.0884 -0.6337 -0.8068
  187DOPC  H18R23057   5.900   1.926   4.423 -2.1100  0.4387  1.0566
  187DOPC  H18S23058   5.824   1.760   4.407 -1.7210 -0.6549 -0.7550
  187DOPC  H18T23059   5.727   1.911   4.401  1.3817  2.4980 -0.5642
  187DOPC   C3323060   6.292   1.246   2.997  0.1264 -0.3817 -0.3984
  187DOPC   H3X23061   6.396   1.271   2.969 -0.5348  0.8730 -1.8807
  187DOPC   H3Y23062   6.311   1.156   3.060  1.4334  1.1051  1.4472
  187DOPC   C3423063   6.225   1.355   3.084  0.0546  0.2464  0.4224
  187DOPC   H4X23064   6.119   1.331   3.103 -0.0668  0.1411 -0.3727
  187DOPC   H4Y23065   6.223   1.454   3.032  1.5964  0.5218  0.8333
  187DOPC   C3523066   6.306   1.374   3.217  0.0670  0.6744 -0.0851
  187DOPC   H5X23067   6.400   1.428   3.195  1.2035 -1.4860 -0.7913
  187DOPC   H5Y23068   6.327   1.272   3.254 -0.5043  0.2111 -1.0155
  187DOPC   C3623069   6.232   1.459   3.325  0.0123  0.5105  0.3297
  187DOPC   H6X23070   6.212   1.557   3.277 -1.6505  0.4132  0.7715
  187DOPC   H6Y23071   6.137   1.403   3.333 -0.2092  0.8595  0.1713
  187DOPC   C3723072   6.308   1.461   3.453  0.4239 -0.4620 -0.6497
  187DOPC   H7X23073   6.326   1.356   3.485  0.9364 -0.6179 -1.4224
  187DOPC   H7Y23074   6.407   1.506   3.431  1.2126 -1.6280  0.3894
  187DOPC   C3823075   6.243   1.551   3.556 -0.5096 -0.0446  0.2455
  187DOPC   H8X23076   6.134   1.531   3.547 -0.3918  0.1090 -1.9240
  187DOPC   H8Y23077   6.256   1.655   3.520  1.0873 -1.2072 -2.8549
  187DOPC   C3923078   6.310   1.532   3.685  0.0222 -0.8465 -0.0353
  187DOPC   H9X23079   6.410   1.485   3.677 -0.6723 -2.7647  1.5896
  187DOPC  C31023080   6.262   1.573   3.801 -0.5648 -0.0065  0.0532
  187DOPC  H10X23081   6.330   1.556   3.887  1.6027 -1.6095 -1.8504
  187DOPC  C31123082   6.130   1.643   3.825 -0.0492 -0.4345 -0.9529
  187DOPC  H11X23083   6.070   1.647   3.732 -1.1630  1.7087 -0.1987
  187DOPC  H11Y23084   6.142   1.750   3.851 -2.7537 -0.4186  0.5963
  187DOPC  C31223085   6.036   1.587   3.937  0.2574 -0.0506 -0.1272
  187DOPC  H12X23086   5.998   1.485   3.919 -1.0049  0.3369  0.2215
  187DOPC  H12Y23087   5.951   1.658   3.930 -0.9074 -1.6093 -4.3510
  187DOPC  C31323088   6.109   1.584   4.069 -0.3414  0.1673 -0.2059
  187DOPC  H13X23089   6.219   1.578   4.061 -0.2424  1.3777  0.1839
  187DOPC  H13Y23090   6.093   1.676   4.129  0.8750 -0.6502  1.4355
  187DOPC  C31423091   6.060   1.466   4.157 -0.0524  0.5581  0.2718
  187DOPC  H14X23092   5.957   1.503   4.174  0.0887  0.7507  0.7060
  187DOPC  H14Y23093   6.059   1.371   4.099 -1.8415  2.2820 -2.8215
  187DOPC  C31523094   6.136   1.449   4.294  0.0876  0.2114  0.3420
  187DOPC  H15X23095   6.243   1.465   4.269  0.0694  2.7285  1.5331
  187DOPC  H15Y23096   6.110   1.346   4.325 -2.6653  1.0967  1.3560
  187DOPC  C31623097   6.097   1.554   4.404  0.1307  0.5128 -0.4550
  187DOPC  H16X23098   6.125   1.653   4.362  1.5757  0.1826 -0.3075
  187DOPC  H16Y23099   5.987   1.570   4.409 -0.1936 -1.5671 -0.1082
  187DOPC  C31723100   6.162   1.534   4.548  0.4583  0.6269 -0.0444
  187DOPC  H17X23101   6.119   1.444   4.596  2.8676 -2.6358 -3.4131
  187DOPC  H17Y23102   6.267   1.504   4.529  0.7944  2.8198 -2.0770
  187DOPC  C31823103   6.162   1.658   4.635 -0.0261 -0.7563  0.2829
  187DOPC  H18X23104   6.200   1.644   4.738  2.6174  2.1618 -0.1252
  187DOPC  H18Y23105   6.204   1.746   4.581 -1.2740  0.8974  1.8668
  187DOPC  H18Z23106   6.053   1.681   4.639  0.0106  0.2523 -2.2313
  188DOPC     N23107   1.512   0.848   2.544 -0.0864  0.4042 -0.1111
  188DOPC   C1223108   1.609   0.940   2.610  0.1181  0.0325 -0.2992
  188DOPC  H12A23109   1.670   0.998   2.542  1.1223  0.8685  1.2505
  188DOPC  H12B23110   1.678   0.874   2.659 -1.7568 -1.1734  0.8357
  188DOPC   C1323111   1.399   0.916   2.473 -0.4380  0.1922 -0.2848
  188DOPC  H13A23112   1.345   0.851   2.406  1.2282 -0.7573 -0.7592
  188DOPC  H13B23113   1.326   0.964   2.536 -2.7770 -1.3328 -1.6604
  188DOPC  H13C23114   1.437   0.991   2.406  1.7709  0.8288  1.5284
  188DOPC   C1423115   1.462   0.755   2.645 -0.0100  0.1328 -0.4128
  188DOPC  H14A23116   1.375   0.784   2.701 -0.1463  1.0881 -1.0917
  188DOPC  H14B23117   1.433   0.668   2.588 -0.8531  0.4702 -0.5141
  188DOPC  H14C23118   1.542   0.733   2.714  0.5933  2.3644 -0.2997
  188DOPC   C1523119   1.591   0.761   2.445 -0.0219 -0.5507  0.1291
  188DOPC  H15A23120   1.644   0.828   2.380 -0.8032 -1.1856 -1.2038
  188DOPC  H15B23121   1.532   0.700   2.378 -0.0390 -0.5313  0.1264
  188DOPC  H15C23122   1.669   0.707   2.496  0.5181  0.1340  0.0372
  188DOPC   C1123123   1.542   1.043   2.707 -0.8338 -0.1411 -0.2121
  188DOPC  H11A23124   1.463   0.992   2.767  0.1372  0.1946  1.4363
  188DOPC  H11B23125   1.628   1.071   2.773 -0.1621  1.1965 -1.5951
  188DOPC     P23126   1.562   1.288   2.613 -0.1750 -0.5103  0.4193
  188DOPC   O1323127   1.485   1.364   2.507 -0.1669  0.6873  0.4005
  188DOPC   O1423128   1.701   1.248   2.586 -0.2136 -0.1712  0.3900
  188DOPC   O1223129   1.478   1.156   2.645 -0.3222  0.1361 -0.1705
  188DOPC   O1123130   1.557   1.372   2.752 -0.1112 -0.0807  0.2976
  188DOPC    C123131   1.428   1.413   2.798  0.0164  0.4373  0.4150
  188DOPC    HA23132   1.340   1.372   2.744 -0.9413  2.6695  0.1839
  188DOPC    HB23133   1.414   1.523   2.789  0.8253  0.5712  0.7000
  188DOPC    C223134   1.410   1.382   2.951 -0.1304  0.4162  1.0016
  188DOPC    HS23135   1.306   1.405   2.979 -0.0118  0.3549  1.4950
  188DOPC   O2123136   1.506   1.445   3.032 -0.1676 -0.1100  0.2014
  188DOPC   C2123137   1.469   1.560   3.097 -0.0665 -0.7090 -0.2198
  188DOPC   O2223138   1.363   1.614   3.083  0.0174 -0.4134 -0.1049
  188DOPC   C2223139   1.579   1.604   3.189 -0.7607  0.0847  0.0464
  188DOPC   H2R23140   1.659   1.640   3.122 -1.2674 -1.8179 -1.6832
  188DOPC   H2S23141   1.628   1.518   3.239 -0.5397  0.4849  0.5380
  188DOPC    C323142   1.415   1.224   2.966 -0.2815 -0.0107 -0.4367
  188DOPC    HX23143   1.519   1.201   2.934  0.0717  1.3075 -0.3017
  188DOPC    HY23144   1.334   1.183   2.902  0.0688  0.5468 -1.2618
  188DOPC   O3123145   1.396   1.196   3.105 -0.6655 -0.7725  0.2595
  188DOPC   C3123146   1.442   1.074   3.139  0.8343 -0.2988  0.1362
  188DOPC   O3223147   1.495   0.992   3.070  0.1979 -0.2417  0.5825
  188DOPC   C3223148   1.411   1.057   3.286 -0.4110  0.1931 -0.1309
  188DOPC   H2X23149   1.440   1.147   3.344 -0.1650 -0.4883  0.8257
  188DOPC   H2Y23150   1.301   1.066   3.300 -0.3312  1.6644 -0.3236
  188DOPC   C2323151   1.544   1.704   3.300 -0.8932 -0.2994 -0.1380
  188DOPC   H3R23152   1.485   1.792   3.267 -0.3694 -0.5986 -1.9651
  188DOPC   H3S23153   1.640   1.735   3.347 -0.5522  0.6573 -1.4109
  188DOPC   C2423154   1.462   1.642   3.410 -0.7475  0.1428  0.3253
  188DOPC   H4R23155   1.488   1.535   3.420 -0.6044  0.1372 -0.0958
  188DOPC   H4S23156   1.354   1.650   3.384 -0.6722 -0.9677 -0.3969
  188DOPC   C2523157   1.484   1.702   3.556 -0.4709  0.1820 -0.3715
  188DOPC   H5R23158   1.464   1.811   3.552  2.3882  0.7771 -1.2443
  188DOPC   H5S23159   1.592   1.698   3.582 -0.3185 -1.6155 -1.1195
  188DOPC   C2623160   1.402   1.628   3.654 -0.6917  0.1922  0.0977
  188DOPC   H6R23161   1.441   1.524   3.651  0.1622  0.4626 -3.9583
  188DOPC   H6S23162   1.296   1.634   3.622 -1.0555 -1.4173  0.8584
  188DOPC   C2723163   1.409   1.697   3.790  0.0611 -0.5562 -0.2075
  188DOPC   H7R23164   1.409   1.806   3.769 -1.7614 -0.3689  0.5278
  188DOPC   H7S23165   1.511   1.665   3.819 -0.0433 -2.0216 -1.3503
  188DOPC   C2823166   1.300   1.654   3.892  0.1293 -0.5489  0.0732
  188DOPC   H8R23167   1.308   1.547   3.921  0.0474 -0.3902  0.7152
  188DOPC   H8S23168   1.203   1.681   3.846 -0.2279  2.6362  2.3661
  188DOPC   C2923169   1.336   1.738   4.017 -1.0378 -0.0470  0.1940
  188DOPC   H9R23170   1.368   1.839   3.990  2.0832 -1.2604 -1.0343
  188DOPC  C21023171   1.336   1.699   4.143  0.6547 -0.4545 -0.1329
  188DOPC  H10R23172   1.385   1.769   4.212 -0.5371 -0.6013  0.8986
  188DOPC  C21123173   1.289   1.560   4.198  0.3567 -0.3916 -0.3622
  188DOPC  H11R23174   1.364   1.523   4.271  1.3329 -0.1654 -1.2261
  188DOPC  H11S23175   1.288   1.487   4.114 -1.0358  0.1024 -0.8131
  188DOPC  C21223176   1.154   1.578   4.275 -0.0081  0.5480  0.5579
  188DOPC  H12R23177   1.121   1.479   4.315 -0.3070  0.1909 -0.5319
  188DOPC  H12S23178   1.070   1.606   4.207  0.2007 -1.0113 -0.3902
  188DOPC  C21323179   1.154   1.675   4.393 -0.7233  0.0503 -0.8757
  188DOPC  H13R23180   1.053   1.687   4.438 -0.7242 -0.3983 -0.7539
  188DOPC  H13S23181   1.174   1.780   4.361  1.0221 -0.2976 -0.9881
  188DOPC  C21423182   1.270   1.647   4.489 -0.2338  0.1844  0.4604
  188DOPC  H14R23183   1.372   1.633   4.447 -0.6586 -2.2519  0.0567
  188DOPC  H14S23184   1.244   1.549   4.536  0.5949  1.3848  3.6935
  188DOPC  C21523185   1.270   1.743   4.613  0.3725 -0.2420  0.2021
  188DOPC  H15R23186   1.341   1.698   4.685 -0.8529 -0.1051  1.5450
  188DOPC  H15S23187   1.171   1.741   4.664 -0.4394 -0.4386 -1.2900
  188DOPC  C21623188   1.317   1.888   4.580 -0.2950 -0.1893  0.7897
  188DOPC  H16R23189   1.273   1.928   4.486 -0.2960 -3.6165 -0.7952
  188DOPC  H16S23190   1.427   1.885   4.568 -0.5499 -2.8546 -1.9850
  188DOPC  C21723191   1.286   1.989   4.697 -0.5309  0.6560 -0.0594
  188DOPC  H17R23192   1.338   1.939   4.781 -3.9633 -1.5735  0.9725
  188DOPC  H17S23193   1.176   1.978   4.706 -0.6089  0.0661 -1.3939
  188DOPC  C21823194   1.337   2.135   4.679 -0.1242 -0.0780  0.5956
  188DOPC  H18R23195   1.444   2.123   4.652 -0.5949 -0.9233 -1.0670
  188DOPC  H18S23196   1.323   2.199   4.769  0.2048  0.5963  0.1719
  188DOPC  H18T23197   1.286   2.193   4.599 -0.4245 -0.0542  0.7995
  188DOPC   C3323198   1.457   0.924   3.344  0.2096  0.5212  0.2559
  188DOPC   H3X23199   1.563   0.911   3.315 -0.1856  0.2287 -1.1087
  188DOPC   H3Y23200   1.404   0.843   3.289 -0.8834  0.0873  1.8726
  188DOPC   C3423201   1.428   0.913   3.495  0.3950  0.2270 -0.4569
  188DOPC   H4X23202   1.434   0.804   3.515  2.3987  0.4400  0.2260
  188DOPC   H4Y23203   1.326   0.949   3.524 -0.1199 -2.8013  2.0248
  188DOPC   C3523204   1.536   0.971   3.585 -0.0676  0.7836 -0.2295
  188DOPC   H5X23205   1.517   1.080   3.585 -2.0660  0.4698 -0.2579
  188DOPC   H5Y23206   1.636   0.955   3.540  0.0406 -2.6329  0.9642
  188DOPC   C3623207   1.518   0.904   3.721  0.2833 -1.0069 -0.1396
  188DOPC   H6X23208   1.417   0.926   3.762  0.7213  1.5879 -0.2684
  188DOPC   H6Y23209   1.521   0.793   3.720 -0.3048 -1.0299 -1.7598
  188DOPC   C3723210   1.611   0.957   3.827 -0.1451  0.2762 -0.0783
  188DOPC   H7X23211   1.611   1.068   3.832 -0.7526  0.3451 -1.2145
  188DOPC   H7Y23212   1.567   0.926   3.924 -2.4050 -0.4214 -1.2366
  188DOPC   C3823213   1.753   0.912   3.809 -0.0618 -0.3838  0.1304
  188DOPC   H8X23214   1.820   0.971   3.875  1.3022  0.1292 -1.6296
  188DOPC   H8Y23215   1.791   0.938   3.708 -1.6585 -1.8340 -0.9064
  188DOPC   C3923216   1.766   0.761   3.820 -0.0962 -0.4993  0.3216
  188DOPC   H9X23217   1.705   0.697   3.755 -1.4199  0.7294  0.3161
  188DOPC  C31023218   1.852   0.690   3.896 -0.0767  0.4407  0.8460
  188DOPC  H10X23219   1.853   0.583   3.873 -2.3959  0.6579 -0.6028
  188DOPC  C31123220   1.951   0.741   4.001 -0.4560 -0.4521 -0.0824
  188DOPC  H11X23221   1.918   0.820   4.072 -0.3270 -0.3767 -0.1053
  188DOPC  H11Y23222   2.036   0.778   3.940 -0.4671 -1.1708 -0.5381
  188DOPC  C31223223   1.999   0.625   4.094 -0.2514 -0.5402 -0.1832
  188DOPC  H12X23224   2.068   0.562   4.033  0.9076  1.5343 -1.1180
  188DOPC  H12Y23225   1.910   0.563   4.119 -0.9767  0.8803  0.9336
  188DOPC  C31323226   2.057   0.687   4.221 -0.6910 -0.2895 -0.4342
  188DOPC  H13X23227   2.103   0.782   4.189 -0.1966 -0.7835 -1.2200
  188DOPC  H13Y23228   1.970   0.713   4.285 -0.2500 -0.6380  0.3169
  188DOPC  C31423229   2.143   0.583   4.294 -0.3083 -0.1714 -0.1912
  188DOPC  H14X23230   2.071   0.498   4.304 -1.0904  0.6223  1.2225
  188DOPC  H14Y23231   2.235   0.555   4.239 -0.4279  1.2256 -1.1507
  188DOPC  C31523232   2.216   0.626   4.426  0.7918 -0.0640  0.5473
  188DOPC  H15X23233   2.132   0.660   4.491  0.4473 -0.8314  0.5180
  188DOPC  H15Y23234   2.278   0.710   4.389  1.0500 -0.4068  0.1915
  188DOPC  C31623235   2.286   0.506   4.495  0.2472 -0.1989  0.3616
  188DOPC  H16X23236   2.343   0.451   4.417 -1.7507 -2.6133  0.4827
  188DOPC  H16Y23237   2.353   0.538   4.577 -0.4809 -1.5902  1.5594
  188DOPC  C31723238   2.169   0.414   4.552 -0.3646  0.2406  0.0163
  188DOPC  H17X23239   2.102   0.469   4.622  0.6571  0.5343  0.7967
  188DOPC  H17Y23240   2.095   0.387   4.475 -1.5030 -0.2504  1.2410
  188DOPC  C31823241   2.220   0.281   4.618  0.1958  0.3288 -0.9036
  188DOPC  H18X23242   2.135   0.215   4.641  1.2545 -0.1824  1.8955
  188DOPC  H18Y23243   2.289   0.224   4.551 -0.2863 -1.0195 -0.2837
  188DOPC  H18Z23244   2.271   0.297   4.715 -2.2302  0.0443  0.4722
  189DOPC     N23245   3.788   0.999   2.240  0.1440 -0.2946 -0.3830
  189DOPC   C1223246   3.821   0.848   2.225  0.0885 -0.8680  0.8686
  189DOPC  H12A23247   3.806   0.809   2.126  1.8565  1.6662 -0.5083
  189DOPC  H12B23248   3.749   0.794   2.285 -2.6829  1.6753  0.1071
  189DOPC   C1323249   3.662   1.030   2.161 -0.3347  0.2559  0.1772
  189DOPC  H13A23250   3.695   1.024   2.059  0.0461  3.0936  0.0725
  189DOPC  H13B23251   3.583   0.961   2.190  1.0639 -1.2602  0.5307
  189DOPC  H13C23252   3.641   1.135   2.178 -1.4457 -0.1101  1.2654
  189DOPC   C1423253   3.909   1.076   2.193  0.1449  0.3886  0.7395
  189DOPC  H14A23254   3.946   1.024   2.106 -0.1666  0.6462  0.4530
  189DOPC  H14B23255   3.879   1.177   2.169 -0.4057  0.7209  2.6655
  189DOPC  H14C23256   3.983   1.081   2.271 -0.8705 -2.3128  2.0369
  189DOPC   C1523257   3.752   1.043   2.377  0.1255 -0.0797 -0.1616
  189DOPC  H15A23258   3.663   0.990   2.408 -0.8908  1.2741 -0.6797
  189DOPC  H15B23259   3.716   1.144   2.369 -2.2607 -0.9383 -1.9729
  189DOPC  H15C23260   3.831   1.037   2.449  1.2364  1.1009 -1.2367
  189DOPC   C1123261   3.963   0.802   2.274 -0.5165 -0.2044  0.0691
  189DOPC  H11A23262   4.039   0.827   2.197  1.1908  1.4149  2.1421
  189DOPC  H11B23263   3.986   0.856   2.369 -0.2360  1.0345 -0.6815
  189DOPC     P23264   4.063   0.590   2.393  0.2760  0.5460 -0.4840
  189DOPC   O1323265   4.201   0.621   2.344  0.7793  0.2751 -0.2431
  189DOPC   O1423266   4.025   0.450   2.397  0.5391 -0.0067  0.0732
  189DOPC   O1223267   3.960   0.663   2.291 -0.1100  0.4494 -0.7927
  189DOPC   O1123268   4.034   0.650   2.532  0.0467 -0.0736  0.3017
  189DOPC    C123269   3.898   0.670   2.577 -0.2230 -0.5957 -0.0899
  189DOPC    HA23270   3.834   0.583   2.550  0.9585 -1.8618  1.0843
  189DOPC    HB23271   3.852   0.765   2.541  1.7291  0.7384  0.7720
  189DOPC    C223272   3.888   0.675   2.733 -0.6766 -0.6141  0.3117
  189DOPC    HS23273   3.782   0.688   2.764 -0.3468  1.7868  0.6444
  189DOPC   O2123274   3.957   0.786   2.782 -0.7806  0.5260 -0.0854
  189DOPC   C2123275   3.902   0.909   2.779  1.0409  0.0761 -0.2330
  189DOPC   O2223276   3.797   0.939   2.731 -0.0512  0.6347  0.1497
  189DOPC   C2223277   3.994   1.002   2.854 -0.1692  0.0373  0.2883
  189DOPC   H2R23278   3.980   1.105   2.815  0.1652 -0.6763 -1.8202
  189DOPC   H2S23279   4.099   0.966   2.853  0.4378  1.0271  4.7897
  189DOPC    C323280   3.945   0.541   2.794 -0.0214 -0.9182  0.3499
  189DOPC    HX23281   4.052   0.529   2.768  0.0589 -1.5255  0.9466
  189DOPC    HY23282   3.893   0.461   2.737  0.6454 -0.8521 -0.3598
  189DOPC   O3123283   3.913   0.537   2.935  0.4755 -0.3499 -0.3738
  189DOPC   C3123284   3.956   0.418   2.984  0.0341  0.0691 -0.3224
  189DOPC   O3223285   3.989   0.329   2.913  0.5549 -0.2110 -0.5923
  189DOPC   C3223286   3.958   0.421   3.140 -0.1415  0.5948 -0.0913
  189DOPC   H2X23287   4.018   0.512   3.161 -2.9618  3.1621 -2.2952
  189DOPC   H2Y23288   3.851   0.429   3.167  0.0791  2.4902  0.3810
  189DOPC   C2323289   3.968   1.005   3.010  0.0791 -0.0919 -0.1910
  189DOPC   H3R23290   3.870   1.042   3.047  1.2630  0.9109  2.1543
  189DOPC   H3S23291   4.031   1.088   3.050  0.2830  0.3484 -1.3641
  189DOPC   C2423292   4.016   0.878   3.093 -0.1436  0.5904  0.2057
  189DOPC   H4R23293   3.968   0.783   3.062  2.4697 -0.9016  0.4425
  189DOPC   H4S23294   4.010   0.892   3.203  1.9038  0.7234  0.3469
  189DOPC   C2523295   4.168   0.863   3.091 -0.2780  0.1493 -0.4157
  189DOPC   H5R23296   4.227   0.956   3.103 -0.3795  0.3816 -1.5999
  189DOPC   H5S23297   4.200   0.818   2.995  2.1271 -1.3270  0.9659
  189DOPC   C2623298   4.224   0.757   3.192  0.0680  0.0895  0.3825
  189DOPC   H6R23299   4.312   0.703   3.151  0.1656  0.9175 -0.5226
  189DOPC   H6S23300   4.149   0.677   3.209  1.1188 -1.0671 -0.2689
  189DOPC   C2723301   4.255   0.828   3.333  0.6460 -0.4941  0.4707
  189DOPC   H7R23302   4.160   0.872   3.372  2.0013  1.6588  1.5430
  189DOPC   H7S23303   4.328   0.910   3.313  2.9137 -2.5771 -0.3303
  189DOPC   C2823304   4.325   0.738   3.438  0.1253 -0.3266  0.4000
  189DOPC   H8R23305   4.336   0.806   3.525 -1.7290  0.1318  0.3229
  189DOPC   H8S23306   4.426   0.705   3.408 -0.4830 -3.2090  1.2094
  189DOPC   C2923307   4.241   0.615   3.466  0.1632  0.3244  0.1126
  189DOPC   H9R23308   4.191   0.569   3.380 -0.7061 -0.4730  1.0123
  189DOPC  C21023309   4.221   0.551   3.585 -0.2813 -0.4246  0.3089
  189DOPC  H10R23310   4.162   0.459   3.578 -3.7679  1.7440 -1.6675
  189DOPC  C21123311   4.285   0.596   3.720 -0.2216  0.0490 -0.2110
  189DOPC  H11R23312   4.277   0.706   3.731 -2.1498 -0.2237  1.9819
  189DOPC  H11S23313   4.389   0.563   3.738 -0.2190  0.4919  0.6002
  189DOPC  C21223314   4.190   0.532   3.828  0.0170  0.0422  0.3705
  189DOPC  H12R23315   4.225   0.426   3.836 -1.8087 -0.5836  0.4153
  189DOPC  H12S23316   4.081   0.533   3.809 -0.1292 -1.0422  1.0477
  189DOPC  C21323317   4.231   0.598   3.958  0.4056  0.2650 -0.1891
  189DOPC  H13R23318   4.171   0.692   3.958 -0.0515 -0.0214  0.2139
  189DOPC  H13S23319   4.339   0.627   3.956  0.3814  0.3292 -0.7233
  189DOPC  C21423320   4.184   0.523   4.096 -0.3138 -0.4106  0.4040
  189DOPC  H14R23321   4.212   0.416   4.097 -2.1675 -0.9264  0.9029
  189DOPC  H14S23322   4.073   0.525   4.100 -0.2815  1.7189  2.5457
  189DOPC  C21523323   4.231   0.588   4.230  0.4042  0.2055 -0.1799
  189DOPC  H15R23324   4.221   0.698   4.222 -0.3038  0.2373  0.8990
  189DOPC  H15S23325   4.340   0.571   4.244  0.2753  0.7085  1.7993
  189DOPC  C21623326   4.161   0.529   4.355 -0.5092 -0.3421  0.1046
  189DOPC  H16R23327   4.147   0.421   4.334 -2.2620 -0.0498 -0.3787
  189DOPC  H16S23328   4.062   0.579   4.369  0.3409  1.2855  0.5715
  189DOPC  C21723329   4.239   0.543   4.488 -0.6084 -0.6472 -0.1767
  189DOPC  H17R23330   4.347   0.543   4.460 -0.6872 -0.4979 -0.4838
  189DOPC  H17S23331   4.206   0.460   4.554 -2.7427  0.4553  0.2171
  189DOPC  C21823332   4.200   0.670   4.564  0.3594 -0.1990  0.1470
  189DOPC  H18R23333   4.201   0.756   4.493 -2.2364 -1.7425 -1.9760
  189DOPC  H18S23334   4.267   0.698   4.647  0.1319 -4.0209  1.8163
  189DOPC  H18T23335   4.095   0.667   4.599  0.0576 -0.3448 -0.7250
  189DOPC   C3323336   4.016   0.289   3.209  0.0481 -0.0163  0.1215
  189DOPC   H3X23337   4.126   0.283   3.192  0.0533  1.6349 -0.7380
  189DOPC   H3Y23338   3.957   0.208   3.162 -2.0142  1.7370 -0.4703
  189DOPC   C3423339   3.975   0.298   3.353 -0.2273  0.6685  0.2615
  189DOPC   H4X23340   3.866   0.306   3.372  0.1318 -0.8380  3.9327
  189DOPC   H4Y23341   4.027   0.378   3.410  0.7898  0.5923 -0.5370
  189DOPC   C3523342   4.020   0.165   3.423 -0.1031 -0.6221  0.1577
  189DOPC   H5X23343   4.130   0.146   3.425 -0.2101 -1.3289 -0.3990
  189DOPC   H5Y23344   3.986   0.075   3.367  1.7216 -1.5128  0.3855
  189DOPC   C3623345   3.959   0.159   3.567 -0.1859  0.1947 -0.6840
  189DOPC   H6X23346   3.850   0.176   3.567 -0.5328 -1.7871 -0.1316
  189DOPC   H6Y23347   3.971   0.052   3.594  0.2873  0.9911  2.7059
  189DOPC   C3723348   4.041   0.207   3.689  0.0378  0.1744 -0.6999
  189DOPC   H7X23349   4.147   0.171   3.690 -0.4149 -1.2539  1.3579
  189DOPC   H7Y23350   4.039   0.318   3.688 -0.2822  0.2003  0.8618
  189DOPC   C3823351   3.988   0.183   3.835 -0.3198  0.1470  0.1177
  189DOPC   H8X23352   3.877   0.189   3.846 -0.3160  0.0403  0.2123
  189DOPC   H8Y23353   4.022   0.265   3.902 -1.7740  0.6766  0.2510
  189DOPC   C3923354   4.031   0.051   3.887 -0.5963  0.4125  0.0214
  189DOPC   H9X23355   4.069  -0.021   3.813  0.2533 -0.7399  1.5241
  189DOPC  C31023356   4.022   0.015   4.017  0.6736  0.7497  0.6874
  189DOPC  H10X23357   4.068  -0.084   4.032 -1.4164 -0.2308  1.0050
  189DOPC  C31123358   3.983   0.100   4.144  0.4374 -0.4041  0.5675
  189DOPC  H11X23359   3.877   0.076   4.170 -0.0715  0.2201 -0.8024
  189DOPC  H11Y23360   3.992   0.209   4.126  0.9485 -0.3852  0.9225
  189DOPC  C31223361   4.070   0.070   4.271  0.3708 -0.4971  0.2007
  189DOPC  H12X23362   4.060  -0.035   4.305 -1.8650 -0.6965 -0.9035
  189DOPC  H12Y23363   4.040   0.128   4.361 -1.3003  0.4345 -0.9019
  189DOPC  C31323364   4.218   0.097   4.252  0.2869 -0.2004 -0.2211
  189DOPC  H13X23365   4.250   0.018   4.182  2.3385 -0.3714  0.8307
  189DOPC  H13Y23366   4.245   0.193   4.202  0.0769  0.4163  0.8041
  189DOPC  C31423367   4.299   0.080   4.383 -0.4246  1.0605  0.1215
  189DOPC  H14X23368   4.256  -0.004   4.440  0.9223  1.1879  1.3795
  189DOPC  H14Y23369   4.405   0.051   4.367 -1.1432 -1.4707 -0.4597
  189DOPC  C31523370   4.303   0.205   4.467  0.5851 -0.0550  0.0275
  189DOPC  H15X23371   4.203   0.232   4.507  0.5414 -1.1908  0.7441
  189DOPC  H15Y23372   4.327   0.294   4.405  0.7501 -1.2222 -1.6624
  189DOPC  C31623373   4.389   0.186   4.595 -0.0723  0.3226  0.2065
  189DOPC  H16X23374   4.371   0.271   4.665  1.3430  0.5597  0.3031
  189DOPC  H16Y23375   4.343   0.100   4.648  0.5126 -0.4092 -0.4355
  189DOPC  C31723376   4.534   0.137   4.562 -0.4971 -0.3792  0.6642
  189DOPC  H17X23377   4.526   0.032   4.526 -0.8377  0.4139 -1.7603
  189DOPC  H17Y23378   4.582   0.189   4.476 -3.2455  1.6070  0.1845
  189DOPC  C31823379   4.616   0.161   4.685  0.4094 -0.3063  0.7284
  189DOPC  H18X23380   4.561   0.094   4.753  0.5619 -0.0559  1.1010
  189DOPC  H18Y23381   4.720   0.121   4.684  0.7357  0.4487 -1.5212
  189DOPC  H18Z23382   4.616   0.267   4.720 -1.6782  0.2301 -0.6815
  190DOPC     N23383   3.027   0.742   2.188 -0.5725 -0.8597  1.0136
  190DOPC   C1223384   3.111   0.659   2.281 -0.0919  0.6447  0.5715
  190DOPC  H12A23385   3.202   0.709   2.309 -1.0573  2.1692  1.1051
  190DOPC  H12B23386   3.125   0.563   2.233  3.2160  0.9943  0.6471
  190DOPC   C1323387   3.095   0.761   2.058 -0.3542  0.2868 -0.4912
  190DOPC  H13A23388   3.022   0.791   1.985  0.4470 -1.7119 -2.2107
  190DOPC  H13B23389   3.188   0.816   2.068  1.2832 -2.1291 -1.5682
  190DOPC  H13C23390   3.126   0.664   2.022  0.7049  0.2842  0.3814
  190DOPC   C1423391   2.973   0.869   2.256  0.1770  0.0229 -0.5784
  190DOPC  H14A23392   2.900   0.914   2.191 -1.5145 -0.8586  0.6550
  190DOPC  H14B23393   2.925   0.843   2.349 -1.1206  0.5334 -1.0876
  190DOPC  H14C23394   3.046   0.948   2.271 -1.6210  1.6435  0.0417
  190DOPC   C1523395   2.901   0.670   2.154 -1.3004 -0.2950  0.2007
  190DOPC  H15A23396   2.855   0.659   2.252 -0.4783 -0.1974  0.6031
  190DOPC  H15B23397   2.915   0.575   2.105 -1.9052  1.2063 -3.1351
  190DOPC  H15C23398   2.824   0.722   2.099 -0.1990  0.5305 -0.6027
  190DOPC   C1123399   3.045   0.625   2.415 -0.1947 -0.6920  0.2088
  190DOPC  H11A23400   3.122   0.586   2.485  0.7832  0.9212  0.0867
  190DOPC  H11B23401   3.012   0.720   2.463 -0.5450 -0.5006 -0.3978
  190DOPC     P23402   2.819   0.512   2.488 -0.2814 -0.0272 -0.1334
  190DOPC   O1323403   2.811   0.371   2.533 -0.4402  0.9843  0.0028
  190DOPC   O1423404   2.703   0.579   2.413 -0.4732 -0.7693 -0.5363
  190DOPC   O1223405   2.943   0.532   2.399  0.6189 -0.0048  0.6094
  190DOPC   O1123406   2.859   0.605   2.614 -0.2783 -0.5613 -0.4511
  190DOPC    C123407   2.934   0.557   2.722 -0.0975 -0.1975  0.8848
  190DOPC    HA23408   3.036   0.540   2.681  0.0288  1.5002  0.4350
  190DOPC    HB23409   2.882   0.469   2.765 -1.5815  0.2122 -0.0117
  190DOPC    C223410   2.957   0.663   2.833 -0.1808  0.5123  0.1301
  190DOPC    HS23411   3.032   0.734   2.793 -0.6881  1.5814  1.0310
  190DOPC   O2123412   2.997   0.602   2.962 -0.2054 -0.0514 -0.2093
  190DOPC   C2123413   3.122   0.547   2.959 -0.3659 -0.1450  0.1956
  190DOPC   O2223414   3.207   0.575   2.874 -0.5889 -0.0142  0.3535
  190DOPC   C2223415   3.149   0.456   3.084 -0.2789  0.1557  0.4786
  190DOPC   H2R23416   3.258   0.460   3.100  0.1737 -1.2142 -1.8024
  190DOPC   H2S23417   3.140   0.351   3.049 -1.4710 -0.6181  2.8276
  190DOPC    C323418   2.839   0.756   2.866  0.0415  0.3172  0.9336
  190DOPC    HX23419   2.756   0.692   2.900  1.4708 -2.1334  0.0297
  190DOPC    HY23420   2.801   0.809   2.776  0.6119 -0.0895  0.4396
  190DOPC   O3123421   2.861   0.842   2.987  0.2868 -0.1370  0.5485
  190DOPC   C3123422   2.952   0.933   2.954  0.1085 -0.3963  0.4543
  190DOPC   O3223423   3.001   0.952   2.845 -0.1031  0.0975  0.6341
  190DOPC   C3223424   2.980   1.006   3.083 -0.3352 -0.3084 -0.1985
  190DOPC   H2X23425   2.877   1.029   3.119 -0.7802  0.9236 -2.0786
  190DOPC   H2Y23426   3.035   0.942   3.155 -2.0667 -0.5770  0.9403
  190DOPC   C2323427   3.070   0.485   3.213  0.4103  0.6774 -0.4765
  190DOPC   H3R23428   3.087   0.411   3.293 -1.8095  0.5653 -0.0557
  190DOPC   H3S23429   2.963   0.470   3.190  0.0849  0.1739  1.2311
  190DOPC   C2423430   3.092   0.625   3.262  0.4169 -0.1390 -0.0008
  190DOPC   H4R23431   3.017   0.650   3.339  1.2252 -0.6043  0.9666
  190DOPC   H4S23432   3.083   0.700   3.181 -0.7789 -0.2021  0.0576
  190DOPC   C2523433   3.228   0.653   3.330 -0.8710  0.0925 -0.0608
  190DOPC   H5R23434   3.316   0.649   3.261 -0.8838 -0.2316 -0.0601
  190DOPC   H5S23435   3.237   0.575   3.408 -2.4837 -0.8139 -0.7301
  190DOPC   C2623436   3.227   0.794   3.396 -0.3678  0.3432  0.3730
  190DOPC   H6R23437   3.134   0.802   3.456 -2.6838 -0.3884 -2.8535
  190DOPC   H6S23438   3.229   0.858   3.306 -1.4562 -2.1126 -1.5309
  190DOPC   C2723439   3.358   0.820   3.475  0.1092 -0.0859 -0.7457
  190DOPC   H7R23440   3.355   0.915   3.533 -0.7382 -0.5231 -0.0590
  190DOPC   H7S23441   3.428   0.832   3.390  0.2271 -1.1569 -0.8114
  190DOPC   C2823442   3.410   0.709   3.570  0.2084 -0.0425  0.0342
  190DOPC   H8R23443   3.513   0.738   3.599  0.0586  0.3381  0.1847
  190DOPC   H8S23444   3.415   0.613   3.513  1.0509 -1.7564  2.7809
  190DOPC   C2923445   3.327   0.691   3.697  0.3293  0.1915  0.0162
  190DOPC   H9R23446   3.261   0.603   3.691  1.7095 -0.8011 -1.3802
  190DOPC  C21023447   3.323   0.765   3.811 -0.2771  0.7579  0.5061
  190DOPC  H10R23448   3.254   0.730   3.890 -0.7685  0.5213 -0.0173
  190DOPC  C21123449   3.392   0.892   3.845  0.0030 -0.1316  0.1130
  190DOPC  H11R23450   3.317   0.975   3.845 -0.0627 -0.1724  1.0630
  190DOPC  H11S23451   3.460   0.925   3.764  0.0403  1.1456  0.6379
  190DOPC  C21223452   3.439   0.900   3.993  0.0997  0.1449  0.1883
  190DOPC  H12R23453   3.497   0.995   4.002  0.3187 -0.0529  0.9261
  190DOPC  H12S23454   3.518   0.824   4.008 -0.9063 -0.8081  0.8230
  190DOPC  C21323455   3.331   0.892   4.097  0.1541  0.1438 -1.0859
  190DOPC  H13R23456   3.283   0.792   4.092 -0.9533  0.3726  2.1831
  190DOPC  H13S23457   3.257   0.972   4.079 -0.9734 -0.3093  1.1436
  190DOPC  C21423458   3.380   0.914   4.243 -0.0086 -0.0008 -0.0395
  190DOPC  H14R23459   3.425   1.013   4.262 -1.5413  0.8732 -0.8310
  190DOPC  H14S23460   3.457   0.837   4.267 -2.8656 -2.2841  2.8620
  190DOPC  C21523461   3.257   0.897   4.339  0.7222 -0.0273 -0.3701
  190DOPC  H15R23462   3.212   0.795   4.338 -0.2986  0.3016  2.7599
  190DOPC  H15S23463   3.181   0.966   4.297  2.0541  1.0714 -1.0551
  190DOPC  C21623464   3.296   0.929   4.484 -0.5235 -0.0118  0.1673
  190DOPC  H16R23465   3.281   1.038   4.496 -0.5935 -0.0292  0.2358
  190DOPC  H16S23466   3.399   0.894   4.511 -1.0750 -1.3507  0.6214
  190DOPC  C21723467   3.198   0.872   4.589 -0.1853  0.6392 -0.2088
  190DOPC  H17R23468   3.235   0.917   4.683  0.8224  3.2260 -1.7052
  190DOPC  H17S23469   3.211   0.762   4.586 -0.8135  0.5474  0.3261
  190DOPC  C21823470   3.049   0.894   4.570  0.5817 -0.4737  0.1113
  190DOPC  H18R23471   2.996   0.860   4.662 -0.6018  1.6299  0.2834
  190DOPC  H18S23472   3.012   0.841   4.480  0.5603 -0.7433  0.2778
  190DOPC  H18T23473   3.023   1.001   4.551  1.8017  0.1497  1.7163
  190DOPC   C3323474   3.059   1.139   3.062  0.1963  0.1342  0.0465
  190DOPC   H3X23475   3.003   1.202   2.991  0.7787 -0.0847 -0.6213
  190DOPC   H3Y23476   3.159   1.124   3.014  0.9492 -1.3559  1.9496
  190DOPC   C3423477   3.042   1.233   3.184  0.3730  0.3174 -0.5769
  190DOPC   H4X23478   2.932   1.246   3.199 -0.0322  1.4542 -3.7151
  190DOPC   H4Y23479   3.079   1.335   3.158 -0.0189  0.1339 -1.9543
  190DOPC   C3523480   3.098   1.188   3.318 -0.3752  0.6452 -0.5474
  190DOPC   H5X23481   3.208   1.194   3.304 -0.5186 -0.8734 -2.8555
  190DOPC   H5Y23482   3.073   1.081   3.335  0.1519  0.6493  0.3497
  190DOPC   C3623483   3.046   1.278   3.435 -0.6054  0.4505 -0.2360
  190DOPC   H6X23484   3.063   1.382   3.402  3.4026 -0.1192 -0.5351
  190DOPC   H6Y23485   2.936   1.274   3.451 -0.4292  2.8563  2.5517
  190DOPC   C3723486   3.122   1.249   3.566  0.0009  0.3765 -0.9033
  190DOPC   H7X23487   3.231   1.248   3.547  0.2760  0.4605  0.6044
  190DOPC   H7Y23488   3.105   1.331   3.638  2.0204  0.4130 -0.4167
  190DOPC   C3823489   3.084   1.114   3.632 -0.4803  0.1578 -0.3229
  190DOPC   H8X23490   3.162   1.097   3.710 -0.6012 -1.3632 -0.5000
  190DOPC   H8Y23491   3.090   1.029   3.560  0.4553 -0.3407  0.3185
  190DOPC   C3923492   2.954   1.132   3.708  0.3495 -0.2775  0.3492
  190DOPC   H9X23493   2.890   1.211   3.666  1.5165  0.2959 -0.4160
  190DOPC  C31023494   2.920   1.065   3.816 -0.3243  0.0170  0.3106
  190DOPC  H10X23495   2.822   1.078   3.862 -0.1287  0.3580  0.6407
  190DOPC  C31123496   3.009   0.958   3.877 -0.7449 -0.3370 -0.2845
  190DOPC  H11X23497   3.045   1.000   3.973  3.1349 -1.6195 -1.0002
  190DOPC  H11Y23498   3.107   0.930   3.831 -0.2841 -0.2310  0.6037
  190DOPC  C31223499   2.927   0.836   3.907  0.3588  0.3886  0.4970
  190DOPC  H12X23500   2.820   0.852   3.930 -0.5368 -1.6159 -1.8161
  190DOPC  H12Y23501   2.970   0.798   4.003  2.4291  2.6032  0.5532
  190DOPC  C31323502   2.931   0.713   3.808 -0.6629 -0.8573  0.5085
  190DOPC  H13X23503   3.035   0.708   3.770 -1.1283 -1.1486 -0.7879
  190DOPC  H13Y23504   2.907   0.614   3.854 -2.1050 -1.7060 -1.8659
  190DOPC  C31423505   2.837   0.741   3.693  0.0018  0.1979 -0.1004
  190DOPC  H14X23506   2.743   0.779   3.738  0.2440 -1.1472  1.6439
  190DOPC  H14Y23507   2.883   0.823   3.634  3.0140 -0.7594  0.7476
  190DOPC  C31523508   2.812   0.619   3.607  0.1649 -0.0541 -0.2814
  190DOPC  H15X23509   2.767   0.535   3.664  1.1718 -1.8278 -2.0090
  190DOPC  H15Y23510   2.916   0.594   3.577  0.4934  1.3616 -0.4027
  190DOPC  C31623511   2.730   0.663   3.485  0.0359 -0.4283 -0.5596
  190DOPC  H16X23512   2.639   0.711   3.528  2.6228  1.0034  3.9987
  190DOPC  H16Y23513   2.789   0.742   3.434  1.4059 -0.9567  0.1567
  190DOPC  C31723514   2.707   0.544   3.384 -0.0978 -1.0365  0.5006
  190DOPC  H17X23515   2.798   0.482   3.369  0.5514  0.4402 -2.3351
  190DOPC  H17Y23516   2.630   0.484   3.437 -2.2612 -0.3404 -1.7127
  190DOPC  C31823517   2.654   0.590   3.252 -0.2048 -0.3216 -0.0711
  190DOPC  H18X23518   2.670   0.515   3.172  0.9704  1.0676 -1.2113
  190DOPC  H18Y23519   2.550   0.623   3.273  0.4281  1.8971 -0.1994
  190DOPC  H18Z23520   2.712   0.679   3.220 -1.3065  1.2142  1.9968
  191DOPC     N23521   5.051   0.891   2.767  0.3473 -0.7048 -0.3287
  191DOPC   C1223522   5.169   0.801   2.813  0.4134  0.4541 -0.2121
  191DOPC  H12A23523   5.157   0.796   2.920 -1.9253 -0.3445 -0.4469
  191DOPC  H12B23524   5.258   0.862   2.804  0.1616  0.9033  0.2684
  191DOPC   C1323525   4.924   0.848   2.832 -0.2559 -0.7300  0.2700
  191DOPC  H13A23526   4.841   0.894   2.780 -0.2649 -0.4053  0.5682
  191DOPC  H13B23527   4.921   0.741   2.824  0.5286 -0.8486  1.3959
  191DOPC  H13C23528   4.925   0.877   2.937 -1.0227 -0.0880  0.1153
  191DOPC   C1423529   5.034   0.875   2.619  0.8268 -0.2019  1.0894
  191DOPC  H14A23530   5.125   0.887   2.562  0.9299  0.7593  1.4296
  191DOPC  H14B23531   4.991   0.780   2.590 -1.0916  0.8102  0.4463
  191DOPC  H14C23532   4.974   0.958   2.585  0.0059 -0.6008  1.5347
  191DOPC   C1523533   5.073   1.035   2.811 -0.3619 -0.5524  0.2964
  191DOPC  H15A23534   4.988   1.086   2.768  0.8869  0.5244 -0.9973
  191DOPC  H15B23535   5.162   1.076   2.765 -0.1530 -0.7913  0.4805
  191DOPC  H15C23536   5.065   1.049   2.918 -0.6980  1.1245  0.0849
  191DOPC   C1123537   5.201   0.666   2.737  0.6794  0.0677 -0.2235
  191DOPC  H11A23538   5.233   0.715   2.642 -3.2673  1.0320 -1.2340
  191DOPC  H11B23539   5.276   0.603   2.789 -1.3869 -1.2509  1.3149
  191DOPC     P23540   5.026   0.490   2.815 -0.1860 -0.2753  0.0965
  191DOPC   O1323541   5.098   0.366   2.792 -0.0010  0.2416 -0.0465
  191DOPC   O1423542   4.875   0.486   2.806 -0.1114 -0.7599 -0.0820
  191DOPC   O1223543   5.085   0.594   2.711  0.3011  0.4545 -0.3371
  191DOPC   O1123544   5.057   0.561   2.956 -0.0300  0.1794 -0.3537
  191DOPC    C123545   5.085   0.475   3.073 -0.2118  0.1238  0.2794
  191DOPC    HA23546   5.187   0.494   3.112  0.3476 -0.7086 -0.7405
  191DOPC    HB23547   5.097   0.365   3.064 -2.1407 -0.2586  1.7061
  191DOPC    C223548   4.991   0.509   3.190  1.0700 -0.6762  0.6516
  191DOPC    HS23549   4.976   0.619   3.182  1.2717 -0.7075 -0.2959
  191DOPC   O2123550   5.051   0.479   3.319  0.3402  0.5958  0.2595
  191DOPC   C2123551   5.154   0.542   3.359  0.5578  0.5853 -0.2328
  191DOPC   O2223552   5.217   0.635   3.310  0.0403 -0.0850  0.0812
  191DOPC   C2223553   5.199   0.475   3.490  0.0662  0.6060 -0.6395
  191DOPC   H2R23554   5.225   0.369   3.472  3.2686  1.4441 -1.6020
  191DOPC   H2S23555   5.120   0.492   3.567 -0.3212  1.4018 -1.1989
  191DOPC    C323556   4.859   0.430   3.170  0.4468 -0.6905  0.2915
  191DOPC    HX23557   4.806   0.460   3.077 -0.2579 -1.4863  0.4223
  191DOPC    HY23558   4.798   0.457   3.258 -3.2063  1.5030 -2.6370
  191DOPC   O3123559   4.886   0.285   3.157  0.0287 -0.1179 -0.5836
  191DOPC   C3123560   4.820   0.212   3.070  0.3010  0.1077 -0.2405
  191DOPC   O3223561   4.728   0.245   2.997 -0.0059 -0.1876 -0.9320
  191DOPC   C3223562   4.872   0.067   3.083  0.3320 -0.3011 -0.0224
  191DOPC   H2X23563   4.973   0.072   3.038 -0.1207  2.3070 -0.9599
  191DOPC   H2Y23564   4.880   0.047   3.192  2.5955  1.6115  0.2676
  191DOPC   C2323565   5.325   0.528   3.552 -0.3808 -0.8660  0.5765
  191DOPC   H3R23566   5.306   0.631   3.588  1.9184 -0.2115  0.0703
  191DOPC   H3S23567   5.410   0.526   3.481  0.9659 -0.6887  2.1340
  191DOPC   C2423568   5.370   0.443   3.668 -0.5037  0.0365 -0.6481
  191DOPC   H4R23569   5.415   0.348   3.635  0.1826 -0.0021  0.3472
  191DOPC   H4S23570   5.284   0.422   3.736  1.2761 -2.1793  1.0743
  191DOPC   C2523571   5.478   0.502   3.755 -0.0329 -0.6530 -0.1798
  191DOPC   H5R23572   5.427   0.573   3.824  0.2917  0.3138 -0.9226
  191DOPC   H5S23573   5.555   0.557   3.698  1.0744 -1.5289  0.4350
  191DOPC   C2623574   5.546   0.406   3.847 -0.5893 -0.1916  0.2392
  191DOPC   H6R23575   5.576   0.314   3.793 -0.0444  0.9439 -1.4553
  191DOPC   H6S23576   5.471   0.367   3.919  0.9804  0.3386  2.2573
  191DOPC   C2723577   5.676   0.458   3.913  0.3975  0.4401  0.1160
  191DOPC   H7R23578   5.669   0.569   3.905 -0.5228  0.4788  1.1911
  191DOPC   H7S23579   5.766   0.422   3.858  0.5632  1.3046 -0.2101
  191DOPC   C2823580   5.700   0.421   4.062  0.9464  0.4018 -1.1927
  191DOPC   H8R23581   5.602   0.447   4.106  1.2607 -2.2375  1.3330
  191DOPC   H8S23582   5.775   0.483   4.116 -0.5875  0.0264  1.5714
  191DOPC   C2923583   5.721   0.272   4.095  0.5682  0.5009  0.1068
  191DOPC   H9R23584   5.656   0.204   4.039  1.5115 -0.5369  0.2372
  191DOPC  C21023585   5.822   0.209   4.159  0.4372 -0.0752  0.1096
  191DOPC  H10R23586   5.825   0.100   4.179 -0.0941  0.1498  1.5314
  191DOPC  C21123587   5.942   0.277   4.226 -0.1247  0.0340  0.7210
  191DOPC  H11R23588   5.922   0.384   4.245 -1.2195  0.1914 -1.0632
  191DOPC  H11S23589   6.025   0.273   4.152 -2.6149  1.6376 -2.4754
  191DOPC  C21223590   5.957   0.213   4.367  0.5629  0.6320 -0.3443
  191DOPC  H12R23591   5.978   0.106   4.349  0.4563  0.4875  0.3605
  191DOPC  H12S23592   5.864   0.207   4.427  1.9562 -0.1105  1.8646
  191DOPC  C21323593   6.064   0.278   4.457 -0.6182  0.4680  0.4680
  191DOPC  H13R23594   6.018   0.349   4.529 -2.1488  0.0110 -0.0274
  191DOPC  H13S23595   6.134   0.328   4.386  0.1877 -0.3630  0.6696
  191DOPC  C21423596   6.147   0.170   4.526  0.1517 -0.1317  0.6267
  191DOPC  H14R23597   6.182   0.101   4.446  0.2786 -0.0652  0.6256
  191DOPC  H14S23598   6.080   0.111   4.593 -0.2523 -2.4148 -1.6032
  191DOPC  C21523599   6.267   0.218   4.603 -0.3759 -0.2387  0.0907
  191DOPC  H15R23600   6.232   0.281   4.688 -3.2509 -0.9978 -0.4084
  191DOPC  H15S23601   6.328   0.286   4.540 -1.1320  0.5393  0.1731
  191DOPC  C21623602   6.364   0.103   4.650 -0.2354  0.0199 -0.1906
  191DOPC  H16R23603   6.378   0.027   4.570  0.1292 -0.9587  0.7823
  191DOPC  H16S23604   6.324   0.053   4.740  1.1633  0.9099  0.9839
  191DOPC  C21723605   6.499   0.150   4.701 -0.3720  0.0720 -0.0376
  191DOPC  H17R23606   6.478   0.206   4.795 -0.7196 -0.1664  0.0284
  191DOPC  H17S23607   6.539   0.212   4.618  0.6519 -0.0466  0.3570
  191DOPC  C21823608   6.570   0.022   4.737 -0.1987 -0.0211 -0.3171
  191DOPC  H18R23609   6.677   0.044   4.758 -0.5530  1.1170  0.4390
  191DOPC  H18S23610   6.570  -0.054   4.656 -0.6960 -0.2100 -0.1439
  191DOPC  H18T23611   6.528  -0.014   4.833  1.8766  2.0733  1.5120
  191DOPC   C3323612   4.793  -0.047   3.005  0.3037  0.0004 -0.2541
  191DOPC   H3X23613   4.840  -0.146   3.019  0.2468 -0.3387 -2.1972
  191DOPC   H3Y23614   4.799  -0.025   2.897  2.4609 -0.1508 -0.2115
  191DOPC   C3423615   4.641  -0.056   3.042 -0.0796  0.1841  0.0995
  191DOPC   H4X23616   4.610  -0.146   2.985 -2.6312  0.8929  0.2795
  191DOPC   H4Y23617   4.599   0.034   2.994 -0.2576 -0.4072 -0.8718
  191DOPC   C3523618   4.609  -0.070   3.193 -0.0837  0.2886  0.1744
  191DOPC   H5X23619   4.633   0.020   3.253 -1.0060  2.3412 -2.3410
  191DOPC   H5Y23620   4.663  -0.154   3.241 -0.6293  0.7842  1.6944
  191DOPC   C3623621   4.461  -0.097   3.214  0.4528  0.2089 -0.2582
  191DOPC   H6X23622   4.396  -0.007   3.212 -1.0038 -0.7667  0.9251
  191DOPC   H6Y23623   4.413  -0.167   3.142 -0.8340  1.3953 -0.5869
  191DOPC   C3723624   4.417  -0.164   3.351 -0.4597  0.1840  0.3380
  191DOPC   H7X23625   4.315  -0.206   3.340  0.5414 -2.3994  0.1956
  191DOPC   H7Y23626   4.483  -0.250   3.374 -1.4941 -0.3142  1.5733
  191DOPC   C3823627   4.427  -0.059   3.460 -0.3965  0.3271 -1.4053
  191DOPC   H8X23628   4.388   0.039   3.425  1.0241  0.4604 -2.7222
  191DOPC   H8Y23629   4.537  -0.041   3.467  0.0050 -1.9077 -1.3712
  191DOPC   C3923630   4.372  -0.097   3.595 -0.3867  0.4426 -0.2701
  191DOPC   H9X23631   4.310  -0.188   3.601  0.1754  0.0316 -0.5906
  191DOPC  C31023632   4.391  -0.030   3.707 -0.7148 -0.3230 -0.2409
  191DOPC  H10X23633   4.347  -0.069   3.800  1.1763  0.7608  1.1953
  191DOPC  C31123634   4.481   0.081   3.726  0.3416  1.1633 -0.5633
  191DOPC  H11X23635   4.433   0.178   3.701  0.7541  1.6665  0.5673
  191DOPC  H11Y23636   4.570   0.072   3.661 -0.8885  1.7669 -2.4331
  191DOPC  C31223637   4.537   0.110   3.869 -0.2306 -0.3363 -0.4693
  191DOPC  H12X23638   4.451   0.150   3.927 -0.3614 -0.1026 -0.8170
  191DOPC  H12Y23639   4.620   0.185   3.869  0.7914 -1.3898  1.5415
  191DOPC  C31323640   4.605  -0.010   3.924  0.0720  0.4495 -0.5949
  191DOPC  H13X23641   4.537  -0.097   3.938  1.1117 -0.8188 -2.9646
  191DOPC  H13Y23642   4.688  -0.038   3.856  0.6425 -1.4880  0.8011
  191DOPC  C31423643   4.665   0.010   4.067 -0.7458  0.0321 -0.5710
  191DOPC  H14X23644   4.725   0.104   4.071  0.1775 -0.5742  0.8119
  191DOPC  H14Y23645   4.584   0.039   4.137 -0.3464  1.2761 -0.5928
  191DOPC  C31523646   4.755  -0.105   4.122 -0.7174  0.1808  0.2180
  191DOPC  H15X23647   4.812  -0.157   4.042  0.5949  0.3977  0.9863
  191DOPC  H15Y23648   4.676  -0.171   4.162 -1.1149  0.7175  0.3370
  191DOPC  C31623649   4.847  -0.058   4.236 -0.2766  0.5193 -0.5679
  191DOPC  H16X23650   4.909   0.024   4.192  1.3774  0.5156  1.5460
  191DOPC  H16Y23651   4.783  -0.016   4.316  0.5726 -1.9669  1.5501
  191DOPC  C31723652   4.944  -0.158   4.296 -0.3912  0.0657  0.1450
  191DOPC  H17X23653   4.880  -0.247   4.316  0.8632 -1.3065 -1.6114
  191DOPC  H17Y23654   5.026  -0.191   4.228 -1.3466 -0.9034 -0.5865
  191DOPC  C31823655   5.011  -0.104   4.424  0.0622  0.1592 -0.3802
  191DOPC  H18X23656   4.938  -0.073   4.502  0.2934 -1.9342  0.7496
  191DOPC  H18Y23657   5.067  -0.180   4.481  0.6921  0.5885 -0.4202
  191DOPC  H18Z23658   5.080  -0.020   4.404  1.4646 -1.3855 -2.3773
  192DOPC     N23659   1.216   5.032   2.281  0.5778 -0.2965  0.3248
  192DOPC   C1223660   1.115   5.051   2.392 -0.0678  0.4881 -0.6600
  192DOPC  H12A23661   1.095   4.956   2.438  1.1730 -0.0227 -1.1450
  192DOPC  H12B23662   1.024   5.084   2.343 -0.7846  1.6793  1.3379
  192DOPC   C1323663   1.154   4.945   2.178 -0.0921 -0.1284  0.6088
  192DOPC  H13A23664   1.227   4.894   2.116 -1.4511  0.2476 -1.4156
  192DOPC  H13B23665   1.082   4.874   2.214  3.8564 -3.8942  2.0175
  192DOPC  H13C23666   1.099   5.005   2.107  0.6130  0.3213  0.4243
  192DOPC   C1423667   1.338   4.964   2.328 -0.0759 -1.2681  0.8033
  192DOPC  H14A23668   1.371   5.003   2.423  1.1117 -1.3304  0.4343
  192DOPC  H14B23669   1.336   4.857   2.339 -0.1010 -1.1830  1.6558
  192DOPC  H14C23670   1.415   4.989   2.256 -1.1164  0.1046  0.1135
  192DOPC   C1523671   1.244   5.167   2.215  0.1028 -0.4896  0.3342
  192DOPC  H15A23672   1.269   5.241   2.290  0.0764  0.6587 -0.7574
  192DOPC  H15B23673   1.157   5.196   2.157  1.5575  4.0674  0.0612
  192DOPC  H15C23674   1.320   5.155   2.140 -0.4988 -3.3111  0.0519
  192DOPC   C1123675   1.151   5.148   2.511  0.1688 -0.2560  0.2720
  192DOPC  H11A23676   1.181   5.244   2.464 -2.0754  0.2495 -0.2480
  192DOPC  H11B23677   1.061   5.180   2.568 -0.1715 -1.0894  0.2154
  192DOPC     P23678   1.218   4.979   2.685 -0.1366  0.0461  0.1662
  192DOPC   O1323679   1.340   4.926   2.744 -0.1807  0.7766  0.2395
  192DOPC   O1423680   1.128   4.876   2.626 -0.4396  0.4008  0.2798
  192DOPC   O1223681   1.252   5.096   2.595 -0.1852 -0.0598 -0.4226
  192DOPC   O1123682   1.124   5.047   2.790  0.2791  0.3053  0.3608
  192DOPC    C123683   1.160   5.164   2.864  0.2906 -0.2320  0.1838
  192DOPC    HA23684   1.100   5.251   2.829  2.2685  1.0085 -0.3011
  192DOPC    HB23685   1.265   5.187   2.833 -0.4626 -0.1469 -2.5708
  192DOPC    C223686   1.155   5.145   3.023  0.2805 -0.3047 -0.0618
  192DOPC    HS23687   1.183   5.247   3.060 -1.8463  1.6244 -3.2544
  192DOPC   O2123688   1.246   5.047   3.080  0.0409  0.6662 -0.0024
  192DOPC   C2123689   1.373   5.057   3.049  0.2970 -0.4575 -0.6399
  192DOPC   O2223690   1.425   5.148   2.989 -0.2767  0.2147 -0.4106
  192DOPC   C2223691   1.452   4.942   3.117  0.8160  0.3433 -0.5523
  192DOPC   H2R23692   1.430   4.839   3.082  1.5049 -0.5293  1.4452
  192DOPC   H2S23693   1.422   4.941   3.224  0.1910  1.9636 -0.6864
  192DOPC    C323694   1.007   5.136   3.063 -0.6628  0.1813 -0.0229
  192DOPC    HX23695   0.973   5.038   3.023 -0.0398 -0.5301  1.1328
  192DOPC    HY23696   0.933   5.196   3.006 -0.2287 -1.1083 -2.0224
  192DOPC   O3123697   0.992   5.145   3.206  0.2546  0.0595  0.4178
  192DOPC   C3123698   0.986   5.273   3.248  0.6571 -0.2532  0.3641
  192DOPC   O3223699   0.989   5.373   3.180  0.5406 -0.4010  0.3639
  192DOPC   C3223700   0.973   5.261   3.391  0.0512  0.6711 -0.0705
  192DOPC   H2X23701   0.890   5.189   3.410  1.3167 -0.6149  0.8179
  192DOPC   H2Y23702   1.060   5.202   3.427 -0.5340  0.1310  0.4915
  192DOPC   C2323703   1.604   4.950   3.103  0.3864  0.0530 -0.0841
  192DOPC   H3R23704   1.628   4.956   2.995  0.7104 -1.0028 -0.0834
  192DOPC   H3S23705   1.654   4.855   3.134  0.4042 -1.7759 -4.8104
  192DOPC   C2423706   1.673   5.065   3.172  0.3165  0.0607  0.3885
  192DOPC   H4R23707   1.626   5.159   3.135 -1.7762 -1.8277 -2.1233
  192DOPC   H4S23708   1.775   5.068   3.128 -0.2774 -1.7132 -1.2538
  192DOPC   C2523709   1.658   5.053   3.325 -0.1321 -0.6820 -0.0072
  192DOPC   H5R23710   1.718   4.971   3.369  0.3211  1.3970  3.6877
  192DOPC   H5S23711   1.552   5.029   3.350 -0.5106  0.0367 -0.8697
  192DOPC   C2623712   1.692   5.188   3.385 -0.2083 -1.0130 -0.5773
  192DOPC   H6R23713   1.683   5.172   3.495 -1.5668 -0.7826 -0.6392
  192DOPC   H6S23714   1.621   5.269   3.359 -1.1550 -1.3543  0.8158
  192DOPC   C2723715   1.832   5.242   3.377 -0.4434  0.5198 -0.6555
  192DOPC   H7R23716   1.862   5.264   3.272 -1.4574 -2.0867 -1.5867
  192DOPC   H7S23717   1.902   5.161   3.408 -0.9456  0.9609  1.8066
  192DOPC   C2823718   1.867   5.366   3.459  0.2635 -0.2790  0.4757
  192DOPC   H8R23719   1.814   5.441   3.398 -0.0142 -1.1004 -0.3026
  192DOPC   H8S23720   1.973   5.395   3.438  0.2812 -0.9356 -0.3797
  192DOPC   C2923721   1.825   5.376   3.605 -0.5706  0.5145 -0.1672
  192DOPC   H9R23722   1.718   5.348   3.610 -0.3027 -0.9691 -1.8800
  192DOPC  C21023723   1.872   5.448   3.705 -0.9997 -0.6011 -0.0817
  192DOPC  H10R23724   1.820   5.456   3.801 -1.4873  3.0757 -0.4864
  192DOPC  C21123725   1.991   5.541   3.707 -0.6896 -0.3412 -0.5814
  192DOPC  H11R23726   2.025   5.553   3.602 -1.4686  0.3802 -0.7540
  192DOPC  H11S23727   2.068   5.503   3.778 -1.1327  0.2924  0.2467
  192DOPC  C21223728   1.963   5.689   3.756 -0.2994  0.7007  0.4006
  192DOPC  H12R23729   1.871   5.724   3.705  0.1241  4.3283  1.8931
  192DOPC  H12S23730   2.051   5.748   3.724  0.7401 -1.1062 -0.2697
  192DOPC  C21323731   1.938   5.704   3.903  0.1327  0.1589  0.4638
  192DOPC  H13R23732   2.031   5.665   3.950 -0.1830 -0.9200  0.2153
  192DOPC  H13S23733   1.855   5.638   3.935  1.3638 -2.3751 -1.2405
  192DOPC  C21423734   1.919   5.853   3.939  0.5801 -0.2606  0.1655
  192DOPC  H14R23735   1.825   5.883   3.888  0.2461 -1.8207 -0.1723
  192DOPC  H14S23736   2.001   5.916   3.897  0.7583 -0.4208  0.2780
  192DOPC  C21523737   1.903   5.873   4.087 -0.0965 -0.6641  0.7221
  192DOPC  H15R23738   1.995   5.838   4.139  0.1472  1.3083  1.7211
  192DOPC  H15S23739   1.818   5.811   4.122 -0.1678 -1.7786 -1.2504
  192DOPC  C21623740   1.884   6.015   4.143  0.4726 -0.5513 -0.0302
  192DOPC  H16R23741   1.778   6.043   4.124  0.2627 -0.8744  0.6174
  192DOPC  H16S23742   1.951   6.089   4.095  1.1595 -0.9499  0.2951
  192DOPC  C21723743   1.909   6.031   4.296  0.1351 -0.0014 -0.1931
  192DOPC  H17R23744   2.009   6.005   4.337 -0.2091  0.0702  0.7098
  192DOPC  H17S23745   1.848   5.956   4.351 -0.7400 -1.0789 -2.4986
  192DOPC  C21823746   1.874   6.169   4.352  0.2017  0.1400 -0.0550
  192DOPC  H18R23747   1.924   6.182   4.451 -1.1200  0.3280  0.6041
  192DOPC  H18S23748   1.764   6.173   4.366 -0.1131 -1.1211 -1.8839
  192DOPC  H18T23749   1.894   6.251   4.280 -1.0069 -0.2642 -0.8759
  192DOPC   C3323750   0.969   5.398   3.461  0.1688 -0.5137 -0.1029
  192DOPC   H3X23751   0.884   5.458   3.424 -0.1552 -0.1299  1.1965
  192DOPC   H3Y23752   1.063   5.450   3.433  0.9402 -1.2505  1.0114
  192DOPC   C3423753   0.965   5.393   3.616 -0.3959 -1.2433  0.0554
  192DOPC   H4X23754   1.063   5.352   3.648  0.7366  0.4072 -1.1450
  192DOPC   H4Y23755   0.874   5.333   3.639 -0.1706 -0.9391  1.8662
  192DOPC   C3523756   0.946   5.535   3.679  0.5015 -0.3753 -0.5455
  192DOPC   H5X23757   0.873   5.591   3.618 -0.1622 -0.5236  0.0903
  192DOPC   H5Y23758   1.040   5.593   3.677  0.4128 -0.2135 -0.1918
  192DOPC   C3623759   0.893   5.524   3.827  0.1867 -0.3412  0.4263
  192DOPC   H6X23760   0.796   5.471   3.828  0.7192 -1.3325  0.5837
  192DOPC   H6Y23761   0.963   5.468   3.893  0.3240 -1.2258 -0.4524
  192DOPC   C3723762   0.895   5.664   3.895 -0.3583  0.2529  0.0396
  192DOPC   H7X23763   0.994   5.715   3.885  0.6295 -1.2295  1.6170
  192DOPC   H7Y23764   0.818   5.721   3.840  0.1787  1.0463  0.1014
  192DOPC   C3823765   0.847   5.654   4.043  0.3335 -0.2177  0.0240
  192DOPC   H8X23766   0.757   5.589   4.050 -0.4812  0.2756 -3.7739
  192DOPC   H8Y23767   0.825   5.758   4.076 -1.0161 -0.2401 -0.7408
  192DOPC   C3923768   0.954   5.601   4.138  0.1703  0.2267  0.0151
  192DOPC   H9X23769   0.986   5.496   4.127  0.3940  0.3106 -0.1514
  192DOPC  C31023770   1.026   5.669   4.229 -0.1097  0.0612 -0.3748
  192DOPC  H10X23771   1.112   5.625   4.282  0.6898  1.9210 -0.0422
  192DOPC  C31123772   1.001   5.811   4.267  0.5070  0.2970 -0.0312
  192DOPC  H11X23773   0.970   5.876   4.182 -1.8645 -1.5780 -0.7267
  192DOPC  H11Y23774   1.100   5.852   4.295  0.3770  0.0592  0.8057
  192DOPC  C31223775   0.898   5.826   4.383 -0.3981  0.0819 -0.1157
  192DOPC  H12X23776   0.884   5.747   4.460 -0.7410 -0.2559 -0.5257
  192DOPC  H12Y23777   0.800   5.823   4.331 -1.1142  2.9613  0.8632
  192DOPC  C31323778   0.909   5.978   4.444 -0.5440  0.3411 -0.5343
  192DOPC  H13X23779   1.016   5.993   4.470 -0.2859 -0.2982 -1.1849
  192DOPC  H13Y23780   0.877   6.044   4.360 -1.3470 -0.7837 -1.1362
  192DOPC  C31423781   0.824   5.990   4.572  0.0275 -0.4327  0.1396
  192DOPC  H14X23782   0.718   5.962   4.558 -0.8496  2.0647  1.2515
  192DOPC  H14Y23783   0.864   5.933   4.659  0.8540 -0.6608 -0.3807
  192DOPC  C31523784   0.824   6.141   4.626 -0.1541 -0.0714  0.3066
  192DOPC  H15X23785   0.722   6.183   4.643  0.5805  1.9946 -0.1116
  192DOPC  H15Y23786   0.863   6.206   4.545 -1.1413  2.7623  1.9866
  192DOPC  C31623787   0.907   6.154   4.756  0.8174  1.0297  0.3742
  192DOPC  H16X23788   0.857   6.086   4.829  1.6453  0.1255  0.1178
  192DOPC  H16Y23789   1.011   6.117   4.744  0.0166 -2.2817  2.3431
  192DOPC  C31723790   0.895   6.289   4.824  0.0033 -0.3619 -0.6245
  192DOPC  H17X23791   0.954   6.357   4.760  2.1045  1.0647  2.5669
  192DOPC  H17Y23792   0.788   6.320   4.831 -0.0014 -0.1486 -1.5849
  192DOPC  C31823793   0.969   6.288   4.961 -0.2641 -0.6795  0.8954
  192DOPC  H18X23794   1.076   6.270   4.938 -0.5564 -0.6320 -0.5721
  192DOPC  H18Y23795   0.953   6.386   5.011  2.4697 -0.2592  1.1163
  192DOPC  H18Z23796   0.929   6.201   5.017  0.3887 -0.1654  2.2309
  193DOPC     N23797   0.387   2.324   2.370 -0.3166 -0.4138  0.6571
  193DOPC   C1223798   0.410   2.411   2.495  0.2731  0.3447  0.1873
  193DOPC  H12A23799   0.363   2.506   2.474  0.2474 -0.1991 -2.6253
  193DOPC  H12B23800   0.513   2.441   2.509 -0.3270  2.3737  0.6084
  193DOPC   C1323801   0.448   2.384   2.244  0.5725 -0.6368 -0.3879
  193DOPC  H13A23802   0.554   2.402   2.248  0.0682  2.9316  1.8256
  193DOPC  H13B23803   0.430   2.322   2.158  0.0125 -1.2337  0.1476
  193DOPC  H13C23804   0.397   2.479   2.230  1.7761  0.3115  1.3234
  193DOPC   C1423805   0.237   2.302   2.348  0.2558  0.0150 -0.3992
  193DOPC  H14A23806   0.187   2.254   2.431  0.8301 -0.1666 -0.1527
  193DOPC  H14B23807   0.177   2.388   2.325  0.0804  0.5803  1.9086
  193DOPC  H14C23808   0.216   2.239   2.263 -0.6701  1.0325 -0.9392
  193DOPC   C1523809   0.458   2.196   2.380  0.3275  0.0557  0.1629
  193DOPC  H15A23810   0.566   2.205   2.375  0.3506 -1.0091 -3.1606
  193DOPC  H15B23811   0.429   2.131   2.299  0.5032  0.3874 -0.1663
  193DOPC  H15C23812   0.445   2.152   2.478  0.5875 -0.2392  0.0686
  193DOPC   C1123813   0.368   2.354   2.633 -0.4427  0.4197  0.2713
  193DOPC  H11A23814   0.412   2.253   2.638 -2.5120 -0.6052 -0.9782
  193DOPC  H11B23815   0.414   2.421   2.710  1.3667 -0.6708  0.1897
  193DOPC     P23816   0.133   2.238   2.690  0.2296  0.3577 -0.1599
  193DOPC   O1323817   0.213   2.110   2.696  0.7618  0.2434  0.8166
  193DOPC   O1423818   0.019   2.232   2.594  0.0994 -0.6822  0.7715
  193DOPC   O1223819   0.225   2.349   2.638  0.5032  0.1895 -0.7082
  193DOPC   O1123820   0.074   2.286   2.834 -0.1036  0.7796  0.0514
  193DOPC    C123821   0.142   2.394   2.898  0.0983  0.0791  0.4083
  193DOPC    HA23822   0.065   2.436   2.966  1.3660 -1.3590  2.8715
  193DOPC    HB23823   0.167   2.471   2.822 -2.1631  0.4043 -0.0821
  193DOPC    C223824   0.261   2.355   2.994 -1.0297 -0.0003 -0.9245
  193DOPC    HS23825   0.343   2.306   2.939  0.2035 -0.3987  1.1649
  193DOPC   O2123826   0.209   2.287   3.105 -0.1131 -0.2919  0.1892
  193DOPC   C2123827   0.266   2.167   3.123  0.2887  0.1957 -0.3034
  193DOPC   O2223828   0.360   2.124   3.060  0.2414 -0.3024 -0.2028
  193DOPC   C2223829   0.205   2.097   3.245 -0.1581 -0.2508 -0.4770
  193DOPC   H2R23830   0.178   1.996   3.209  1.3861 -0.3756 -1.3643
  193DOPC   H2S23831   0.114   2.154   3.273 -0.8426  0.6072 -3.9687
  193DOPC    C323832   0.318   2.479   3.070 -0.2073 -0.5058 -0.1796
  193DOPC    HX23833   0.234   2.524   3.128 -1.3634  1.4521 -3.1364
  193DOPC    HY23834   0.351   2.567   3.010 -0.7828 -0.4426 -0.4046
  193DOPC   O3123835   0.426   2.444   3.164  0.2977  0.5403  0.1839
  193DOPC   C3123836   0.543   2.430   3.106  0.1142  0.1314 -0.5659
  193DOPC   O3223837   0.577   2.461   2.991 -0.1746 -0.4084  0.4303
  193DOPC   C3223838   0.640   2.369   3.206 -0.5384 -0.1120 -0.4173
  193DOPC   H2X23839   0.586   2.297   3.271  2.3935  0.1469  2.5587
  193DOPC   H2Y23840   0.715   2.321   3.140  1.9162  2.4359  0.2721
  193DOPC   C2323841   0.309   2.072   3.367  0.2444  0.9003  0.3509
  193DOPC   H3R23842   0.402   2.037   3.317 -0.9602 -0.6985 -0.8919
  193DOPC   H3S23843   0.262   1.996   3.433 -0.4064  1.3459  0.4037
  193DOPC   C2423844   0.335   2.199   3.451  0.0501 -0.0920 -0.1823
  193DOPC   H4R23845   0.239   2.225   3.500  1.2498 -1.0720  2.9697
  193DOPC   H4S23846   0.363   2.287   3.388 -1.3931 -0.8389 -1.9399
  193DOPC   C2523847   0.444   2.191   3.558 -0.2711  0.2389  0.0485
  193DOPC   H5R23848   0.533   2.182   3.491 -0.8990  0.9289 -0.9209
  193DOPC   H5S23849   0.450   2.091   3.605 -2.2696 -0.6219 -1.4168
  193DOPC   C2623850   0.457   2.313   3.647 -0.5236  0.0883 -0.3161
  193DOPC   H6R23851   0.467   2.410   3.593  1.0769  0.2637  0.2540
  193DOPC   H6S23852   0.551   2.303   3.705  0.1539  1.8389 -1.0225
  193DOPC   C2723853   0.347   2.329   3.750  0.3223  0.1929 -0.6514
  193DOPC   H7R23854   0.261   2.345   3.681 -1.1201 -1.2418  0.7419
  193DOPC   H7S23855   0.349   2.418   3.816 -2.0680  0.0862 -0.3325
  193DOPC   C2823856   0.320   2.200   3.827  0.1784 -0.5043  0.3423
  193DOPC   H8R23857   0.309   2.108   3.765 -0.3658 -0.2063 -0.0090
  193DOPC   H8S23858   0.220   2.207   3.873 -0.7606 -0.1926 -1.6344
  193DOPC   C2923859   0.427   2.166   3.929 -0.0257 -0.9785  0.6715
  193DOPC   H9R23860   0.530   2.156   3.891  0.8457  0.1055  2.6020
  193DOPC  C21023861   0.412   2.169   4.061  0.1333  0.1785 -0.5256
  193DOPC  H10R23862   0.503   2.144   4.118 -0.3761 -1.4677 -0.3794
  193DOPC  C21123863   0.291   2.212   4.141  0.3487  0.4617  0.8171
  193DOPC  H11R23864   0.269   2.141   4.224 -2.5095  0.5383  0.2261
  193DOPC  H11S23865   0.198   2.200   4.083  1.3241 -1.2008 -0.4985
  193DOPC  C21223866   0.293   2.363   4.189 -0.1920 -0.0529  0.4091
  193DOPC  H12R23867   0.189   2.388   4.221 -0.9281 -0.4446 -1.5383
  193DOPC  H12S23868   0.341   2.430   4.116 -3.2183  1.3029 -0.5004
  193DOPC  C21323869   0.372   2.380   4.322  0.7212 -0.1986  0.1295
  193DOPC  H13R23870   0.480   2.354   4.318  1.0299  1.1788 -1.5957
  193DOPC  H13S23871   0.345   2.300   4.395  0.4393  0.4743  0.7715
  193DOPC  C21423872   0.382   2.522   4.372 -0.3102  0.0647  0.3113
  193DOPC  H14R23873   0.278   2.557   4.389 -0.6668  0.2045 -1.8515
  193DOPC  H14S23874   0.425   2.575   4.284  1.4273  0.6810  1.4985
  193DOPC  C21523875   0.469   2.550   4.498  0.0462  0.8665 -0.4640
  193DOPC  H15R23876   0.534   2.634   4.466  1.7382  0.2026  1.0163
  193DOPC  H15S23877   0.521   2.453   4.516 -2.9494 -0.6849  0.5917
  193DOPC  C21623878   0.384   2.602   4.614 -0.3591 -0.6602  0.4805
  193DOPC  H16R23879   0.335   2.698   4.588 -0.3030 -0.2596  1.8193
  193DOPC  H16S23880   0.453   2.625   4.698 -2.1414  0.4716  1.6922
  193DOPC  C21723881   0.283   2.507   4.670 -0.6447  0.2055  0.3305
  193DOPC  H17R23882   0.234   2.456   4.585 -0.0838 -0.4246  0.3731
  193DOPC  H17S23883   0.201   2.561   4.722 -2.1059 -1.4049 -0.2220
  193DOPC  C21823884   0.333   2.400   4.775 -0.1470  0.5508 -0.2144
  193DOPC  H18R23885   0.254   2.332   4.814  2.5174 -1.5948  1.8264
  193DOPC  H18S23886   0.374   2.457   4.862  0.9057  0.7590 -0.8273
  193DOPC  H18T23887   0.409   2.335   4.729  1.1028  1.5181  0.4188
  193DOPC   C3323888   0.713   2.476   3.294 -0.2542 -0.0404 -0.5421
  193DOPC   H3X23889   0.637   2.544   3.338  0.6272  0.5598  0.0843
  193DOPC   H3Y23890   0.782   2.536   3.232  0.4524  1.7606  1.8236
  193DOPC   C3423891   0.772   2.414   3.424 -0.0012  0.3471 -0.5140
  193DOPC   H4X23892   0.864   2.351   3.428  0.8074  1.5793  2.0043
  193DOPC   H4Y23893   0.704   2.337   3.465 -0.2313  0.8961  0.1481
  193DOPC   C3523894   0.798   2.522   3.530  0.0151 -1.1459 -0.6726
  193DOPC   H5X23895   0.701   2.571   3.553  1.3810  1.2725  0.3647
  193DOPC   H5Y23896   0.871   2.595   3.489 -1.0470 -0.2449 -1.0453
  193DOPC   C3623897   0.848   2.472   3.667 -0.4440  0.8796  0.2011
  193DOPC   H6X23898   0.790   2.386   3.705 -1.4295  1.0041 -0.9572
  193DOPC   H6Y23899   0.952   2.437   3.655 -0.9763 -1.3138  1.4202
  193DOPC   C3723900   0.848   2.580   3.773  0.7285 -0.4524  0.0508
  193DOPC   H7X23901   0.925   2.657   3.755 -0.9496  1.2546 -0.1551
  193DOPC   H7Y23902   0.754   2.639   3.780  0.9524  0.4161 -2.7928
  193DOPC   C3823903   0.880   2.525   3.921  0.5676 -0.4484  0.0788
  193DOPC   H8X23904   0.925   2.608   3.979  0.4613  0.1453 -0.6849
  193DOPC   H8Y23905   0.952   2.441   3.904  0.1874 -0.9502  0.8517
  193DOPC   C3923906   0.754   2.479   3.984  0.5621  0.3225  0.3517
  193DOPC   H9X23907   0.695   2.436   3.902  0.2428  2.1586 -0.4123
  193DOPC  C31023908   0.705   2.494   4.108  0.2256  0.5392 -0.0315
  193DOPC  H10X23909   0.602   2.460   4.128 -0.4512  3.3351  1.7098
  193DOPC  C31123910   0.780   2.559   4.218  0.6962 -0.1800 -0.5475
  193DOPC  H11X23911   0.885   2.522   4.215  0.3697 -1.1194 -0.6534
  193DOPC  H11Y23912   0.735   2.525   4.313 -1.1465  2.8406 -0.2159
  193DOPC  C31223913   0.769   2.709   4.215  0.1712  0.4840  0.5574
  193DOPC  H12X23914   0.668   2.749   4.235 -0.3401 -0.7904  0.6171
  193DOPC  H12Y23915   0.783   2.735   4.108 -1.0826  0.5687  0.4064
  193DOPC  C31323916   0.858   2.775   4.317  0.3319  0.0941  0.3739
  193DOPC  H13X23917   0.827   2.746   4.420 -0.7096  0.1369  0.0908
  193DOPC  H13Y23918   0.962   2.739   4.311  0.0594 -1.1988  2.3192
  193DOPC  C31423919   0.856   2.930   4.299  0.0777  0.4988  0.0654
  193DOPC  H14X23920   0.758   2.973   4.327 -0.8276 -1.7424  0.5019
  193DOPC  H14Y23921   0.920   2.974   4.378 -0.7495 -1.4304  1.8994
  193DOPC  C31523922   0.924   2.976   4.171  0.0395 -0.3509 -0.2982
  193DOPC  H15X23923   0.854   2.953   4.088 -2.1874  1.8936  0.8140
  193DOPC  H15Y23924   1.022   2.925   4.166  0.2620 -0.0539  0.6572
  193DOPC  C31623925   0.941   3.133   4.170 -0.5575  0.2881  0.1157
  193DOPC  H16X23926   1.029   3.140   4.236  1.6686  1.9800 -2.7579
  193DOPC  H16Y23927   0.982   3.162   4.071  0.3887 -0.5484  0.2552
  193DOPC  C31723928   0.826   3.218   4.208 -0.0468 -0.4150 -0.4705
  193DOPC  H17X23929   0.732   3.192   4.155  0.4820 -2.8337 -0.2960
  193DOPC  H17Y23930   0.803   3.195   4.315 -0.6164  3.4757  0.4119
  193DOPC  C31823931   0.851   3.369   4.193 -0.7765  0.1465 -0.3068
  193DOPC  H18X23932   0.959   3.392   4.188 -0.6976 -0.3361 -1.0647
  193DOPC  H18Y23933   0.817   3.392   4.089 -0.2540 -0.3489 -0.5895
  193DOPC  H18Z23934   0.794   3.429   4.267 -2.3684 -1.6565  0.0007
  194DOPC     N23935   1.916   0.209   2.763  0.0424  0.0988 -0.5653
  194DOPC   C1223936   1.931   0.364   2.746 -0.4726 -1.2938  0.4523
  194DOPC  H12A23937   1.853   0.395   2.678 -0.7259 -0.5098  1.0913
  194DOPC  H12B23938   2.025   0.389   2.697 -1.7466  0.7620 -1.1013
  194DOPC   C1323939   1.957   0.133   2.642  0.2825 -0.8831  0.4134
  194DOPC  H13A23940   1.894   0.162   2.560 -0.0385 -0.0833  0.9329
  194DOPC  H13B23941   2.059   0.152   2.610  0.3962 -0.4026  1.0398
  194DOPC  H13C23942   1.954   0.025   2.652  0.5269 -0.8395  1.0502
  194DOPC   C1423943   1.774   0.178   2.803 -0.3103 -0.4050 -0.4178
  194DOPC  H14A23944   1.759   0.071   2.805  1.5691 -0.7238  1.5853
  194DOPC  H14B23945   1.755   0.213   2.903  0.8719  2.7367 -1.1609
  194DOPC  H14C23946   1.702   0.217   2.733 -1.2665  0.4987  1.0228
  194DOPC   C1523947   2.013   0.168   2.866 -0.1629 -0.3901 -0.5188
  194DOPC  H15A23948   2.044   0.065   2.862  2.8162  0.4612 -2.8127
  194DOPC  H15B23949   1.983   0.198   2.966 -0.4685 -2.0590 -0.0847
  194DOPC  H15C23950   2.104   0.222   2.846  0.6316 -1.5401 -0.1148
  194DOPC   C1123951   1.909   0.456   2.866  0.2536  0.8613 -0.9453
  194DOPC  H11A23952   1.812   0.442   2.918  0.5709  2.9323  0.3372
  194DOPC  H11B23953   1.993   0.435   2.936 -0.1500  0.1691 -0.6619
  194DOPC     P23954   1.815   0.662   2.739  0.3364 -0.1906  0.4312
  194DOPC   O1323955   1.744   0.555   2.663  0.0677  0.6015 -0.6784
  194DOPC   O1423956   1.859   0.779   2.660 -0.0738 -0.0767 -0.4388
  194DOPC   O1223957   1.928   0.590   2.819 -0.0210 -0.1515 -0.1949
  194DOPC   O1123958   1.721   0.715   2.853  0.2343  0.2006  0.1928
  194DOPC    C123959   1.780   0.808   2.939 -0.2920 -0.2165 -0.2081
  194DOPC    HA23960   1.710   0.893   2.952  0.8340  0.4685  2.0080
  194DOPC    HB23961   1.872   0.863   2.910 -0.4696 -0.0548 -0.4675
  194DOPC    C223962   1.809   0.753   3.086 -0.1897 -0.0305  0.1615
  194DOPC    HS23963   1.901   0.691   3.075 -0.0515  0.2763 -0.5451
  194DOPC   O2123964   1.696   0.675   3.137 -0.1405 -0.3731  0.3126
  194DOPC   C2123965   1.728   0.591   3.236  0.5004 -0.0410 -0.2177
  194DOPC   O2223966   1.842   0.558   3.260  0.2903 -0.4329 -0.1702
  194DOPC   C2223967   1.598   0.533   3.304 -0.2599 -0.9724 -0.1168
  194DOPC   H2R23968   1.532   0.492   3.224  0.7300 -2.0061 -0.4314
  194DOPC   H2S23969   1.538   0.619   3.343 -0.6500 -1.3780  0.1870
  194DOPC    C323970   1.845   0.874   3.181 -0.0293 -0.2183 -0.0434
  194DOPC    HX23971   1.755   0.939   3.171  0.2930  0.5216  1.5826
  194DOPC    HY23972   1.928   0.932   3.133  1.2583 -2.1676 -0.2871
  194DOPC   O3123973   1.857   0.842   3.323 -0.6741 -0.5556  0.0931
  194DOPC   C3123974   1.979   0.849   3.372 -0.0813  0.1677 -0.3657
  194DOPC   O3223975   2.080   0.865   3.306  0.7697 -0.4718  0.1252
  194DOPC   C3223976   1.970   0.847   3.525 -0.3571  0.4089  0.4623
  194DOPC   H2X23977   1.952   0.953   3.554  0.3252  0.4352  0.8134
  194DOPC   H2Y23978   1.879   0.791   3.557  0.2673 -0.3662  0.9087
  194DOPC   C2323979   1.622   0.441   3.419 -0.4123 -0.0884 -0.3669
  194DOPC   H3R23980   1.690   0.355   3.402  0.2791  0.1897  0.8172
  194DOPC   H3S23981   1.530   0.389   3.452 -0.0518 -0.9971 -0.7679
  194DOPC   C2423982   1.680   0.520   3.532  0.2097  0.2940 -0.9265
  194DOPC   H4R23983   1.618   0.609   3.552  1.5408  1.0900 -0.1684
  194DOPC   H4S23984   1.783   0.558   3.516  0.5748  0.3223  1.1263
  194DOPC   C2523985   1.678   0.435   3.658  0.2535 -0.4942  1.1166
  194DOPC   H5R23986   1.595   0.361   3.656  0.1744 -0.4044 -0.4731
  194DOPC   H5S23987   1.662   0.491   3.752 -0.1776 -1.5347  1.6809
  194DOPC   C2623988   1.812   0.353   3.667  1.1427  0.0179 -0.0835
  194DOPC   H6R23989   1.893   0.429   3.672 -1.4698  2.9447  1.5741
  194DOPC   H6S23990   1.821   0.307   3.566 -2.0691  0.3946 -0.6515
  194DOPC   C2723991   1.810   0.249   3.781 -0.1343  0.0697  0.2357
  194DOPC   H7R23992   1.716   0.192   3.768  0.9254 -2.0570  1.2988
  194DOPC   H7S23993   1.803   0.297   3.881 -1.2738  1.8298 -0.6428
  194DOPC   C2823994   1.920   0.145   3.767 -0.1534  0.3813 -0.6066
  194DOPC   H8R23995   1.910   0.090   3.671 -1.0817 -0.0830 -0.2622
  194DOPC   H8S23996   1.909   0.063   3.841  1.9101  0.7997  0.2348
  194DOPC   C2923997   2.058   0.207   3.786 -0.4248 -0.1562 -0.0556
  194DOPC   H9R23998   2.109   0.265   3.708  2.3832  0.5066  2.0880
  194DOPC  C21023999   2.120   0.214   3.901  0.4465 -0.3981  0.1555
  194DOPC  H10R24000   2.221   0.258   3.898  0.5551 -0.6159  0.5733
  194DOPC  C21124001   2.071   0.181   4.035  0.2994  0.3652  0.4736
  194DOPC  H11R24002   2.054   0.071   4.027  1.6311  0.1799 -0.0831
  194DOPC  H11S24003   1.974   0.232   4.054  0.7721  0.8380  1.7344
  194DOPC  C21224004   2.155   0.195   4.159  0.3058 -0.1321 -0.4384
  194DOPC  H12R24005   2.188   0.300   4.175  0.9355 -0.2097 -1.1524
  194DOPC  H12S24006   2.240   0.125   4.144  0.9453  0.3427  0.8103
  194DOPC  C21324007   2.084   0.140   4.285 -0.8040  0.5063  0.6798
  194DOPC  H13R24008   1.979   0.176   4.287 -0.5663  1.2220  2.7618
  194DOPC  H13S24009   2.136   0.179   4.375  2.1345 -2.4313  0.4564
  194DOPC  C21424010   2.089  -0.013   4.314  0.0728  0.1777 -0.2977
  194DOPC  H14R24011   2.057  -0.072   4.225  0.5094 -1.2176  0.4313
  194DOPC  H14S24012   2.006  -0.031   4.386 -1.0131 -0.1978 -1.6094
  194DOPC  C21524013   2.229  -0.072   4.357  0.1077  0.3252  0.0824
  194DOPC  H15R24014   2.253  -0.026   4.456  0.4514 -2.6090  1.4784
  194DOPC  H15S24015   2.314  -0.051   4.289  1.3338  1.3048  1.8479
  194DOPC  C21624016   2.222  -0.215   4.375 -0.3191 -0.3553 -0.3857
  194DOPC  H16R24017   2.198  -0.256   4.274 -2.0670  0.2428 -0.2435
  194DOPC  H16S24018   2.139  -0.239   4.445  0.1755  0.0525  0.3486
  194DOPC  C21724019   2.351  -0.271   4.436  0.0564 -0.1759  0.5324
  194DOPC  H17R24020   2.358  -0.245   4.544  0.4764 -0.5512  0.5937
  194DOPC  H17S24021   2.440  -0.226   4.388  0.7440  2.0430  3.6039
  194DOPC  C21824022   2.347  -0.422   4.441  0.2942  0.1752 -0.0245
  194DOPC  H18R24023   2.240  -0.451   4.449 -0.1265  1.3057 -1.1685
  194DOPC  H18S24024   2.408  -0.463   4.524 -0.3221  0.0700  0.3877
  194DOPC  H18T24025   2.371  -0.474   4.345 -3.3734 -0.3697 -0.8129
  194DOPC   C3324026   2.086   0.797   3.599 -0.5707 -0.1365 -0.2602
  194DOPC   H3X24027   2.067   0.807   3.708  0.3237 -0.0142 -0.1097
  194DOPC   H3Y24028   2.180   0.845   3.566 -2.3262  0.8476 -4.4175
  194DOPC   C3424029   2.110   0.651   3.575 -0.1078  0.4382  0.0628
  194DOPC   H4X24030   2.105   0.636   3.465 -0.4692  0.5643  0.0596
  194DOPC   H4Y24031   2.030   0.591   3.624  1.5239 -1.2768  0.7669
  194DOPC   C3524032   2.253   0.608   3.634  0.7551 -0.7082  0.2303
  194DOPC   H5X24033   2.329   0.656   3.569 -1.1592  0.5881 -1.1554
  194DOPC   H5Y24034   2.261   0.497   3.629  2.2279 -0.5864 -0.7545
  194DOPC   C3624035   2.268   0.650   3.779 -0.3655  0.3550 -0.4183
  194DOPC   H6X24036   2.261   0.761   3.782  0.1962  0.3880 -0.3057
  194DOPC   H6Y24037   2.187   0.612   3.846 -1.5314  0.2097 -1.8737
  194DOPC   C3724038   2.401   0.606   3.828 -0.3142 -0.2410 -0.3839
  194DOPC   H7X24039   2.427   0.504   3.791 -1.2128 -0.3420 -0.7629
  194DOPC   H7Y24040   2.476   0.676   3.787 -0.3408  0.9464  1.4468
  194DOPC   C3824041   2.408   0.608   3.980 -0.5060  0.2882  0.2796
  194DOPC   H8X24042   2.327   0.541   4.017 -1.2073  1.6418  1.2541
  194DOPC   H8Y24043   2.378   0.707   4.018 -0.4206  0.3410  0.2101
  194DOPC   C3924044   2.538   0.549   4.031 -0.0851  0.2850  0.5052
  194DOPC   H9X24045   2.584   0.482   3.957 -1.4949  1.9765 -2.0526
  194DOPC  C31024046   2.602   0.578   4.142 -0.2124  0.3721  0.0178
  194DOPC  H10X24047   2.707   0.550   4.157 -0.3039  0.7806  1.5871
  194DOPC  C31124048   2.561   0.665   4.260  0.1117 -0.2200 -0.4509
  194DOPC  H11X24049   2.565   0.609   4.356  0.6311  0.6875  0.0683
  194DOPC  H11Y24050   2.466   0.721   4.252  0.4384  0.3526 -0.3433
  194DOPC  C31224051   2.670   0.772   4.277 -0.1503 -0.5411 -0.8369
  194DOPC  H12X24052   2.689   0.809   4.174 -1.6171  0.8697 -0.6391
  194DOPC  H12Y24053   2.764   0.729   4.316  0.0615  2.0275  1.7609
  194DOPC  C31324054   2.627   0.897   4.358  0.1834  0.2142 -0.2671
  194DOPC  H13X24055   2.542   0.943   4.304 -1.7868 -1.2632  1.4080
  194DOPC  H13Y24056   2.605   0.869   4.463  0.7799  2.9699  0.6862
  194DOPC  C31424057   2.731   0.999   4.370 -0.2957  0.0720  0.0229
  194DOPC  H14X24058   2.823   0.962   4.420  0.4025 -0.3799 -1.5288
  194DOPC  H14Y24059   2.760   1.028   4.266 -0.7301  1.3303  0.2447
  194DOPC  C31524060   2.688   1.122   4.457  0.1593  0.3432 -0.0910
  194DOPC  H15X24061   2.689   1.101   4.566  0.5904  0.1624 -0.1267
  194DOPC  H15Y24062   2.592   1.159   4.414  0.6142  2.9493  0.9027
  194DOPC  C31624063   2.791   1.234   4.442 -0.4427  0.0149  0.2873
  194DOPC  H16X24064   2.892   1.195   4.466 -0.2874 -0.7533 -1.4355
  194DOPC  H16Y24065   2.790   1.238   4.331 -0.3192 -0.0760  0.2821
  194DOPC  C31724066   2.743   1.349   4.530 -0.0597  0.3110  0.0224
  194DOPC  H17X24067   2.789   1.441   4.486  1.3015 -0.6142 -0.5637
  194DOPC  H17Y24068   2.633   1.362   4.535 -0.2026 -0.2946 -1.1909
  194DOPC  C31824069   2.798   1.343   4.673  1.0190 -0.4306 -0.0540
  194DOPC  H18X24070   2.734   1.277   4.735 -0.0507  2.6669  2.4271
  194DOPC  H18Y24071   2.897   1.294   4.680  0.3333 -1.7548  0.8070
  194DOPC  H18Z24072   2.804   1.442   4.723 -0.0921 -0.3376 -0.0755
  195DOPC     N24073   6.028   0.079   2.468  0.3475  0.2752 -0.3274
  195DOPC   C1224074   6.017  -0.050   2.547 -0.3027  0.5560 -0.0704
  195DOPC  H12A24075   6.120  -0.083   2.552  0.3551  2.2329 -1.7207
  195DOPC  H12B24076   5.966  -0.130   2.494 -0.2305 -0.1534  0.8965
  195DOPC   C1324077   6.121   0.175   2.539  0.9036  0.6544 -0.2470
  195DOPC  H13A24078   6.104   0.278   2.510  2.0725  1.1576  0.7831
  195DOPC  H13B24079   6.109   0.165   2.646 -1.4157 -0.0827 -0.5187
  195DOPC  H13C24080   6.223   0.148   2.520 -0.0791 -2.7862 -1.2813
  195DOPC   C1424081   5.891   0.133   2.439  0.7159 -0.7667  0.1057
  195DOPC  H14A24082   5.896   0.223   2.379 -0.4696 -0.0726  1.0201
  195DOPC  H14B24083   5.827   0.070   2.378 -2.2609  3.3416 -1.4231
  195DOPC  H14C24084   5.842   0.149   2.534  1.2912  0.0799  0.2657
  195DOPC   C1524085   6.092   0.050   2.334 -0.6650  0.3543  0.5516
  195DOPC  H15A24086   6.029  -0.017   2.277  2.2663 -0.1843 -2.3196
  195DOPC  H15B24087   6.187   0.001   2.350 -0.9445 -0.0905  0.8793
  195DOPC  H15C24088   6.118   0.137   2.277 -0.2126 -0.8863 -1.2101
  195DOPC   C1124089   5.957  -0.036   2.686  0.2944 -0.0413 -0.0420
  195DOPC  H11A24090   5.973  -0.133   2.738 -0.5549 -0.2501 -0.1466
  195DOPC  H11B24091   5.998   0.052   2.740 -0.8067  0.9153 -0.7208
  195DOPC     P24092   5.708  -0.106   2.656  0.4252  0.1267  0.1997
  195DOPC   O1324093   5.765  -0.201   2.557 -0.4121 -0.3198 -0.0502
  195DOPC   O1424094   5.586  -0.023   2.622  0.1344  0.3803 -0.2939
  195DOPC   O1224095   5.820   0.001   2.694  0.1585  0.0882  0.0518
  195DOPC   O1124096   5.689  -0.186   2.792 -0.7820 -0.2410 -0.1379
  195DOPC    C124097   5.639  -0.127   2.905 -0.2846 -0.3287  0.0370
  195DOPC    HA24098   5.591  -0.202   2.972  0.1347  0.2968  1.0685
  195DOPC    HB24099   5.561  -0.052   2.881  0.0716  0.8756  2.3874
  195DOPC    C224100   5.754  -0.068   2.988  0.3746  0.1243 -0.4259
  195DOPC    HS24101   5.812   0.005   2.927  1.1799  0.3870  0.6405
  195DOPC   O2124102   5.851  -0.175   3.018  0.2830  0.1890 -0.2202
  195DOPC   C2124103   5.975  -0.136   3.041 -0.0234  0.4650  0.1919
  195DOPC   O2224104   6.023  -0.024   3.027  0.4293  0.5551 -0.2211
  195DOPC   C2224105   6.059  -0.252   3.093 -0.2895  0.8647  0.1507
  195DOPC   H2R24106   6.118  -0.294   3.010  1.1264  1.1973  0.9497
  195DOPC   H2S24107   6.005  -0.344   3.122  3.0745 -2.2226 -2.5327
  195DOPC    C324108   5.709  -0.004   3.121  0.7276  0.2331 -0.2308
  195DOPC    HX24109   5.679  -0.081   3.195 -0.5391 -0.1398 -1.0911
  195DOPC    HY24110   5.622   0.063   3.105 -0.1089 -0.5179  0.9497
  195DOPC   O3124111   5.817   0.063   3.179 -0.1758  0.0692 -0.2884
  195DOPC   C3124112   5.853   0.182   3.132  0.3548  0.6621  1.0707
  195DOPC   O3224113   5.804   0.236   3.036  0.1099 -0.3887 -0.0950
  195DOPC   C3224114   5.970   0.230   3.215  0.1454  0.6229 -0.4157
  195DOPC   H2X24115   5.990   0.164   3.302  0.2659  0.3177 -0.6738
  195DOPC   H2Y24116   6.061   0.225   3.151  0.6662 -0.1632  0.3538
  195DOPC   C2324117   6.141  -0.209   3.217  0.2816  0.0162  0.2874
  195DOPC   H3R24118   6.215  -0.128   3.199  0.7305 -0.3072  0.6502
  195DOPC   H3S24119   6.202  -0.296   3.249 -2.5504 -2.0308  0.4818
  195DOPC   C2424120   6.050  -0.168   3.336 -0.7528  0.7437  0.4459
  195DOPC   H4R24121   5.960  -0.229   3.314  0.5475 -0.7018 -1.2051
  195DOPC   H4S24122   6.025  -0.060   3.331  0.0015  0.9117 -0.0480
  195DOPC   C2524123   6.102  -0.182   3.472 -0.0958 -0.1778 -0.7884
  195DOPC   H5R24124   6.205  -0.140   3.476  0.2363 -0.9663 -0.8433
  195DOPC   H5S24125   6.114  -0.288   3.502 -2.4982  0.0629  1.3563
  195DOPC   C2624126   6.027  -0.106   3.578 -0.3604 -0.6207  0.5451
  195DOPC   H6R24127   5.924  -0.148   3.578 -0.8181 -0.0959 -4.4713
  195DOPC   H6S24128   6.033  -0.001   3.543 -0.0521 -0.9660 -0.4621
  195DOPC   C2724129   6.095  -0.119   3.713 -0.5527 -0.3346  0.1818
  195DOPC   H7R24130   6.193  -0.067   3.716 -0.8843  0.2412  2.0333
  195DOPC   H7S24131   6.112  -0.224   3.746  1.6788 -0.6175 -1.5744
  195DOPC   C2824132   6.000  -0.061   3.816  0.6733  0.8266  0.2864
  195DOPC   H8R24133   5.922  -0.140   3.830 -0.6900  2.3083  1.4349
  195DOPC   H8S24134   5.961   0.028   3.763 -0.5840 -1.5170 -3.0940
  195DOPC   C2924135   6.076  -0.030   3.946  0.2255  0.0465  0.0763
  195DOPC   H9R24136   6.168   0.028   3.932  0.7874  0.0976  3.2589
  195DOPC  C21024137   6.053  -0.075   4.068 -0.0481 -0.0898 -0.4218
  195DOPC  H10R24138   6.109  -0.027   4.150 -0.7895 -0.7828  0.5095
  195DOPC  C21124139   5.950  -0.165   4.119  0.0931  0.0567 -0.0696
  195DOPC  H11R24140   5.887  -0.202   4.035  1.8728  1.8428 -2.3095
  195DOPC  H11S24141   5.876  -0.115   4.186 -0.2849  2.5486 -2.1967
  195DOPC  C21224142   6.023  -0.284   4.186 -0.1657  0.4443  0.5952
  195DOPC  H12R24143   6.100  -0.328   4.119 -1.9399 -0.5523 -0.8639
  195DOPC  H12S24144   5.942  -0.357   4.203  0.2617  0.2085  1.7826
  195DOPC  C21324145   6.103  -0.243   4.313  0.3954 -0.0762 -0.5895
  195DOPC  H13R24146   6.034  -0.184   4.378 -2.6905 -0.0866 -3.5674
  195DOPC  H13S24147   6.190  -0.181   4.282 -0.2534  0.7162 -0.8577
  195DOPC  C21424148   6.163  -0.368   4.376 -0.4619  0.8247  0.1083
  195DOPC  H14R24149   6.221  -0.429   4.303  0.9614  1.0879  0.9843
  195DOPC  H14S24150   6.081  -0.441   4.389 -0.9361  1.5808  1.5433
  195DOPC  C21524151   6.237  -0.322   4.501 -0.5104  0.5110 -0.0323
  195DOPC  H15R24152   6.157  -0.264   4.552 -0.4631  1.0694 -0.5897
  195DOPC  H15S24153   6.323  -0.259   4.468 -1.0553 -0.3607 -3.5172
  195DOPC  C21624154   6.286  -0.433   4.593  0.5195 -1.4726  0.1630
  195DOPC  H16R24155   6.334  -0.505   4.523 -0.5128 -1.5986 -0.4455
  195DOPC  H16S24156   6.197  -0.482   4.640 -2.0451  1.1318 -1.6119
  195DOPC  C21724157   6.381  -0.376   4.699  0.5290  0.7143 -0.2080
  195DOPC  H17R24158   6.472  -0.328   4.659  1.1244  1.7378  2.1617
  195DOPC  H17S24159   6.412  -0.460   4.764 -0.8461  0.1767 -0.2000
  195DOPC  C21824160   6.311  -0.268   4.779 -0.6241  0.9055  0.1039
  195DOPC  H18R24161   6.298  -0.174   4.721 -0.2545 -0.5834 -2.5615
  195DOPC  H18S24162   6.386  -0.252   4.860 -2.2523  0.6074  1.7489
  195DOPC  H18T24163   6.214  -0.300   4.821 -1.8091  4.2097  0.2169
  195DOPC   C3324164   5.950   0.370   3.271 -0.1644 -0.1482 -0.0170
  195DOPC   H3X24165   5.951   0.435   3.180  2.3680 -0.4884 -0.2951
  195DOPC   H3Y24166   6.033   0.390   3.342  0.7050  0.2859 -1.1174
  195DOPC   C3424167   5.815   0.374   3.340  0.1622 -1.0274  0.7157
  195DOPC   H4X24168   5.801   0.302   3.424 -1.8126 -0.7760  0.6473
  195DOPC   H4Y24169   5.736   0.368   3.263  1.7992 -1.8898 -0.9743
  195DOPC   C3524170   5.788   0.510   3.409 -0.3361  0.4143 -0.3113
  195DOPC   H5X24171   5.680   0.519   3.433 -0.1354  1.8630  0.1217
  195DOPC   H5Y24172   5.814   0.588   3.334  0.3251 -1.1626 -1.7887
  195DOPC   C3624173   5.876   0.529   3.526  0.2264 -0.6366 -0.4860
  195DOPC   H6X24174   5.848   0.448   3.597  0.7567  0.6192  1.2214
  195DOPC   H6Y24175   5.983   0.528   3.495  0.0791 -0.5838 -0.9978
  195DOPC   C3724176   5.855   0.670   3.598  0.6145  0.1014  0.6775
  195DOPC   H7X24177   5.897   0.742   3.525  1.8037 -2.5093 -1.3900
  195DOPC   H7Y24178   5.746   0.690   3.604  0.0629 -2.0656 -0.8349
  195DOPC   C3824179   5.918   0.685   3.732 -0.2040 -0.6615 -0.6986
  195DOPC   H8X24180   5.900   0.599   3.800 -2.4704 -0.5465 -1.0777
  195DOPC   H8Y24181   5.867   0.767   3.786  1.1945 -0.3467  0.1951
  195DOPC   C3924182   6.063   0.734   3.715 -0.1740  0.9462  0.6691
  195DOPC   H9X24183   6.084   0.811   3.640  2.8222 -0.2242  0.1635
  195DOPC  C31024184   6.176   0.674   3.767  0.1572 -0.2386  0.1456
  195DOPC  H10X24185   6.266   0.737   3.762 -0.5870  1.0190  1.7530
  195DOPC  C31124186   6.187   0.559   3.855  0.5204 -0.2327 -0.1468
  195DOPC  H11X24187   6.123   0.575   3.944 -0.8848  0.0829 -1.1860
  195DOPC  H11Y24188   6.291   0.568   3.895  1.2418 -1.9606 -1.5199
  195DOPC  C31224189   6.162   0.416   3.800  0.1304 -0.0441 -0.4562
  195DOPC  H12X24190   6.053   0.400   3.795  0.2122 -0.1720 -2.2057
  195DOPC  H12Y24191   6.188   0.345   3.881 -0.6428  0.8127  0.5703
  195DOPC  C31324192   6.242   0.385   3.671  0.3644  0.4053  0.9080
  195DOPC  H13X24193   6.223   0.461   3.592  1.5174  1.6314  1.7507
  195DOPC  H13Y24194   6.351   0.407   3.683  0.5285  1.2254 -1.4854
  195DOPC  C31424195   6.232   0.240   3.611 -0.2438  0.3528  0.0433
  195DOPC  H14X24196   6.233   0.159   3.687 -1.3164  0.2481 -0.0358
  195DOPC  H14Y24197   6.138   0.236   3.552  0.1693 -1.7920 -0.5533
  195DOPC  C31524198   6.352   0.219   3.501  0.9816  0.2652  0.3437
  195DOPC  H15X24199   6.424   0.157   3.559 -1.9262 -2.6166  1.1550
  195DOPC  H15Y24200   6.394   0.319   3.478 -1.0467  0.8453 -1.0545
  195DOPC  C31624201   6.307   0.151   3.374  0.3836 -0.0726  0.3832
  195DOPC  H16X24202   6.282   0.047   3.402  2.3778 -0.2258  1.7982
  195DOPC  H16Y24203   6.226   0.206   3.322 -1.1495 -0.7372  1.9706
  195DOPC  C31724204   6.437   0.134   3.286 -0.5534  0.0854  0.6439
  195DOPC  H17X24205   6.494   0.230   3.284 -0.0817 -0.1337 -2.8327
  195DOPC  H17Y24206   6.499   0.062   3.343 -0.8657 -0.0260  0.8448
  195DOPC  C31824207   6.409   0.105   3.138  0.6895 -0.4439  0.1497
  195DOPC  H18X24208   6.365   0.004   3.122 -1.1902  0.5001 -0.9092
  195DOPC  H18Y24209   6.317   0.158   3.107  1.5726  1.2273  0.3158
  195DOPC  H18Z24210   6.494   0.120   3.068  1.6143 -1.8791  0.8842
  196DOPC     N24211   0.768   1.746   2.661  0.1593 -0.1309  0.4581
  196DOPC   C1224212   0.856   1.710   2.774 -0.4413  0.9109 -0.3785
  196DOPC  H12A24213   0.850   1.787   2.850 -0.0597 -0.6162  1.2505
  196DOPC  H12B24214   0.953   1.702   2.729 -0.1960 -0.3679  0.3393
  196DOPC   C1324215   0.629   1.773   2.713  0.2796  0.4579  0.1759
  196DOPC  H13A24216   0.618   1.842   2.795  2.3207  0.4724  0.5058
  196DOPC  H13B24217   0.577   1.825   2.635  0.6159  1.5288  0.6448
  196DOPC  H13C24218   0.579   1.678   2.726  2.3609 -0.5785  1.1320
  196DOPC   C1424219   0.770   1.641   2.558 -0.1841 -0.5222  0.3240
  196DOPC  H14A24220   0.867   1.628   2.511  0.1222 -0.6530  0.9845
  196DOPC  H14B24221   0.764   1.543   2.603 -0.1775 -1.1182 -0.9112
  196DOPC  H14C24222   0.700   1.654   2.477  1.3336  1.2847 -0.7824
  196DOPC   C1524223   0.822   1.884   2.607 -0.0278  0.1579  0.8120
  196DOPC  H15A24224   0.926   1.865   2.586 -0.4573 -2.8917  0.8957
  196DOPC  H15B24225   0.822   1.968   2.675  2.6141 -0.0948  1.2323
  196DOPC  H15C24226   0.778   1.909   2.512 -0.1591 -0.0808  0.8077
  196DOPC   C1124227   0.821   1.575   2.839  0.7638 -0.0898  0.5223
  196DOPC  H11A24228   0.866   1.569   2.941  0.9672 -1.4997  0.3727
  196DOPC  H11B24229   0.711   1.564   2.845  0.9163 -2.4614 -0.0117
  196DOPC     P24230   1.027   1.444   2.747  0.3520  0.0246 -0.4303
  196DOPC   O1324231   1.104   1.567   2.718  0.2029 -0.4571  0.1858
  196DOPC   O1424232   1.050   1.329   2.658  0.3693  0.6343 -0.6658
  196DOPC   O1224233   0.869   1.467   2.764  0.0129 -0.0009  0.1518
  196DOPC   O1124234   1.063   1.405   2.894  0.1095  0.1817 -0.0857
  196DOPC    C124235   1.021   1.273   2.949  0.3541  0.5705 -0.4510
  196DOPC    HA24236   1.077   1.191   2.899 -0.9851 -2.6410  2.9020
  196DOPC    HB24237   0.913   1.253   2.928  0.5632  0.8009 -1.8833
  196DOPC    C224238   1.051   1.263   3.097 -0.1628 -0.3677  0.3236
  196DOPC    HS24239   1.158   1.241   3.118  0.2550 -2.0130 -3.0133
  196DOPC   O2124240   0.969   1.169   3.160 -0.0222  0.3496 -0.1895
  196DOPC   C2124241   1.004   1.047   3.157  0.1296  0.7855 -0.7935
  196DOPC   O2224242   1.106   1.003   3.107 -0.1444  0.1488  0.6844
  196DOPC   C2224243   0.901   0.957   3.227 -0.8175 -0.9644 -0.6199
  196DOPC   H2R24244   0.919   0.855   3.187  0.6782 -1.0592  0.2226
  196DOPC   H2S24245   0.806   1.006   3.198 -1.0432 -1.6304 -1.0161
  196DOPC    C324246   1.027   1.399   3.169 -0.0340 -0.4580 -0.8975
  196DOPC    HX24247   0.935   1.447   3.129 -0.9691 -1.2471  0.2224
  196DOPC    HY24248   1.099   1.476   3.135  0.7613 -0.6573  0.2678
  196DOPC   O3124249   1.017   1.393   3.316  0.9494  0.8111 -0.4031
  196DOPC   C3124250   1.134   1.373   3.380  0.3043  0.2545  0.0722
  196DOPC   O3224251   1.241   1.352   3.320  0.6897  0.0714 -0.6977
  196DOPC   C3224252   1.122   1.391   3.532 -0.5562  0.6329 -0.0225
  196DOPC   H2X24253   1.159   1.489   3.570  0.2317 -0.6121  2.6671
  196DOPC   H2Y24254   1.017   1.395   3.568  0.3528 -0.5135  3.1748
  196DOPC   C2324255   0.932   0.962   3.380 -0.2031  0.7659  0.0390
  196DOPC   H3R24256   0.936   1.069   3.410 -0.8605  0.8793 -0.2498
  196DOPC   H3S24257   1.030   0.915   3.404 -0.3643  1.1147  1.4681
  196DOPC   C2424258   0.823   0.892   3.465  0.1034  0.3701 -0.6739
  196DOPC   H4R24259   0.808   0.782   3.461 -2.6839  0.6192  0.8301
  196DOPC   H4S24260   0.722   0.933   3.445 -1.3174 -1.5616  1.9357
  196DOPC   C2524261   0.853   0.923   3.609  0.3155  0.0699  0.4294
  196DOPC   H5R24262   0.872   1.031   3.620  0.4970 -0.0171  0.9772
  196DOPC   H5S24263   0.944   0.872   3.646  0.6283  0.2790 -0.0416
  196DOPC   C2624264   0.752   0.871   3.707 -0.4784  0.0323 -1.8613
  196DOPC   H6R24265   0.755   0.761   3.721  1.7168  0.2053 -0.3693
  196DOPC   H6S24266   0.649   0.896   3.673 -2.3699 -0.2978  2.9325
  196DOPC   C2724267   0.759   0.940   3.844  0.1217  0.1182  0.4830
  196DOPC   H7R24268   0.740   1.047   3.821 -1.6522  0.2719  2.3757
  196DOPC   H7S24269   0.856   0.940   3.897 -0.3842  0.1465  1.4293
  196DOPC   C2824270   0.646   0.887   3.933 -0.1679 -0.2311  0.0246
  196DOPC   H8R24271   0.559   0.890   3.863  0.2136  2.2417 -0.4531
  196DOPC   H8S24272   0.619   0.956   4.015  1.7576 -0.6918  1.1097
  196DOPC   C2924273   0.696   0.761   3.994  0.0905  0.6864  0.4815
  196DOPC   H9R24274   0.788   0.714   3.958 -0.1090 -1.3564  2.4127
  196DOPC  C21024275   0.650   0.700   4.100 -0.2107 -0.0203 -0.0766
  196DOPC  H10R24276   0.715   0.622   4.144  0.0458  1.3782  2.2077
  196DOPC  C21124277   0.528   0.733   4.182 -0.4460  0.7061 -0.3228
  196DOPC  H11R24278   0.454   0.788   4.120  1.5853  1.9775 -1.8021
  196DOPC  H11S24279   0.571   0.812   4.248 -0.6902  0.8187 -0.2975
  196DOPC  C21224280   0.458   0.610   4.251 -0.4010  0.4569 -0.2256
  196DOPC  H12R24281   0.441   0.531   4.175 -0.1146  0.3678 -0.1982
  196DOPC  H12S24282   0.358   0.639   4.290 -1.9513 -1.2819 -2.6616
  196DOPC  C21324283   0.550   0.566   4.370  0.1505  0.2362  0.3009
  196DOPC  H13R24284   0.607   0.653   4.408  0.3438  0.4785 -0.5203
  196DOPC  H13S24285   0.627   0.500   4.325 -0.1358  1.5860 -2.3821
  196DOPC  C21424286   0.477   0.487   4.475 -0.6642 -0.0320 -0.0232
  196DOPC  H14R24287   0.535   0.415   4.536 -0.4233 -0.1378 -0.3703
  196DOPC  H14S24288   0.396   0.437   4.417 -1.6327  1.7544 -0.2813
  196DOPC  C21524289   0.413   0.572   4.586  0.4944 -0.2432  0.1558
  196DOPC  H15R24290   0.339   0.505   4.635  2.1036 -0.8357  1.9441
  196DOPC  H15S24291   0.356   0.656   4.542  2.0406 -0.1436 -1.7920
  196DOPC  C21624292   0.516   0.644   4.677 -0.0879 -0.3000  0.8489
  196DOPC  H16R24293   0.579   0.704   4.608  1.3400 -1.3897  1.1317
  196DOPC  H16S24294   0.584   0.569   4.725  1.0273  0.9879  1.3367
  196DOPC  C21724295   0.463   0.730   4.789 -0.1799 -0.1817  0.6052
  196DOPC  H17R24296   0.493   0.678   4.883  0.0904  0.2589  0.7706
  196DOPC  H17S24297   0.354   0.745   4.774  0.3437  2.1855 -1.5809
  196DOPC  C21824298   0.537   0.865   4.787  0.3376 -0.7599 -0.2056
  196DOPC  H18R24299   0.643   0.854   4.756  0.9938  0.3015  1.5468
  196DOPC  H18S24300   0.540   0.891   4.895 -0.2421 -1.1301 -0.0953
  196DOPC  H18T24301   0.477   0.947   4.743 -2.7003 -1.0012  3.0270
  196DOPC   C3324302   1.207   1.287   3.610 -0.2999  0.0817 -0.0415
  196DOPC   H3X24303   1.313   1.318   3.609 -0.3077  0.1054 -0.1582
  196DOPC   H3Y24304   1.204   1.188   3.560  0.7279 -0.4869  0.9903
  196DOPC   C3424305   1.152   1.270   3.755  1.2139  0.3381  0.4796
  196DOPC   H4X24306   1.043   1.252   3.753  1.4280 -1.0082 -0.3914
  196DOPC   H4Y24307   1.152   1.362   3.817 -2.5000  1.3929 -0.7859
  196DOPC   C3524308   1.224   1.160   3.835 -0.2807  0.4293 -0.4253
  196DOPC   H5X24309   1.334   1.176   3.822 -0.1738  0.3473  0.3208
  196DOPC   H5Y24310   1.208   1.052   3.819  0.2654 -0.1152  2.1954
  196DOPC   C3624311   1.191   1.178   3.985  0.0571  0.5641  0.1316
  196DOPC   H6X24312   1.213   1.282   4.017 -0.1558  0.7395 -0.2991
  196DOPC   H6Y24313   1.083   1.154   3.992  0.1319 -0.0245 -0.6311
  196DOPC   C3724314   1.268   1.067   4.063  0.2675 -0.2486  0.2470
  196DOPC   H7X24315   1.262   0.961   4.032  1.6578 -0.5569  0.9599
  196DOPC   H7Y24316   1.372   1.100   4.042 -0.1938  1.1272  0.0478
  196DOPC   C3824317   1.243   1.079   4.213  0.2153  0.4741  1.0002
  196DOPC   H8X24318   1.273   1.178   4.252  0.8124  0.6104  0.2283
  196DOPC   H8Y24319   1.317   1.005   4.252  0.5258 -0.3233 -0.9382
  196DOPC   C3924320   1.099   1.046   4.260  1.1281 -0.7027  0.2887
  196DOPC   H9X24321   1.022   1.023   4.185  0.9735 -2.5156  0.9446
  196DOPC  C31024322   1.047   1.055   4.386 -0.0948 -0.4859 -0.1605
  196DOPC  H10X24323   0.943   1.025   4.406 -0.6270  1.8545  0.9234
  196DOPC  C31124324   1.135   1.089   4.499  0.5579  0.0721 -0.4722
  196DOPC  H11X24325   1.230   1.140   4.472  0.5657 -1.0246 -2.8080
  196DOPC  H11Y24326   1.149   0.992   4.551 -1.2667  0.0739  0.0677
  196DOPC  C31224327   1.054   1.176   4.597 -0.2332 -0.0371  0.2133
  196DOPC  H12X24328   1.124   1.208   4.677  1.2407 -0.8427 -0.7146
  196DOPC  H12Y24329   0.973   1.118   4.647  0.7099 -2.1214 -0.5979
  196DOPC  C31324330   1.003   1.311   4.541 -0.6570  0.0470 -0.2167
  196DOPC  H13X24331   1.084   1.379   4.509  0.9074 -1.1900  0.9548
  196DOPC  H13Y24332   0.935   1.283   4.457  1.0838 -1.4290 -1.2005
  196DOPC  C31424333   0.911   1.375   4.641  0.3228  0.1373  0.0640
  196DOPC  H14X24334   0.827   1.309   4.670 -1.8162  1.3033 -2.8730
  196DOPC  H14Y24335   0.965   1.391   4.736  2.1480  0.0875 -0.9242
  196DOPC  C31524336   0.855   1.509   4.602  0.0124 -0.2432  0.4049
  196DOPC  H15X24337   0.940   1.580   4.594  0.9076 -1.3062  0.2531
  196DOPC  H15Y24338   0.789   1.546   4.683 -1.4080 -1.1475 -0.2919
  196DOPC  C31624339   0.788   1.523   4.464 -0.5229 -0.4727 -0.2535
  196DOPC  H16X24340   0.862   1.486   4.389  0.3482 -0.8727  0.7833
  196DOPC  H16Y24341   0.695   1.463   4.451 -0.5548 -0.0537 -2.3244
  196DOPC  C31724342   0.751   1.670   4.434 -0.9119  0.0406 -0.3858
  196DOPC  H17X24343   0.838   1.737   4.418 -0.1254 -0.3084  2.1493
  196DOPC  H17Y24344   0.692   1.667   4.339  0.5191 -4.3517 -1.3253
  196DOPC  C31824345   0.654   1.732   4.540 -0.5693  0.7551  0.3125
  196DOPC  H18X24346   0.600   1.655   4.599 -0.2072  0.7265  0.6162
  196DOPC  H18Y24347   0.710   1.791   4.615  0.2797  2.1130 -1.3080
  196DOPC  H18Z24348   0.576   1.800   4.500  0.9804  2.1897 -0.3954
  197DOPC     N24349   1.514   7.093   2.666  0.0173 -0.1993  0.1851
  197DOPC   C1224350   1.567   7.072   2.809  0.0532 -0.2621 -0.5569
  197DOPC  H12A24351   1.661   7.124   2.820  0.2299 -0.7335  0.2784
  197DOPC  H12B24352   1.592   6.967   2.820  0.1565 -0.3679 -1.7558
  197DOPC   C1324353   1.494   7.242   2.649  0.0449 -0.6720  0.3031
  197DOPC  H13A24354   1.582   7.300   2.626 -1.1153  1.1686  0.3121
  197DOPC  H13B24355   1.420   7.262   2.572  0.5602  0.4401  0.0756
  197DOPC  H13C24356   1.458   7.284   2.741 -0.8524  0.2464 -0.4534
  197DOPC   C1424357   1.377   7.035   2.665  0.5903  0.1220 -0.4080
  197DOPC  H14A24358   1.335   7.009   2.569 -2.3511 -1.5851  1.2179
  197DOPC  H14B24359   1.367   6.945   2.722 -0.1272  0.0451 -0.6479
  197DOPC  H14C24360   1.313   7.111   2.707  2.5825  1.0214  1.1973
  197DOPC   C1524361   1.612   7.034   2.568 -0.1103  0.1403  0.0475
  197DOPC  H15A24362   1.580   7.028   2.465  2.6626  1.9444 -1.0043
  197DOPC  H15B24363   1.655   6.939   2.598 -1.5111 -0.7408 -0.5777
  197DOPC  H15C24364   1.703   7.089   2.557  0.6391 -1.3919 -2.2802
  197DOPC   C1124365   1.491   7.095   2.937  0.5023 -0.3225  0.6991
  197DOPC  H11A24366   1.391   7.050   2.921 -0.2661  2.3297 -3.7551
  197DOPC  H11B24367   1.550   7.053   3.022  1.9781  0.1713 -0.0385
  197DOPC     P24368   1.575   7.337   2.999  0.5283  0.3707 -0.2723
  197DOPC   O1324369   1.517   7.472   2.999  0.1012 -0.0882  0.0470
  197DOPC   O1424370   1.689   7.312   2.910  0.0564 -0.5292  0.3790
  197DOPC   O1224371   1.462   7.233   2.952 -0.2323  0.0104 -0.5724
  197DOPC   O1124372   1.603   7.294   3.150 -0.1766 -0.2319 -0.1694
  197DOPC    C124373   1.721   7.225   3.189 -0.3943  0.1325 -0.1450
  197DOPC    HA24374   1.736   7.135   3.125 -1.7232 -0.4503  0.3282
  197DOPC    HB24375   1.699   7.182   3.289  1.8954  0.6248  0.6479
  197DOPC    C224376   1.843   7.321   3.202  0.1035  1.4057  0.1284
  197DOPC    HS24377   1.844   7.364   3.100 -0.9957  0.8316 -0.1425
  197DOPC   O2124378   1.959   7.246   3.238  0.0972 -0.1846  0.1753
  197DOPC   C2124379   2.068   7.280   3.169  0.1238  0.4028  0.4563
  197DOPC   O2224380   2.065   7.370   3.088  0.3706 -0.2777 -0.0166
  197DOPC   C2224381   2.185   7.185   3.211  0.5318 -0.4778  0.7807
  197DOPC   H2R24382   2.209   7.116   3.127  0.7046  0.8515 -0.2888
  197DOPC   H2S24383   2.163   7.134   3.307 -0.0632  1.2850  1.6142
  197DOPC    C324384   1.819   7.435   3.304 -0.1802  0.1788 -0.0396
  197DOPC    HX24385   1.811   7.394   3.407 -1.2029 -0.4049 -0.3459
  197DOPC    HY24386   1.721   7.481   3.280  0.0951  0.6599 -0.2611
  197DOPC   O3124387   1.938   7.528   3.307  0.2983  0.3355 -0.1759
  197DOPC   C3124388   1.930   7.625   3.222  0.4333 -0.1342  0.2190
  197DOPC   O3224389   1.836   7.642   3.146 -0.3568 -0.0052 -0.3644
  197DOPC   C3224390   2.062   7.712   3.232  0.0923 -0.1797 -0.1997
  197DOPC   H2X24391   2.081   7.755   3.131  3.9291 -3.0709 -0.9408
  197DOPC   H2Y24392   2.035   7.799   3.296 -1.7380 -1.2105  0.4991
  197DOPC   C2324393   2.307   7.280   3.232 -0.7821 -0.2558  0.3281
  197DOPC   H3R24394   2.291   7.339   3.324  0.6453  2.6984 -1.1752
  197DOPC   H3S24395   2.317   7.347   3.144  1.9229 -0.6677  0.2338
  197DOPC   C2424396   2.440   7.206   3.241  0.0246 -0.1343 -0.0627
  197DOPC   H4R24397   2.529   7.263   3.207  0.9188  0.1948  2.5670
  197DOPC   H4S24398   2.438   7.112   3.183 -0.3464 -0.3785  0.3367
  197DOPC   C2524399   2.486   7.185   3.383 -0.2497  0.2281 -0.3494
  197DOPC   H5R24400   2.416   7.118   3.438  0.1480  0.5384  0.5504
  197DOPC   H5S24401   2.488   7.283   3.434  0.7592  0.0508 -0.0387
  197DOPC   C2624402   2.622   7.114   3.407 -0.2014  0.5186  0.5540
  197DOPC   H6R24403   2.640   7.096   3.515 -1.3869  0.4250  0.7560
  197DOPC   H6S24404   2.704   7.178   3.368 -1.6046  1.3601 -1.1934
  197DOPC   C2724405   2.636   6.973   3.344  0.0619  0.3201  0.1940
  197DOPC   H7R24406   2.697   6.974   3.251 -1.4893 -2.1752 -0.9725
  197DOPC   H7S24407   2.530   6.953   3.317 -0.7415  2.2107  1.7704
  197DOPC   C2824408   2.684   6.854   3.428 -0.2565  0.6718  0.1612
  197DOPC   H8R24409   2.661   6.763   3.369 -0.5450  1.1931 -0.5516
  197DOPC   H8S24410   2.616   6.854   3.516 -0.3746  1.1054  0.0766
  197DOPC   C2924411   2.835   6.870   3.463  0.3047 -0.6590 -0.0669
  197DOPC   H9R24412   2.900   6.824   3.387 -0.9216 -3.3465  0.4043
  197DOPC  C21024413   2.879   6.911   3.580  0.0001 -0.2117 -0.2230
  197DOPC  H10R24414   2.987   6.931   3.589 -0.1310  1.7473 -2.0815
  197DOPC  C21124415   2.801   6.961   3.699  0.5242  0.2481  0.1312
  197DOPC  H11R24416   2.693   6.938   3.689  0.4702  0.0261  1.0606
  197DOPC  H11S24417   2.807   7.071   3.692 -1.4277  0.5206  1.7719
  197DOPC  C21224418   2.846   6.906   3.829 -0.1189  0.3506 -0.5712
  197DOPC  H12R24419   2.955   6.905   3.848 -0.3734  3.2239  1.9148
  197DOPC  H12S24420   2.810   6.801   3.837  0.6354  0.2196  2.5363
  197DOPC  C21324421   2.794   6.991   3.952 -0.1813 -0.0115  0.3825
  197DOPC  H13R24422   2.687   7.007   3.928  0.1850 -1.1545 -2.4696
  197DOPC  H13S24423   2.843   7.090   3.949  0.3469 -0.2610  0.5715
  197DOPC  C21424424   2.807   6.923   4.087 -0.3112  0.8677  0.6098
  197DOPC  H14R24425   2.911   6.888   4.105 -0.6585  0.0481  1.0325
  197DOPC  H14S24426   2.737   6.839   4.101 -0.0181  0.6363  0.6943
  197DOPC  C21524427   2.766   7.016   4.202 -0.1437 -0.0235  0.2262
  197DOPC  H15R24428   2.664   7.057   4.187  0.0808  0.2438 -0.6360
  197DOPC  H15S24429   2.828   7.107   4.217 -2.7906  1.8059  0.6985
  197DOPC  C21624430   2.765   6.955   4.344 -0.2584  0.5082 -0.3105
  197DOPC  H16R24431   2.690   6.874   4.353 -0.4781  0.6408 -0.8852
  197DOPC  H16S24432   2.716   7.018   4.421 -1.5274 -0.4831 -0.2773
  197DOPC  C21724433   2.901   6.901   4.389 -0.0179  0.3732  0.7092
  197DOPC  H17R24434   2.967   6.987   4.409  1.6625 -0.7472  0.1703
  197DOPC  H17S24435   2.939   6.834   4.309 -1.6211 -1.1078  1.1114
  197DOPC  C21824436   2.898   6.828   4.522 -0.2570  0.4550 -0.1772
  197DOPC  H18R24437   2.894   6.896   4.610  0.4498  1.8049 -1.1393
  197DOPC  H18S24438   2.996   6.776   4.524 -0.2220  0.5259 -0.0079
  197DOPC  H18T24439   2.821   6.749   4.531 -0.1035  0.3127 -0.1104
  197DOPC   C3324440   2.186   7.627   3.285  0.1762  0.1920 -0.2397
  197DOPC   H3X24441   2.204   7.546   3.211  0.0458 -0.0559 -0.0022
  197DOPC   H3Y24442   2.151   7.561   3.367  1.9287 -1.4875 -0.7711
  197DOPC   C3424443   2.305   7.725   3.324  0.1333  0.2354 -0.2579
  197DOPC   H4X24444   2.267   7.805   3.391  0.0579 -0.6446  0.7836
  197DOPC   H4Y24445   2.342   7.775   3.232  2.5930 -1.4665 -0.3208
  197DOPC   C3524446   2.426   7.656   3.390  0.6520  0.3552 -1.0864
  197DOPC   H5X24447   2.522   7.698   3.353  0.8219  0.2289 -0.7961
  197DOPC   H5Y24448   2.418   7.550   3.357 -0.6307 -0.1635  0.7105
  197DOPC   C3624449   2.427   7.677   3.541 -0.0077  0.5934  0.3949
  197DOPC   H6X24450   2.433   7.786   3.563  2.0052  0.0106  3.4421
  197DOPC   H6Y24451   2.340   7.637   3.597 -0.3567 -1.2966 -1.3940
  197DOPC   C3724452   2.555   7.615   3.607  0.7452  0.1001 -0.6635
  197DOPC   H7X24453   2.555   7.504   3.597 -0.1183  0.0077  0.2596
  197DOPC   H7Y24454   2.649   7.657   3.565  0.6822  1.0813  0.1561
  197DOPC   C3824455   2.560   7.649   3.762  0.0860  0.3498  0.4166
  197DOPC   H8X24456   2.550   7.759   3.774  4.0917  1.1849 -1.9502
  197DOPC   H8Y24457   2.661   7.627   3.803 -0.2950  3.3202  3.2962
  197DOPC   C3924458   2.453   7.570   3.836  0.4367 -0.2319 -0.8835
  197DOPC   H9X24459   2.355   7.561   3.786  0.0058  0.1076 -0.1150
  197DOPC  C31024460   2.472   7.489   3.942  0.0297  0.0185  0.1020
  197DOPC  H10X24461   2.394   7.435   3.999 -1.1728  3.5222  2.0941
  197DOPC  C31124462   2.610   7.463   3.998  0.5474  0.4360 -0.1746
  197DOPC  H11X24463   2.679   7.550   3.997 -1.7957  2.5363  2.7186
  197DOPC  H11Y24464   2.657   7.384   3.936 -1.2564  0.5911 -1.8548
  197DOPC  C31224465   2.609   7.407   4.145  0.4028 -0.4659 -0.2272
  197DOPC  H12X24466   2.714   7.371   4.155 -0.2289 -2.5886 -0.8147
  197DOPC  H12Y24467   2.548   7.315   4.156 -0.3176 -0.1782 -1.5355
  197DOPC  C31324468   2.586   7.517   4.254  0.4968  0.2884 -0.0261
  197DOPC  H13X24469   2.521   7.602   4.221 -1.0139 -0.6033  0.5563
  197DOPC  H13Y24470   2.535   7.465   4.338  0.5362  0.8053  0.3228
  197DOPC  C31424471   2.711   7.586   4.304 -0.6333 -0.8434 -0.8437
  197DOPC  H14X24472   2.793   7.523   4.345 -0.1331 -1.4845 -2.7469
  197DOPC  H14Y24473   2.761   7.633   4.217 -0.6123  0.2036 -0.2788
  197DOPC  C31524474   2.687   7.700   4.408 -0.2721  0.3378  0.2187
  197DOPC  H15X24475   2.616   7.777   4.368 -1.1249 -0.8743 -0.6723
  197DOPC  H15Y24476   2.779   7.759   4.426 -0.4191  0.1099  1.8275
  197DOPC  C31624477   2.620   7.642   4.534 -0.3228  0.4343 -0.3556
  197DOPC  H16X24478   2.613   7.738   4.591  1.6244  0.4418 -0.0726
  197DOPC  H16Y24479   2.519   7.610   4.501 -0.2053 -0.1059 -0.1904
  197DOPC  C31724480   2.700   7.545   4.616  0.0397  0.0853 -0.0644
  197DOPC  H17X24481   2.714   7.462   4.544 -2.0298 -0.0398 -0.3839
  197DOPC  H17Y24482   2.795   7.595   4.645  0.2735 -0.5538  0.2875
  197DOPC  C31824483   2.625   7.503   4.745  0.1216  0.4557 -0.1464
  197DOPC  H18X24484   2.537   7.438   4.724  0.3415  0.0080  0.2900
  197DOPC  H18Y24485   2.691   7.448   4.816 -0.9487  1.5536  1.7771
  197DOPC  H18Z24486   2.592   7.597   4.794 -1.3946  1.4245 -2.8180
  198DOPC     N24487   6.881   6.454   2.509 -0.0727  0.6562  0.3681
  198DOPC   C1224488   6.808   6.588   2.473  0.4647 -0.7161 -0.7314
  198DOPC  H12A24489   6.860   6.625   2.386 -0.1072  1.9902 -0.0213
  198DOPC  H12B24490   6.828   6.660   2.551 -1.1148  0.0021 -0.9564
  198DOPC   C1324491   7.024   6.479   2.546 -0.4447 -0.3118 -0.1357
  198DOPC  H13A24492   7.063   6.527   2.457 -0.4603  1.9732  1.0228
  198DOPC  H13B24493   7.032   6.549   2.628  0.5922 -0.7050  0.1143
  198DOPC  H13C24494   7.084   6.392   2.567 -1.6859 -1.2420 -0.3166
  198DOPC   C1424495   6.877   6.363   2.390  0.1408 -0.4165 -0.6348
  198DOPC  H14A24496   6.781   6.348   2.343 -1.3316 -1.3921  2.4478
  198DOPC  H14B24497   6.937   6.396   2.306  0.6255 -1.3862 -0.6816
  198DOPC  H14C24498   6.930   6.272   2.416  0.1525 -0.3972 -0.5904
  198DOPC   C1524499   6.815   6.381   2.615  0.4106  0.2661 -0.4249
  198DOPC  H15A24500   6.708   6.381   2.602  0.2804  0.5014  0.5447
  198DOPC  H15B24501   6.828   6.432   2.709  0.6021  0.5129 -0.5837
  198DOPC  H15C24502   6.846   6.279   2.628 -2.8377 -0.7521  0.3773
  198DOPC   C1124503   6.661   6.586   2.440  0.3204 -0.2961  0.0164
  198DOPC  H11A24504   6.635   6.680   2.387 -0.2992 -0.0067  0.8088
  198DOPC  H11B24505   6.639   6.497   2.377  1.7553 -2.1268  1.9519
  198DOPC     P24506   6.496   6.687   2.619 -0.2566  0.0548 -0.0544
  198DOPC   O1324507   6.391   6.708   2.517  0.0090  0.1377 -0.0099
  198DOPC   O1424508   6.570   6.808   2.646  0.0960 -0.3828 -0.3602
  198DOPC   O1224509   6.593   6.579   2.564  0.7846  0.2748  0.1227
  198DOPC   O1124510   6.429   6.614   2.749 -0.0735 -0.2345  0.1345
  198DOPC    C124511   6.514   6.547   2.843 -0.7028 -0.2657 -1.0478
  198DOPC    HA24512   6.622   6.561   2.819 -1.2697  2.7617 -2.3182
  198DOPC    HB24513   6.488   6.440   2.855 -2.6703  0.4286  1.6093
  198DOPC    C224514   6.499   6.604   2.996 -0.0306  0.3960  0.7432
  198DOPC    HS24515   6.391   6.603   3.023 -0.6531  1.7392 -1.4549
  198DOPC   O2124516   6.552   6.734   2.991  0.1197 -0.2179  0.1355
  198DOPC   C2124517   6.477   6.835   2.952  0.6411 -0.1357 -0.5873
  198DOPC   O2224518   6.354   6.831   2.936 -0.1104 -0.1893 -0.1174
  198DOPC   C2224519   6.561   6.962   2.954 -0.6158  0.7007 -0.2264
  198DOPC   H2R24520   6.598   6.983   2.851  0.4073  1.3542  0.2543
  198DOPC   H2S24521   6.652   6.936   3.011 -1.4052 -0.0440  0.7219
  198DOPC    C324522   6.587   6.522   3.096 -0.3926  0.6241 -0.3881
  198DOPC    HX24523   6.578   6.554   3.202  2.6741 -0.6778  0.3716
  198DOPC    HY24524   6.693   6.523   3.063 -0.3325 -0.9970 -0.3140
  198DOPC   O3124525   6.547   6.380   3.085 -0.5933 -0.1638 -0.1238
  198DOPC   C3124526   6.459   6.346   3.185 -0.6185  0.1276  0.9665
  198DOPC   O3224527   6.419   6.417   3.268  0.0432 -0.2729 -0.0466
  198DOPC   C3224528   6.421   6.194   3.175  0.1304  0.0379 -0.4235
  198DOPC   H2X24529   6.390   6.170   3.072 -0.0698 -0.2641 -0.2931
  198DOPC   H2Y24530   6.516   6.142   3.198  0.3584  1.2017  1.5119
  198DOPC   C2324531   6.487   7.087   3.009  0.7280 -0.4940  0.0549
  198DOPC   H3R24532   6.452   7.068   3.113  0.4764  1.1608  0.2911
  198DOPC   H3S24533   6.401   7.103   2.941  0.9505 -0.1712 -0.1500
  198DOPC   C2424534   6.565   7.219   3.007 -0.5188  0.0962  0.8285
  198DOPC   H4R24535   6.505   7.308   3.037  1.1259  2.1703 -1.6333
  198DOPC   H4S24536   6.609   7.242   2.908 -1.5070  1.4934  0.6866
  198DOPC   C2524537   6.688   7.220   3.105 -0.4479 -0.3866 -0.0217
  198DOPC   H5R24538   6.731   7.117   3.110 -2.9374 -1.4992  0.3542
  198DOPC   H5S24539   6.647   7.252   3.204 -1.1497  1.6974 -0.9307
  198DOPC   C2624540   6.792   7.314   3.048  0.3380 -0.1128 -0.6321
  198DOPC   H6R24541   6.755   7.419   3.049 -1.3101 -0.6543  1.6054
  198DOPC   H6S24542   6.810   7.286   2.942  1.4703  1.1332 -0.8080
  198DOPC   C2724543   6.929   7.303   3.119  0.2197 -0.5702 -0.2605
  198DOPC   H7R24544   6.950   7.195   3.134 -1.5234 -0.9533 -0.3252
  198DOPC   H7S24545   6.911   7.333   3.224  0.4379 -0.2496 -0.3133
  198DOPC   C2824546   7.046   7.368   3.050  0.5184 -0.2355 -0.3420
  198DOPC   H8R24547   7.063   7.340   2.944  0.3045  1.4474 -0.8490
  198DOPC   H8S24548   7.135   7.344   3.113 -0.7318 -0.0322  1.5831
  198DOPC   C2924549   7.030   7.522   3.042  0.2536  0.5701 -0.0947
  198DOPC   H9R24550   6.966   7.559   2.960 -0.3087 -1.5219 -0.6672
  198DOPC  C21024551   7.103   7.611   3.107  0.1406  0.7174  0.5641
  198DOPC  H10R24552   7.084   7.718   3.090  2.9192  1.3887  1.1512
  198DOPC  C21124553   7.210   7.590   3.210  0.4848 -0.7111  0.8993
  198DOPC  H11R24554   7.300   7.541   3.169  0.4959  0.0174  0.0390
  198DOPC  H11S24555   7.174   7.516   3.285  0.1043 -3.5344 -1.8614
  198DOPC  C21224556   7.251   7.718   3.285 -0.1699 -0.7243 -0.4543
  198DOPC  H12R24557   7.165   7.772   3.330 -0.1889 -1.5135  0.5024
  198DOPC  H12S24558   7.296   7.792   3.217 -0.4925  1.6016  1.7247
  198DOPC  C21324559   7.343   7.695   3.404 -0.0272  0.1112  0.4295
  198DOPC  H13R24560   7.360   7.795   3.450  1.2514 -0.1839  0.6192
  198DOPC  H13S24561   7.437   7.659   3.357 -1.5837 -1.4886 -1.6562
  198DOPC  C21424562   7.286   7.592   3.509  0.5683 -0.2322  0.3798
  198DOPC  H14R24563   7.296   7.487   3.474  2.1783 -0.1655  0.5351
  198DOPC  H14S24564   7.176   7.606   3.505  0.4648 -0.7413  1.0841
  198DOPC  C21524565   7.332   7.592   3.658 -0.0260  0.3800 -0.2073
  198DOPC  H15R24566   7.331   7.697   3.695 -0.3364  0.4143 -0.3127
  198DOPC  H15S24567   7.440   7.566   3.652 -0.5885 -1.8337 -5.1511
  198DOPC  C21624568   7.260   7.497   3.758  0.1323 -0.0227  0.7340
  198DOPC  H16R24569   7.274   7.394   3.720  0.0919  0.5991 -1.0763
  198DOPC  H16S24570   7.150   7.508   3.758  0.1629  0.3411  0.2199
  198DOPC  C21724571   7.307   7.515   3.906  0.6984  0.5925 -0.2375
  198DOPC  H17R24572   7.294   7.623   3.932  0.9706  1.0685 -1.9398
  198DOPC  H17S24573   7.413   7.483   3.902 -0.1953 -2.9149  1.3547
  198DOPC  C21824574   7.253   7.412   4.003 -0.3890 -0.8018 -0.0124
  198DOPC  H18R24575   7.310   7.429   4.097  0.8114  1.4250 -1.0763
  198DOPC  H18S24576   7.274   7.307   3.971  2.4170 -0.0805 -0.7845
  198DOPC  H18T24577   7.146   7.429   4.029  0.0776  0.2938  1.2583
  198DOPC   C3324578   6.327   6.157   3.291  0.3747  0.4318  0.0969
  198DOPC   H3X24579   6.233   6.217   3.287  1.3011  2.1909  2.5500
  198DOPC   H3Y24580   6.364   6.184   3.392  1.3716 -0.1761 -0.0951
  198DOPC   C3424581   6.287   6.009   3.284  0.8589 -0.3921  0.4068
  198DOPC   H4X24582   6.367   5.936   3.309  0.4865 -2.3836 -3.4902
  198DOPC   H4Y24583   6.258   5.973   3.183 -1.7363 -0.6306  1.1633
  198DOPC   C3524584   6.163   5.984   3.374  0.2418 -0.0798  0.1540
  198DOPC   H5X24585   6.133   5.878   3.360  0.1785 -0.0078 -0.2568
  198DOPC   H5Y24586   6.081   6.055   3.354  0.0819  0.4499  2.3760
  198DOPC   C3624587   6.189   6.002   3.528 -0.1003 -0.0848 -0.0750
  198DOPC   H6X24588   6.251   5.920   3.572  0.1105 -0.7339 -1.5054
  198DOPC   H6Y24589   6.246   6.097   3.538 -3.3683  1.9665  0.2489
  198DOPC   C3724590   6.065   6.037   3.612 -0.0366  0.5733 -0.2782
  198DOPC   H7X24591   6.015   6.121   3.559  0.0892 -0.0031 -1.3377
  198DOPC   H7Y24592   5.993   5.953   3.617 -0.1636  0.7223  0.6550
  198DOPC   C3824593   6.103   6.088   3.756  0.4859  0.0921 -0.0067
  198DOPC   H8X24594   6.009   6.135   3.791 -1.2356  0.6758 -4.6564
  198DOPC   H8Y24595   6.181   6.167   3.750  0.9494 -0.4636 -2.8182
  198DOPC   C3924596   6.129   5.973   3.852 -0.2850 -0.0094  0.4213
  198DOPC   H9X24597   6.143   5.870   3.816  1.0393 -0.1377  1.2480
  198DOPC  C31024598   6.147   5.994   3.984 -0.4168 -0.3352 -0.0153
  198DOPC  H10X24599   6.171   5.907   4.046 -1.0146 -0.9291 -0.5971
  198DOPC  C31124600   6.131   6.128   4.051 -0.8271 -0.1215 -0.3314
  198DOPC  H11X24601   6.091   6.120   4.155 -1.0504  1.0488 -0.3073
  198DOPC  H11Y24602   6.063   6.204   4.006 -1.1343  0.7700  1.4994
  198DOPC  C31224603   6.268   6.201   4.055 -0.5168  0.7147 -0.2449
  198DOPC  H12X24604   6.261   6.298   4.110  0.5717  0.4815  0.3364
  198DOPC  H12Y24605   6.297   6.249   3.959  0.7937  2.9826  1.1800
  198DOPC  C31324606   6.386   6.130   4.124 -0.1270  0.7774 -0.1991
  198DOPC  H13X24607   6.426   6.047   4.061  0.8982 -0.0862  1.5236
  198DOPC  H13Y24608   6.476   6.195   4.125  1.5543 -1.4031 -1.1877
  198DOPC  C31424609   6.349   6.060   4.255  0.2071 -0.6832 -0.0736
  198DOPC  H14X24610   6.271   5.983   4.239  0.2482 -1.4109  2.7673
  198DOPC  H14Y24611   6.438   6.001   4.287 -0.2747 -2.1388 -1.3346
  198DOPC  C31524612   6.308   6.158   4.368 -0.3289  0.3627 -0.1983
  198DOPC  H15X24613   6.277   6.101   4.458 -1.8538 -0.0860 -0.9833
  198DOPC  H15Y24614   6.227   6.217   4.321  0.3252  3.5966  2.3266
  198DOPC  C31624615   6.420   6.252   4.416 -0.3185 -0.8534 -0.1490
  198DOPC  H16X24616   6.520   6.207   4.434  0.1656  0.7126  1.3436
  198DOPC  H16Y24617   6.442   6.321   4.332  1.0649  0.0073  0.8866
  198DOPC  C31724618   6.386   6.338   4.540  0.1467 -0.2553  0.9674
  198DOPC  H17X24619   6.367   6.273   4.628 -1.0922 -1.7196 -0.3194
  198DOPC  H17Y24620   6.472   6.407   4.556  0.4331 -0.1069 -1.0521
  198DOPC  C31824621   6.263   6.428   4.518 -0.7198  0.7145 -0.1942
  198DOPC  H18X24622   6.255   6.497   4.605 -1.5109 -2.0291  2.0711
  198DOPC  H18Y24623   6.265   6.470   4.416 -1.2863 -2.8575 -1.8220
  198DOPC  H18Z24624   6.167   6.372   4.515  0.2833 -1.0308 -2.9005
  199DOPC     N24625   5.671   0.486   2.073 -0.2527 -0.0264  0.4595
  199DOPC   C1224626   5.681   0.570   2.196 -0.3818 -0.4765  0.1127
  199DOPC  H12A24627   5.597   0.637   2.189 -0.3549 -0.4346  0.1973
  199DOPC  H12B24628   5.773   0.625   2.182  1.1103 -2.2585  2.1865
  199DOPC   C1324629   5.802   0.404   2.051 -0.2564 -0.1600 -0.8439
  199DOPC  H13A24630   5.787   0.328   1.977  1.3252  0.9082 -2.3355
  199DOPC  H13B24631   5.876   0.468   2.006 -1.6397  0.8053 -1.8455
  199DOPC  H13C24632   5.827   0.371   2.151 -1.6048  0.6633 -0.1923
  199DOPC   C1424633   5.647   0.561   1.951  0.3336 -0.0877 -0.6536
  199DOPC  H14A24634   5.724   0.634   1.930 -0.4090 -0.1455 -4.2938
  199DOPC  H14B24635   5.654   0.490   1.870  1.4077  0.8905 -1.4570
  199DOPC  H14C24636   5.548   0.599   1.934  0.3546  1.1777  1.7033
  199DOPC   C1524637   5.559   0.386   2.092  0.0435 -0.0344  0.0726
  199DOPC  H15A24638   5.585   0.322   2.176 -0.9249  1.0062  1.2062
  199DOPC  H15B24639   5.547   0.321   2.007  0.2342  0.1469 -0.0934
  199DOPC  H15C24640   5.467   0.437   2.117  0.6430  0.5704  1.1455
  199DOPC   C1124641   5.695   0.506   2.338  0.0063  0.6764  0.1482
  199DOPC  H11A24642   5.683   0.580   2.421 -3.8216  2.4560 -1.6913
  199DOPC  H11B24643   5.617   0.428   2.355 -0.2802  0.9897  0.2977
  199DOPC     P24644   5.945   0.516   2.383 -0.2558  0.2544 -0.4391
  199DOPC   O1324645   5.948   0.612   2.277  0.2942 -0.6237 -0.0679
  199DOPC   O1424646   6.069   0.434   2.394 -0.2944 -0.3650  0.5105
  199DOPC   O1224647   5.815   0.428   2.348  0.1150 -0.4959 -0.0157
  199DOPC   O1124648   5.912   0.584   2.517  0.1796 -0.4669  0.2695
  199DOPC    C124649   5.885   0.523   2.639  0.1529 -0.0306 -0.4132
  199DOPC    HA24650   5.899   0.413   2.631 -2.0566 -0.3343 -0.7655
  199DOPC    HB24651   5.779   0.543   2.668 -0.2574 -1.1032 -1.1064
  199DOPC    C224652   5.995   0.568   2.736  0.5640  0.3911 -0.7821
  199DOPC    HS24653   5.983   0.494   2.818 -1.3655 -2.8687 -3.7403
  199DOPC   O2124654   5.984   0.702   2.786  0.0379  0.2207  0.9417
  199DOPC   C2124655   5.898   0.729   2.875 -0.3198  0.5261 -0.6235
  199DOPC   O2224656   5.833   0.645   2.937  0.2307 -0.5379 -0.3266
  199DOPC   C2224657   5.901   0.878   2.896  0.6316 -0.2897  0.1224
  199DOPC   H2R24658   5.821   0.926   2.835  0.8174 -0.7411 -0.4862
  199DOPC   H2S24659   5.996   0.924   2.860  0.1072 -0.1485 -1.1523
  199DOPC    C324660   6.135   0.545   2.669 -0.0446 -0.5453 -1.3235
  199DOPC    HX24661   6.152   0.635   2.607  0.9263  0.0942 -0.1719
  199DOPC    HY24662   6.126   0.448   2.614 -0.5030 -2.4735  1.8665
  199DOPC   O3124663   6.239   0.544   2.772  0.3408  0.1019  0.6274
  199DOPC   C3124664   6.254   0.429   2.840 -0.0087  0.3986  0.1962
  199DOPC   O3224665   6.186   0.328   2.825 -0.0352 -0.1788  0.4564
  199DOPC   C3224666   6.343   0.457   2.960 -0.0479 -0.2490  0.4320
  199DOPC   H2X24667   6.398   0.365   2.990 -1.2308 -0.2919  2.6594
  199DOPC   H2Y24668   6.408   0.541   2.926 -0.7518 -0.6068 -2.0119
  199DOPC   C2324669   5.882   0.916   3.042 -0.4640 -0.2330 -0.0182
  199DOPC   H3R24670   5.805   0.849   3.085 -0.5510 -1.2008 -1.6085
  199DOPC   H3S24671   5.843   1.019   3.050 -3.0324 -1.1646  0.4824
  199DOPC   C2424672   6.021   0.900   3.119 -0.3743 -0.0842  0.0050
  199DOPC   H4R24673   6.109   0.928   3.058  0.4812 -0.3703  1.0746
  199DOPC   H4S24674   6.021   0.791   3.137 -1.5138 -0.1998 -0.5959
  199DOPC   C2524675   6.021   0.997   3.240  0.3671  0.2490 -0.0465
  199DOPC   H5R24676   5.925   0.958   3.280  0.1547 -0.9120 -1.5872
  199DOPC   H5S24677   6.016   1.102   3.203 -1.6023  0.5056  0.8572
  199DOPC   C2624678   6.133   0.974   3.346 -0.2397 -0.6878  1.1093
  199DOPC   H6R24679   6.230   0.982   3.293 -0.5763 -0.7494  0.4748
  199DOPC   H6S24680   6.117   0.872   3.388 -0.9113 -1.0636  0.0037
  199DOPC   C2724681   6.135   1.076   3.464 -0.1817  0.4020  0.1560
  199DOPC   H7R24682   6.046   1.052   3.527 -0.5002 -0.4928 -0.6091
  199DOPC   H7S24683   6.112   1.180   3.430 -0.1726 -0.0693 -1.3846
  199DOPC   C2824684   6.258   1.063   3.557  0.0372  0.5473 -0.8040
  199DOPC   H8R24685   6.345   1.067   3.488 -1.1313 -2.7906 -2.7041
  199DOPC   H8S24686   6.266   0.960   3.597 -0.0433  1.0081  0.4685
  199DOPC   C2924687   6.256   1.165   3.678  0.1298  0.5245  0.2835
  199DOPC   H9R24688   6.191   1.254   3.668 -0.4668 -0.1149 -2.6051
  199DOPC  C21024689   6.319   1.155   3.795 -0.3732 -0.1016 -0.0941
  199DOPC  H10R24690   6.310   1.237   3.868  0.7450  0.2899 -0.3787
  199DOPC  C21124691   6.401   1.044   3.843  0.2873  0.3010 -0.2985
  199DOPC  H11R24692   6.505   1.081   3.857  0.6916 -0.2331 -1.7408
  199DOPC  H11S24693   6.405   0.956   3.776 -1.7534 -0.3671  0.3882
  199DOPC  C21224694   6.365   0.987   3.976  0.6929  0.2248  0.1446
  199DOPC  H12R24695   6.427   0.898   3.998 -0.4964 -0.2585  1.7169
  199DOPC  H12S24696   6.263   0.946   3.962  0.7765  0.6959 -2.2109
  199DOPC  C21324697   6.355   1.081   4.096 -0.0764  0.4259 -0.7339
  199DOPC  H13R24698   6.277   1.159   4.085 -1.3317 -0.5303  0.9696
  199DOPC  H13S24699   6.447   1.138   4.120 -0.9169  2.3434 -1.8373
  199DOPC  C21424700   6.326   0.994   4.222  0.5776  0.7781  0.6630
  199DOPC  H14R24701   6.403   0.915   4.234  1.2656  0.4238 -4.0809
  199DOPC  H14S24702   6.233   0.948   4.182  1.2564  1.0880 -1.4206
  199DOPC  C21524703   6.296   1.084   4.351 -0.1178 -0.3455 -0.3441
  199DOPC  H15R24704   6.223   1.036   4.419 -1.2102  0.1861 -1.1142
  199DOPC  H15S24705   6.244   1.177   4.317  0.2833  0.9403  2.3016
  199DOPC  C21624706   6.426   1.125   4.435 -0.4336 -1.0119  0.3410
  199DOPC  H16R24707   6.489   1.191   4.372 -0.4293 -1.1567  0.1903
  199DOPC  H16S24708   6.479   1.031   4.463 -1.7407 -0.8557  3.8494
  199DOPC  C21724709   6.392   1.200   4.561 -0.2027  0.2758  0.1364
  199DOPC  H17R24710   6.345   1.131   4.634  1.3126 -0.9436  0.0004
  199DOPC  H17S24711   6.337   1.294   4.537 -0.8508 -0.9867 -4.1134
  199DOPC  C21824712   6.530   1.241   4.614 -0.3244 -0.7270 -0.0792
  199DOPC  H18R24713   6.530   1.302   4.707  1.0862  1.2004 -1.2534
  199DOPC  H18S24714   6.589   1.294   4.536 -2.1892  0.2225 -0.9183
  199DOPC  H18T24715   6.587   1.151   4.645  0.6098  0.0110  0.4303
  199DOPC   C3324716   6.263   0.522   3.075 -0.5872 -0.8159 -0.2031
  199DOPC   H3X24717   6.205   0.441   3.125 -0.2025 -0.5896  0.6216
  199DOPC   H3Y24718   6.205   0.612   3.046 -0.2948 -0.0630  1.4171
  199DOPC   C3424719   6.368   0.562   3.179  0.3479  0.3592  0.0753
  199DOPC   H4X24720   6.447   0.620   3.128  1.6501 -1.1279  0.3318
  199DOPC   H4Y24721   6.412   0.467   3.217 -1.5712 -0.4819  0.3465
  199DOPC   C3524722   6.305   0.633   3.297 -0.2738  0.2696  0.3586
  199DOPC   H5X24723   6.212   0.582   3.329 -0.5118 -0.1603 -0.9776
  199DOPC   H5Y24724   6.270   0.730   3.257  0.8855  0.7703  0.5041
  199DOPC   C3624725   6.404   0.656   3.418 -0.0914  0.3102  0.2405
  199DOPC   H6X24726   6.333   0.673   3.501 -2.0423 -0.1620 -1.2480
  199DOPC   H6Y24727   6.460   0.563   3.442 -0.3007  0.1597  0.1611
  199DOPC   C3724728   6.504   0.767   3.387  0.0671 -0.4239  0.3040
  199DOPC   H7X24729   6.573   0.721   3.312  0.7422  0.6439  0.2384
  199DOPC   H7Y24730   6.459   0.848   3.325  1.0653 -1.0472 -1.3306
  199DOPC   C3824731   6.579   0.818   3.516  0.1743  0.0813 -0.2342
  199DOPC   H8X24732   6.505   0.838   3.596 -0.9603  0.0342 -1.2447
  199DOPC   H8Y24733   6.620   0.916   3.485  0.7027  0.1125  0.5420
  199DOPC   C3924734   6.682   0.720   3.555  0.2486  0.5109  0.4118
  199DOPC   H9X24735   6.732   0.673   3.469 -3.1593 -0.5260 -1.1823
  199DOPC  C31024736   6.716   0.673   3.681  0.1559  0.6907 -0.3552
  199DOPC  H10X24737   6.802   0.604   3.679  1.4145  2.2050 -0.8631
  199DOPC  C31124738   6.665   0.726   3.813 -0.8046 -0.1987 -0.0301
  199DOPC  H11X24739   6.629   0.829   3.795 -3.2171 -0.8964  0.4909
  199DOPC  H11Y24740   6.745   0.720   3.890 -0.7659  2.3320  0.2077
  199DOPC  C31224741   6.558   0.636   3.872  0.4630 -0.2570  0.1789
  199DOPC  H12X24742   6.481   0.601   3.800 -0.3107 -1.5744  1.5730
  199DOPC  H12Y24743   6.513   0.690   3.958  0.3565 -0.8085  0.4746
  199DOPC  C31324744   6.607   0.510   3.936 -0.2890 -0.0642 -0.2902
  199DOPC  H13X24745   6.657   0.436   3.869  0.1385 -0.4314  0.4204
  199DOPC  H13Y24746   6.680   0.540   4.014 -1.4634 -0.2138  0.8937
  199DOPC  C31424747   6.498   0.423   3.995 -0.2097  0.3484  0.2285
  199DOPC  H14X24748   6.417   0.389   3.926 -0.4013  1.9249 -0.3563
  199DOPC  H14Y24749   6.543   0.325   4.022  0.6317  0.9263  0.9832
  199DOPC  C31524750   6.444   0.472   4.129 -0.3379  0.0469  0.0078
  199DOPC  H15X24751   6.375   0.394   4.167  2.4816 -2.2414  0.6997
  199DOPC  H15Y24752   6.404   0.576   4.125 -0.0274  0.1359 -1.2346
  199DOPC  C31624753   6.553   0.490   4.236  0.4565 -0.2989  0.0177
  199DOPC  H16X24754   6.630   0.411   4.232  0.8273 -0.0394  1.4377
  199DOPC  H16Y24755   6.604   0.588   4.231  1.5796 -0.8394  0.5930
  199DOPC  C31724756   6.497   0.474   4.375 -0.0627 -0.5764 -0.1032
  199DOPC  H17X24757   6.430   0.562   4.388  0.9062  0.2035 -0.2134
  199DOPC  H17Y24758   6.427   0.389   4.391  1.5576 -1.8347  0.5422
  199DOPC  C31824759   6.599   0.470   4.487  0.6221 -0.0450  0.7824
  199DOPC  H18X24760   6.543   0.497   4.579  0.1355 -0.6809  0.6793
  199DOPC  H18Y24761   6.634   0.364   4.494 -0.1465 -0.2671  1.3401
  199DOPC  H18Z24762   6.676   0.546   4.460  0.4350  0.2519  1.0811
  200DOPC     N24763   0.874   0.290   2.551 -0.4246 -0.0736  0.5514
  200DOPC   C1224764   0.733   0.334   2.529 -0.4648 -0.5381 -0.1865
  200DOPC  H12A24765   0.667   0.266   2.580 -0.1197 -2.0176 -1.6513
  200DOPC  H12B24766   0.708   0.330   2.424  3.5837  1.7765 -1.4907
  200DOPC   C1324767   0.887   0.143   2.547 -0.4696 -0.0063 -0.1050
  200DOPC  H13A24768   0.818   0.083   2.604  2.0522 -3.8447 -0.7036
  200DOPC  H13B24769   0.869   0.104   2.447  0.9390  1.4685 -0.9761
  200DOPC  H13C24770   0.983   0.102   2.574 -1.1958 -3.3155 -1.9428
  200DOPC   C1424771   0.928   0.328   2.681 -0.0418  0.2132 -0.4168
  200DOPC  H14A24772   0.958   0.432   2.684  1.6258 -0.2447  0.0045
  200DOPC  H14B24773   0.860   0.315   2.764 -0.0079  1.1836 -0.2184
  200DOPC  H14C24774   1.010   0.263   2.707  0.1747  1.2819  1.8389
  200DOPC   C1524775   0.951   0.345   2.434 -0.1335 -0.1017 -0.0258
  200DOPC  H15A24776   0.943   0.452   2.442  0.6218  0.0193 -0.7008
  200DOPC  H15B24777   0.903   0.314   2.343 -2.4957 -0.6976  1.3480
  200DOPC  H15C24778   1.056   0.317   2.435 -0.5482 -2.1653 -2.8041
  200DOPC   C1124779   0.690   0.480   2.561  0.1334 -0.5591 -0.0459
  200DOPC  H11A24780   0.754   0.557   2.513 -0.4565 -0.7986 -1.2527
  200DOPC  H11B24781   0.590   0.494   2.516  0.1962  1.0222  0.2596
  200DOPC     P24782   0.607   0.635   2.758  0.0672  0.2064 -0.0030
  200DOPC   O1324783   0.460   0.612   2.748 -0.2866  0.3946 -0.6871
  200DOPC   O1424784   0.665   0.749   2.686 -0.1933 -0.1309  0.0792
  200DOPC   O1224785   0.676   0.501   2.705 -0.4400 -0.5316  0.4786
  200DOPC   O1124786   0.653   0.627   2.914  0.1983 -0.2026 -0.5326
  200DOPC    C124787   0.784   0.653   2.963  0.5017  0.3358 -0.5566
  200DOPC    HA24788   0.791   0.757   3.000 -1.7103  0.0541  0.8256
  200DOPC    HB24789   0.852   0.644   2.876  2.6295  4.2846  0.4653
  200DOPC    C224790   0.833   0.546   3.069 -0.3728 -0.0619  0.0618
  200DOPC    HS24791   0.835   0.451   3.012 -0.8995 -0.6249  0.9681
  200DOPC   O2124792   0.750   0.561   3.183  0.0877  0.2688  0.3079
  200DOPC   C2124793   0.727   0.450   3.252  0.0058  0.6878 -0.8092
  200DOPC   O2224794   0.749   0.336   3.213 -0.7413  0.0903  0.4412
  200DOPC   C2224795   0.677   0.479   3.393 -0.6477 -0.2189  0.5141
  200DOPC   H2R24796   0.571   0.447   3.383 -0.1565 -1.1927 -2.5550
  200DOPC   H2S24797   0.693   0.586   3.418 -0.7874 -0.3572  1.2336
  200DOPC    C324798   0.980   0.569   3.107 -1.2564  0.0497 -0.3216
  200DOPC    HX24799   0.978   0.676   3.134 -0.6733  1.6071 -5.4118
  200DOPC    HY24800   1.050   0.574   3.020 -2.4464 -1.7061 -1.4579
  200DOPC   O3124801   1.037   0.476   3.203  0.0018 -0.4352 -0.3306
  200DOPC   C3124802   1.104   0.535   3.302  0.8548  0.1314  0.1287
  200DOPC   O3224803   1.120   0.651   3.321  0.0378 -0.4943 -0.4620
  200DOPC   C3224804   1.173   0.418   3.374  0.2655 -0.7013  0.4745
  200DOPC   H2X24805   1.088   0.356   3.411 -1.5249  2.0796  1.2693
  200DOPC   H2Y24806   1.240   0.356   3.310 -1.5816 -3.3384  0.9057
  200DOPC   C2324807   0.725   0.383   3.499 -0.0283  0.0279  0.3489
  200DOPC   H3R24808   0.832   0.410   3.513  0.1241  0.0221 -0.7532
  200DOPC   H3S24809   0.718   0.275   3.473  2.6234 -0.4511  1.2469
  200DOPC   C2424810   0.663   0.395   3.637  0.2390  0.1439  0.2013
  200DOPC   H4R24811   0.554   0.373   3.640  0.5848 -1.7357  1.0936
  200DOPC   H4S24812   0.666   0.501   3.670  0.6788 -0.0614  0.8267
  200DOPC   C2524813   0.731   0.315   3.752 -0.2208 -0.0115  0.4597
  200DOPC   H5R24814   0.831   0.357   3.776 -0.9779  1.9721  0.2611
  200DOPC   H5S24815   0.736   0.205   3.732 -2.0308 -1.1741  5.1052
  200DOPC   C2624816   0.662   0.328   3.885 -0.4786  0.2441  0.2267
  200DOPC   H6R24817   0.560   0.286   3.871 -0.1942 -1.0917  1.8819
  200DOPC   H6S24818   0.651   0.438   3.900  1.8116  0.4816  0.6111
  200DOPC   C2724819   0.744   0.261   3.994  0.9581 -0.4876  0.0899
  200DOPC   H7R24820   0.848   0.299   3.986  0.5175  0.6064 -0.5888
  200DOPC   H7S24821   0.750   0.152   3.972  0.1496 -0.2746 -1.2775
  200DOPC   C2824822   0.675   0.286   4.130 -0.8142  0.0665 -0.7011
  200DOPC   H8R24823   0.568   0.262   4.146 -0.7021  0.9038  1.7292
  200DOPC   H8S24824   0.695   0.393   4.151  1.0632 -0.8860  3.2624
  200DOPC   C2924825   0.768   0.223   4.235 -0.1016  0.5552 -0.7709
  200DOPC   H9R24826   0.868   0.265   4.256 -0.2781  0.5460  0.1217
  200DOPC  C21024827   0.736   0.122   4.315  0.4487 -0.9083 -0.0110
  200DOPC  H10R24828   0.799   0.097   4.402 -0.0185  2.9485  1.6587
  200DOPC  C21124829   0.610   0.040   4.315 -0.9022 -0.5437  0.3945
  200DOPC  H11R24830   0.630  -0.069   4.316 -0.5170 -0.5454 -1.7705
  200DOPC  H11S24831   0.538   0.065   4.234 -1.6900  3.9290  2.1630
  200DOPC  C21224832   0.534   0.078   4.447 -0.2369  0.2386  0.3598
  200DOPC  H12R24833   0.509   0.187   4.445 -0.5457  0.2387  2.3301
  200DOPC  H12S24834   0.594   0.067   4.540  1.4338  2.0713 -0.4217
  200DOPC  C21324835   0.403   0.001   4.466 -0.0868 -0.2239  0.4766
  200DOPC  H13R24836   0.418  -0.109   4.472  0.8945 -0.0767  1.0188
  200DOPC  H13S24837   0.346   0.021   4.373  1.6435 -0.9707 -0.7858
  200DOPC  C21424838   0.319   0.038   4.582 -0.6470 -0.6228 -1.0354
  200DOPC  H14R24839   0.221  -0.013   4.568 -0.1454 -1.4208 -1.7426
  200DOPC  H14S24840   0.299   0.147   4.589  3.4729  0.2830 -1.2325
  200DOPC  C21524841   0.369  -0.012   4.721 -0.3066 -0.0587  0.3250
  200DOPC  H15R24842   0.458   0.049   4.746 -0.9463  2.0706 -2.1317
  200DOPC  H15S24843   0.394  -0.120   4.730 -2.2486 -0.5024  0.9831
  200DOPC  C21624844   0.274   0.034   4.834 -0.3917 -0.5277 -0.0707
  200DOPC  H16R24845   0.168   0.013   4.806  0.2772 -1.8248 -1.8807
  200DOPC  H16S24846   0.279   0.143   4.853  0.0623 -0.7969  1.5012
  200DOPC  C21724847   0.308  -0.038   4.958 -0.8075  0.3401 -0.5926
  200DOPC  H17R24848   0.410  -0.010   4.991 -0.4451 -2.3294  0.8666
  200DOPC  H17S24849   0.311  -0.145   4.929  0.2894  0.8089 -2.3571
  200DOPC  C21824850   0.211  -0.006   5.076  0.7319  0.2024  0.6218
  200DOPC  H18R24851   0.232  -0.048   5.177  2.1021 -2.7917 -0.7709
  200DOPC  H18S24852   0.103  -0.022   5.056  0.4445  0.3318  2.0260
  200DOPC  H18T24853   0.214   0.104   5.086 -0.2099  0.2423  0.5151
  200DOPC   C3324854   1.247   0.469   3.506 -0.3702 -0.4451 -0.7723
  200DOPC   H3X24855   1.336   0.530   3.477 -0.0935 -0.1495  0.6178
  200DOPC   H3Y24856   1.290   0.380   3.557 -2.0430 -0.5018  0.6281
  200DOPC   C3424857   1.148   0.534   3.605 -0.7664  0.0515 -0.0342
  200DOPC   H4X24858   1.048   0.486   3.618 -0.2937 -0.5746  1.4777
  200DOPC   H4Y24859   1.115   0.628   3.557  0.1322  0.1393 -0.4984
  200DOPC   C3524860   1.211   0.555   3.738  0.6225  0.1052 -0.1785
  200DOPC   H5X24861   1.306   0.609   3.721  1.7035 -1.9831 -1.1696
  200DOPC   H5Y24862   1.245   0.457   3.778  0.5395 -0.2988 -1.0748
  200DOPC   C3624863   1.121   0.626   3.838 -0.3003  0.3173  0.8288
  200DOPC   H6X24864   1.088   0.725   3.802 -1.9772 -1.0102 -1.5456
  200DOPC   H6Y24865   1.033   0.562   3.856 -0.6288  0.3257 -0.6093
  200DOPC   C3724866   1.184   0.646   3.978 -0.2513 -0.0010 -0.0284
  200DOPC   H7X24867   1.241   0.557   4.012  3.1453  1.7183 -0.8300
  200DOPC   H7Y24868   1.271   0.715   3.972  1.8468 -2.2346  2.3316
  200DOPC   C3824869   1.085   0.693   4.086 -0.5794 -0.3269 -0.3310
  200DOPC   H8X24870   1.013   0.770   4.051 -1.1911 -0.0179  1.4904
  200DOPC   H8Y24871   1.152   0.758   4.146  1.4622 -2.6144 -0.0144
  200DOPC   C3924872   1.021   0.584   4.175  0.0589 -0.5671  0.3569
  200DOPC   H9X24873   0.958   0.513   4.120  0.7273 -1.3620  0.5861
  200DOPC  C31024874   1.021   0.567   4.306  0.1890  0.2787  0.0471
  200DOPC  H10X24875   0.959   0.483   4.342 -1.0365  1.1446  0.0076
  200DOPC  C31124876   1.098   0.653   4.403 -0.3166  0.3027  0.0489
  200DOPC  H11X24877   1.047   0.637   4.500 -0.4636 -0.9659 -0.2206
  200DOPC  H11Y24878   1.090   0.761   4.375 -0.6366  0.0381 -0.9211
  200DOPC  C31224879   1.248   0.619   4.404  0.2352 -0.2849 -0.4041
  200DOPC  H12X24880   1.286   0.660   4.308  1.5922  2.6026  1.2517
  200DOPC  H12Y24881   1.283   0.513   4.407  0.7093 -0.1095  0.9821
  200DOPC  C31324882   1.304   0.705   4.518 -0.7969 -0.4177  0.0253
  200DOPC  H13X24883   1.283   0.812   4.494  3.2107  0.6571  0.6540
  200DOPC  H13Y24884   1.261   0.675   4.617 -1.3251 -0.4838 -0.2198
  200DOPC  C31424885   1.452   0.710   4.521 -0.3089  0.2897 -0.0428
  200DOPC  H14X24886   1.488   0.751   4.424  0.5093  0.2078  0.2185
  200DOPC  H14Y24887   1.490   0.767   4.608  0.2384  0.3392 -0.3108
  200DOPC  C31524888   1.516   0.572   4.535  0.1904  0.7164  0.6786
  200DOPC  H15X24889   1.500   0.508   4.445 -1.9864 -0.6823  1.9619
  200DOPC  H15Y24890   1.488   0.532   4.635 -1.3711 -0.3252 -0.1301
  200DOPC  C31624891   1.672   0.581   4.522 -0.1821  0.2938 -0.0144
  200DOPC  H16X24892   1.700   0.641   4.434 -1.4575  0.2497 -0.4696
  200DOPC  H16Y24893   1.699   0.642   4.611  0.6527 -1.0238  0.6748
  200DOPC  C31724894   1.747   0.443   4.533  0.1600 -0.1732  0.3249
  200DOPC  H17X24895   1.847   0.472   4.574 -0.5548  2.9498  0.1247
  200DOPC  H17Y24896   1.695   0.382   4.610  1.2591 -1.6133 -0.0372
  200DOPC  C31824897   1.753   0.368   4.404 -0.1512  0.1330 -0.1652
  200DOPC  H18X24898   1.784   0.443   4.328 -0.3530  0.8184  0.4224
  200DOPC  H18Y24899   1.826   0.284   4.398 -1.3774 -1.0073  0.3286
  200DOPC  H18Z24900   1.658   0.327   4.365  1.7633 -2.6811 -2.3458
  201SOD    SOD24901   3.052   1.612   9.605  0.0054 -0.2112  0.5518
  202SOD    SOD24902   6.453   1.444   1.241  0.0851  0.0747  0.0582
  203SOD    SOD24903   5.651   6.272   6.942 -0.1185 -0.0105  0.2069
  204SOD    SOD24904   1.263   5.170   8.317  0.2747 -0.3512 -0.2669
  205SOD    SOD24905   7.305   0.938   9.477  0.4751 -0.0888 -0.5040
  206SOD    SOD24906   4.509   2.376   9.530  0.4558  0.0522  0.1638
  207SOD    SOD24907   6.131   6.789   1.748 -0.1723 -0.3443  0.2206
  208SOD    SOD24908   2.683   1.950   8.434 -0.1214  0.2324 -0.6190
  209SOD    SOD24909   0.685   3.003   9.011 -0.6773  0.2153 -0.0266
  210SOD    SOD24910   3.880   5.743   7.171 -0.2861 -0.0104 -0.4511
  211SOD    SOD24911   6.802   0.600   8.798  0.4404 -0.0009 -0.0165
  212SOD    SOD24912   4.696   1.832   2.461  0.0961 -0.1617  0.4779
  213SOD    SOD24913   7.209   1.831   7.945  0.0573 -0.0785  0.7561
  214SOD    SOD24914   5.396   2.883   8.523 -0.0590  0.0882  0.8746
  215SOD    SOD24915   0.893   4.761   0.676 -0.3673 -0.3335  0.0231
  216SOD    SOD24916   4.976   3.923   0.890  0.1070  0.8767  0.1161
  217SOD    SOD24917   4.381   1.488   8.108 -0.1301 -0.3057  0.1641
  218SOD    SOD24918   3.102   4.543   2.131  0.1390 -0.1144 -0.1287
  219SOD    SOD24919   3.643   6.370   7.469 -0.5289  0.7631 -0.0671
  220SOD    SOD24920   1.946   2.384   2.144 -0.1792  0.0394  0.1591
  221SOD    SOD24921   3.003   5.677   1.743  0.4429  0.4987 -0.1497
  222SOD    SOD24922   7.288   0.456   2.318 -0.1109 -0.0628 -0.1285
  223SOD    SOD24923   4.324   6.103   1.646 -0.2128  0.8572 -0.5455
  224SOD    SOD24924   0.849   5.723   8.700  0.3152  0.0166 -0.7008
  225SOD    SOD24925   0.569   2.888   2.058  0.2481  0.1825 -0.1096
  226SOD    SOD24926   1.757   4.149   7.279  0.3501  0.1811 -0.2790
  227CLA    CLA24927   2.036   4.941   7.329 -0.4057  0.1125  0.0782
  228CLA    CLA24928   6.295   3.369   7.895 -0.0947  0.0283 -0.1210
  229CLA    CLA24929   4.294   4.370   0.514  0.0123  0.1190 -0.2869
  230CLA    CLA24930   1.899   1.204   9.625  0.2589  0.1014  0.4948
  231CLA    CLA24931   3.444   1.613   0.711  0.2135 -0.0456  0.0313
  232CLA    CLA24932   2.479   4.600   1.967  0.4055  0.1567  0.2214
  233CLA    CLA24933   4.511   1.991   1.080 -0.1865  0.1380 -0.1862
  234CLA    CLA24934   0.281   7.022   0.989 -0.2291 -0.4206 -0.1424
  235CLA    CLA24935   0.453   0.890   0.410 -0.3448 -0.2329  0.0055
  236CLA    CLA24936   1.432   6.890   1.998 -0.2049 -0.0113 -0.0082
  237CLA    CLA24937   7.287   2.261   9.420 -0.1851 -0.2663  0.2643
  238CLA    CLA24938   3.097   3.050   8.860  0.1293 -0.3263  0.0765
  239CLA    CLA24939   0.737   1.638   9.567 -0.1175  0.4970  0.0396
  240CLA    CLA24940   1.231   4.085   1.236  0.1232  0.1680 -0.2025
  241CLA    CLA24941   5.425   0.707   0.647 -0.0809 -0.2465 -0.1515
  242CLA    CLA24942   4.250   2.009   8.512  0.1246 -0.3741 -0.5721
  243CLA    CLA24943   1.135   3.637   9.405 -0.0224 -0.1055  0.0619
  244CLA    CLA24944   4.206   1.149   9.166 -0.1121 -0.0793  0.4588
  245CLA    CLA24945   5.513   2.488   8.552 -0.4702 -0.0982 -0.3120
  246CLA    CLA24946   4.681   0.980   9.094 -0.1978  0.2338 -0.0792
  247CLA    CLA24947   6.667   7.015   7.743  0.2373 -0.1858 -0.0160
  248CLA    CLA24948   4.731   4.951   9.662 -0.1200  0.1135  0.3697
  249CLA    CLA24949   4.683   6.641   1.669 -0.4033 -0.3181 -0.3779
  250CLA    CLA24950   4.226   5.297   9.225  0.3168  0.1801 -0.0188
  251CLA    CLA24951   2.970   1.825   8.025  0.0886  0.0697  0.0185
  252CLA    CLA24952   0.342   6.301   1.064 -0.0542 -0.1340 -0.1244
  253TIP3   OH224953   2.668   1.213   1.725  0.1743  0.4416  0.1694
  253TIP3    H124954   2.578   1.188   1.703  0.5466 -1.7829  0.9064
  253TIP3    H224955   2.718   1.193   1.646  0.4964 -1.4992  0.8063
  254TIP3   OH224956   5.074   2.221   0.620 -0.0648 -0.2840  0.5485
  254TIP3    H124957   5.074   2.253   0.710  0.0476  0.3162  0.3366
  254TIP3    H224958   5.118   2.136   0.625 -0.7193 -0.5955  1.1752
  255TIP3   OH224959   7.154   1.708   8.553  0.3452  0.0568 -0.8123
  255TIP3    H124960   7.064   1.722   8.524 -0.0966 -0.4959  0.2435
  255TIP3    H224961   7.146   1.664   8.638  1.6019  0.5910 -0.3835
  256TIP3   OH224962   3.655   0.457   7.899 -0.1919 -0.1091 -0.0742
  256TIP3    H124963   3.625   0.366   7.906  1.5870 -0.6938  0.3632
  256TIP3    H224964   3.604   0.504   7.965  0.5362 -1.2544  1.3462
  257TIP3   OH224965   2.342   0.706   7.713 -0.1646  0.6989 -0.3107
  257TIP3    H124966   2.333   0.801   7.716 -1.0030  0.6566 -1.0330
  257TIP3    H224967   2.392   0.689   7.634 -0.6579  0.5129 -0.5906
  258TIP3   OH224968   1.002   6.165   1.789  0.1889 -0.2503 -0.0045
  258TIP3    H124969   1.027   6.089   1.738 -2.4428  0.4219 -2.5708
  258TIP3    H224970   1.058   6.235   1.757  1.7392 -0.7550  1.4639
  259TIP3   OH224971   0.827   1.860   8.258 -0.3204  0.2338 -0.2638
  259TIP3    H124972   0.890   1.880   8.188 -1.2492  0.5316 -1.0257
  259TIP3    H224973   0.753   1.819   8.214 -1.1176  0.8307  0.4874
  260TIP3   OH224974   2.273   0.650   1.106 -0.2024 -0.1346  0.2248
  260TIP3    H124975   2.252   0.581   1.169 -0.7618 -0.4244 -0.2587
  260TIP3    H224976   2.268   0.731   1.156  1.6987 -0.5025  1.1012
  261TIP3   OH224977   1.574   4.788   9.615  0.1398 -0.3194 -0.1625
  261TIP3    H124978   1.529   4.704   9.605  1.5144 -1.0857 -0.2188
  261TIP3    H224979   1.504   4.853   9.610 -1.1114 -1.4979  0.9407
  262TIP3   OH224980   4.647   3.542   7.351  0.5182 -0.0642  0.2645
  262TIP3    H124981   4.599   3.460   7.361  1.1435 -0.3839  0.6671
  262TIP3    H224982   4.682   3.561   7.438  3.1701 -1.1327 -0.4630
  263TIP3   OH224983   4.661   3.851   8.210 -0.1852  1.1120  0.0561
  263TIP3    H124984   4.719   3.809   8.147 -0.7735 -1.3633  1.0568
  263TIP3    H224985   4.584   3.795   8.214 -0.9562  2.1956  1.6150
  264TIP3   OH224986   6.735   6.148   1.333  0.5376  0.3788 -0.7738
  264TIP3    H124987   6.822   6.175   1.303  0.2305  2.8256  0.2714
  264TIP3    H224988   6.678   6.220   1.306 -1.2834 -1.3373 -1.7383
  265TIP3   OH224989   2.377   3.770   9.635 -0.0318 -0.4497 -0.9409
  265TIP3    H124990   2.305   3.761   9.699  1.3488 -1.4255  0.5426
  265TIP3    H224991   2.407   3.860   9.646  0.3241 -0.6654 -0.0263
  266TIP3   OH224992   0.298   0.930   9.189  0.1827  0.4033 -0.4374
  266TIP3    H124993   0.217   0.946   9.140  0.5432 -0.8497 -1.4856
  266TIP3    H224994   0.368   0.943   9.125  0.7333 -0.0600  0.0558
  267TIP3   OH224995   3.742   0.514   7.157  0.2496  0.0550  0.1268
  267TIP3    H124996   3.671   0.450   7.170  0.7104 -0.3289  0.8445
  267TIP3    H224997   3.706   0.578   7.097  0.0993 -1.4212 -1.4557
  268TIP3   OH224998   4.288   2.391   9.615 -0.0670  0.3136  0.4382
  268TIP3    H124999   4.199   2.399   9.580  0.4630 -0.3746 -1.1933
  268TIP3    H225000   4.281   2.327   9.685 -0.8550  0.2080  0.2727
  269TIP3   OH225001   4.240   4.217   7.166 -0.1200  0.0891 -0.1385
  269TIP3    H125002   4.250   4.294   7.110 -0.3607 -0.0655 -0.3998
  269TIP3    H225003   4.304   4.155   7.133 -0.4885 -0.1247 -0.4598
  270TIP3   OH225004   3.696   0.248   6.992 -0.1015 -0.1005 -0.1283
  270TIP3    H125005   3.781   0.271   6.954  0.1070  0.6734  0.7649
  270TIP3    H225006   3.633   0.285   6.930  0.2363  1.3293  0.3352
  271TIP3   OH225007   3.772   0.595   9.499 -0.2582  0.3210  0.2858
  271TIP3    H125008   3.819   0.635   9.426  2.6586 -1.1864  1.1743
  271TIP3    H225009   3.840   0.555   9.552 -2.5357 -1.2190  2.2670
  272TIP3   OH225010   3.575   3.720   1.673  0.4843  0.4760 -0.1665
  272TIP3    H125011   3.600   3.670   1.751 -1.3927 -0.7715 -0.2935
  272TIP3    H225012   3.544   3.804   1.706  0.2726  0.1828  0.3799
  273TIP3   OH225013   4.433   3.745   9.198 -0.1796  0.3720 -0.9126
  273TIP3    H125014   4.483   3.713   9.274 -1.1836  0.5876 -0.1345
  273TIP3    H225015   4.358   3.791   9.236 -1.3585 -0.5299 -2.0215
  274TIP3   OH225016   1.374   4.665   2.814 -0.3692  0.4057  0.1460
  274TIP3    H125017   1.296   4.661   2.869 -0.9648  0.3261 -0.6909
  274TIP3    H225018   1.375   4.755   2.781 -0.3223  0.2919 -0.1618
  275TIP3   OH225019   4.534   2.594   9.559  0.6221 -0.5505 -0.1655
  275TIP3    H125020   4.611   2.649   9.551  0.8091 -0.7226  0.3900
  275TIP3    H225021   4.484   2.632   9.632  0.3277 -0.6061 -0.3373
  276TIP3   OH225022   5.137   4.858   1.949  0.1758 -0.3613  0.1810
  276TIP3    H125023   5.139   4.945   1.909  1.3978 -0.7485 -0.6601
  276TIP3    H225024   5.071   4.864   2.018  0.8719  1.4852  0.7296
  277TIP3   OH225025   1.912   5.426   8.359  0.4910  0.5867 -0.1340
  277TIP3    H125026   1.872   5.385   8.436  0.3797  0.1435 -0.4273
  277TIP3    H225027   1.997   5.383   8.351  0.8950  1.2781  0.2786
  278TIP3   OH225028   4.100   5.545   1.903  0.3431  0.0671 -0.0404
  278TIP3    H125029   4.097   5.548   1.999 -0.2999  1.6220 -0.0896
  278TIP3    H225030   4.054   5.464   1.880 -2.5448  1.3202  0.8717
  279TIP3   OH225031   1.170   7.328   2.600 -0.5116 -0.4726 -0.8143
  279TIP3    H125032   1.157   7.317   2.694  1.1744  1.5721 -0.2653
  279TIP3    H225033   1.096   7.282   2.560 -0.7722 -2.2088  1.4466
  280TIP3   OH225034   5.414   3.835   8.643  0.3413 -0.3616  0.1803
  280TIP3    H125035   5.354   3.865   8.576 -0.9343 -2.5915  0.2175
  280TIP3    H225036   5.477   3.779   8.597 -0.4354 -1.7617  0.7678
  281TIP3   OH225037   2.625   6.574   2.112  0.3717 -0.0547  0.2529
  281TIP3    H125038   2.697   6.567   2.048 -2.1773  0.7879 -3.0209
  281TIP3    H225039   2.593   6.664   2.101 -1.1646 -0.4101  1.5937
  282TIP3   OH225040   4.827   1.060   6.859 -0.3590  0.2985  0.0020
  282TIP3    H125041   4.737   1.079   6.834 -0.5993  0.8157  1.2244
  282TIP3    H225042   4.829   0.964   6.867 -1.0575  0.3517  0.9179
  283TIP3   OH225043   2.366   2.861   1.923 -0.0032  0.0291  0.5208
  283TIP3    H125044   2.429   2.827   1.986  1.0218  1.4032  0.2848
  283TIP3    H225045   2.419   2.894   1.850 -1.0730 -0.0421 -0.3170
  284TIP3   OH225046   5.508   7.128   2.028  0.7353 -0.0409  0.0802
  284TIP3    H125047   5.437   7.125   2.092  1.3317  0.5495  0.7864
  284TIP3    H225048   5.556   7.208   2.049 -0.8372  1.9604 -3.0437
  285TIP3   OH225049   6.288   5.914   0.960  0.0317 -0.7381 -0.1135
  285TIP3    H125050   6.331   5.995   0.934 -1.7930  0.3776  0.1816
  285TIP3    H225051   6.352   5.845   0.941  3.0395  0.9626  2.7323
  286TIP3   OH225052   4.620   5.113   7.899  0.0401  0.2169 -0.7422
  286TIP3    H125053   4.532   5.112   7.861  0.4194  0.4952 -1.6338
  286TIP3    H225054   4.632   5.025   7.934 -2.2323  1.2190  3.2315
  287TIP3   OH225055   1.624   6.676   8.092 -0.0755 -0.4905 -0.8785
  287TIP3    H125056   1.540   6.719   8.075 -0.4095 -1.1979 -1.0707
  287TIP3    H225057   1.651   6.711   8.177 -0.9701 -0.8563 -0.4240
  288TIP3   OH225058   0.936   2.989   7.707 -0.1722  0.0700 -0.5278
  288TIP3    H125059   0.934   2.982   7.612  0.2185 -1.3110 -0.4458
  288TIP3    H225060   0.845   3.010   7.731 -0.7476 -1.6860 -1.0585
  289TIP3   OH225061   7.293   3.371   1.042 -0.1109  0.3601 -0.2406
  289TIP3    H125062   7.238   3.449   1.032 -1.3996 -0.6005 -0.8386
  289TIP3    H225063   7.356   3.395   1.111 -1.0964  1.5850  0.2759
  290TIP3   OH225064   0.212   6.326   8.050  0.5825  0.0811 -0.1579
  290TIP3    H125065   0.125   6.293   8.027  0.4155  0.0625  0.4898
  290TIP3    H225066   0.263   6.316   7.970 -0.0634  0.2714 -0.6035
  291TIP3   OH225067   6.041   1.241   7.671  0.0619  1.0616 -0.5886
  291TIP3    H125068   5.988   1.171   7.710  1.6373  0.7896  1.1723
  291TIP3    H225069   6.021   1.237   7.577  0.3383 -1.9607 -0.5977
  292TIP3   OH225070   5.287   1.679   0.868 -0.1265 -0.3402  0.3311
  292TIP3    H125071   5.355   1.744   0.889 -1.9123  2.2648 -1.2931
  292TIP3    H225072   5.292   1.670   0.772 -2.3706  0.3767  0.0960
  293TIP3   OH225073   7.071   4.196   0.804  0.4053  0.2565  0.2633
  293TIP3    H125074   7.006   4.266   0.810  1.7470  1.9205 -2.3100
  293TIP3    H225075   7.035   4.124   0.855 -3.1345  1.2986 -0.5196
  294TIP3   OH225076   5.911   7.142   1.434 -0.4635  0.3303  0.6067
  294TIP3    H125077   5.897   7.168   1.525 -0.1150  3.3114 -0.0659
  294TIP3    H225078   5.842   7.189   1.386  0.0852 -0.2384 -0.7734
  295TIP3   OH225079   5.166   7.065   7.145  0.1960  0.0931  0.0846
  295TIP3    H125080   5.172   7.002   7.216  0.6710 -0.3436 -0.3395
  295TIP3    H225081   5.117   7.139   7.182  0.8777  0.0916  1.0206
  296TIP3   OH225082   0.555   1.284   2.022 -0.2350  0.1718  0.3440
  296TIP3    H125083   0.512   1.204   1.993  0.1431 -0.0052  0.2702
  296TIP3    H225084   0.621   1.256   2.085  1.1052  0.2169 -0.9628
  297TIP3   OH225085   1.964   6.270   1.536 -0.2605 -0.1917 -0.2349
  297TIP3    H125086   2.028   6.337   1.560  0.3108  1.1759 -4.5887
  297TIP3    H225087   1.880   6.315   1.541  0.1096  1.0623 -3.0053
  298TIP3   OH225088   1.822   3.457   7.085 -0.5730  0.2664  0.0143
  298TIP3    H125089   1.763   3.520   7.046 -0.5368  0.4673  0.2793
  298TIP3    H225090   1.773   3.420   7.159  0.4697  2.2198  1.7911
  299TIP3   OH225091   1.882   2.756   7.618 -0.5269 -0.1765  0.2404
  299TIP3    H125092   1.898   2.829   7.559 -1.8038 -0.2249 -0.1890
  299TIP3    H225093   1.821   2.792   7.684 -0.4220 -0.5948  0.5691
  300TIP3   OH225094   3.999   4.092   7.220  0.3235  0.0711  0.3556
  300TIP3    H125095   4.017   4.005   7.186  0.4202  0.1957  0.0793
  300TIP3    H225096   4.083   4.137   7.217 -0.2205  1.1045 -2.2713
  301TIP3   OH225097   5.373   0.308   3.105  0.3464 -0.2835 -0.4614
  301TIP3    H125098   5.315   0.283   3.033 -0.6017  1.0580 -0.2207
  301TIP3    H225099   5.395   0.225   3.148 -3.5004 -0.7806  0.9759
  302TIP3   OH225100   0.631   7.350   8.987 -0.2647  0.6431 -0.7351
  302TIP3    H125101   0.538   7.324   8.984 -0.0950 -0.2303  0.6130
  302TIP3    H225102   0.630   7.444   8.970 -1.4853  0.7769 -0.0858
  303TIP3   OH225103   4.615   1.670   2.307  0.6479  0.2518 -0.2517
  303TIP3    H125104   4.520   1.668   2.294  0.4780 -2.1404  0.8373
  303TIP3    H225105   4.651   1.638   2.224  0.5694  1.6710 -0.8573
  304TIP3   OH225106   5.253   2.592   7.028 -0.1219  0.0986 -0.1570
  304TIP3    H125107   5.158   2.589   7.041 -0.1831  0.2649 -0.5395
  304TIP3    H225108   5.287   2.632   7.108 -0.2623 -1.0070  0.4729
  305TIP3   OH225109   6.494   5.305   0.678 -0.1116  0.1128 -0.0055
  305TIP3    H125110   6.415   5.280   0.725  0.5989 -0.6869  0.8096
  305TIP3    H225111   6.475   5.286   0.586 -1.1795  0.7904  0.0605
  306TIP3   OH225112   0.961   4.210   7.379 -0.1234  0.3847  0.4109
  306TIP3    H125113   0.899   4.182   7.447  0.5088 -0.0855  0.8031
  306TIP3    H225114   1.040   4.232   7.428  0.7730 -1.1934 -0.2827
  307TIP3   OH225115   4.699   7.075   9.548  0.1959  0.1937  0.0710
  307TIP3    H125116   4.604   7.065   9.546  0.1092  1.0577 -1.7304
  307TIP3    H225117   4.716   7.125   9.628 -1.1531  2.2349 -0.8309
  308TIP3   OH225118   1.898   5.194   0.094 -0.5731 -0.2395  0.4071
  308TIP3    H125119   1.920   5.286   0.080  0.1454 -0.6482 -1.4273
  308TIP3    H225120   1.868   5.163   0.009 -2.1350 -1.3860  1.3112
  309TIP3   OH225121   0.437   5.737   8.641  0.2736 -0.2045 -0.1094
  309TIP3    H125122   0.396   5.815   8.602 -1.6413 -1.2951 -0.4040
  309TIP3    H225123   0.428   5.669   8.574  1.0370 -0.9511  0.5222
  310TIP3   OH225124   0.675   4.554   2.277  0.4221 -0.0043  0.2796
  310TIP3    H125125   0.765   4.559   2.309  1.0750  2.4128 -1.6316
  310TIP3    H225126   0.632   4.631   2.314 -0.2741 -0.0235 -0.4720
  311TIP3   OH225127   7.328   1.662   1.778 -0.5816 -0.2936  0.2027
  311TIP3    H125128   7.328   1.581   1.830  1.7414 -1.5063 -1.4882
  311TIP3    H225129   7.384   1.722   1.828 -0.5599 -0.4957  0.4226
  312TIP3   OH225130   0.867   7.277   6.770  0.2148 -0.0578 -0.0696
  312TIP3    H125131   0.963   7.283   6.769  0.5397 -3.3230 -0.9661
  312TIP3    H225132   0.842   7.284   6.678 -0.1828 -1.2085 -0.0615
  313TIP3   OH225133   5.037   2.880   0.923  0.0577 -0.1191  0.0236
  313TIP3    H125134   5.083   2.830   0.991  1.9762  1.8132  0.2699
  313TIP3    H225135   5.051   2.829   0.843  1.1332 -0.4836  0.4226
  314TIP3   OH225136   2.211   1.007   1.926  0.2472 -0.0627 -0.1450
  314TIP3    H125137   2.282   1.024   1.988 -0.2998  2.4300 -0.0818
  314TIP3    H225138   2.255   1.001   1.841  0.6086  1.0674 -0.0586
  315TIP3   OH225139   7.089   6.253   9.070 -0.3382 -0.0163  0.1136
  315TIP3    H125140   7.141   6.332   9.086  2.4869 -1.4129 -1.2845
  315TIP3    H225141   7.082   6.211   9.155 -0.3347  0.8761  0.5674
  316TIP3   OH225142   7.077   5.708   0.813 -0.1544 -0.0774  0.0499
  316TIP3    H125143   7.167   5.679   0.795 -0.5000 -1.2754  0.1193
  316TIP3    H225144   7.080   5.803   0.805  1.1759 -0.0786  0.2912
  317TIP3   OH225145   4.375   4.839   0.420 -0.1616  0.1864  0.1167
  317TIP3    H125146   4.462   4.800   0.418 -0.2607 -0.1401  1.2684
  317TIP3    H225147   4.315   4.767   0.398 -0.3867 -0.5192  2.7638
  318TIP3   OH225148   4.506   7.191   8.787  0.0462 -0.6040 -0.1680
  318TIP3    H125149   4.570   7.121   8.797  1.0446  0.2063 -0.6752
  318TIP3    H225150   4.530   7.234   8.705 -0.8048  0.0784 -0.0756
  319TIP3   OH225151   0.647   4.148   2.104 -0.4243 -0.2898 -0.0585
  319TIP3    H125152   0.574   4.209   2.108 -0.0067  0.2746 -0.7901
  319TIP3    H225153   0.716   4.196   2.057 -0.3773 -1.6215 -1.4182
  320TIP3   OH225154   1.101   5.149   8.502 -0.2524  0.8123 -0.0276
  320TIP3    H125155   1.114   5.203   8.580 -1.3631  0.6236  0.3035
  320TIP3    H225156   1.074   5.064   8.536 -1.0779  0.8298 -0.6089
  321TIP3   OH225157   0.708   4.579   0.574  0.5354  0.2462 -0.0481
  321TIP3    H125158   0.620   4.542   0.566  1.4799 -1.8649 -1.2838
  321TIP3    H225159   0.757   4.543   0.501  2.4650  1.4017  0.5791
  322TIP3   OH225160   0.043   6.875   0.089  0.1441  0.5496 -0.1922
  322TIP3    H125161  -0.007   6.851   0.167  1.0414  0.2104  0.3058
  322TIP3    H225162   0.103   6.801   0.076  0.9770  1.2406 -0.3596
  323TIP3   OH225163   4.377   4.050   8.395  0.3188  0.2705 -0.0187
  323TIP3    H125164   4.376   4.003   8.312  1.2112 -1.1951  0.7595
  323TIP3    H225165   4.285   4.057   8.420  0.1802 -1.8086  0.2142
  324TIP3   OH225166   1.650   5.553   8.988 -0.1944  0.0670  0.5423
  324TIP3    H125167   1.657   5.648   8.993  0.1790  0.1533 -1.2525
  324TIP3    H225168   1.582   5.531   9.052 -1.2115  1.6573  0.0489
  325TIP3   OH225169   4.700   2.817   2.250  0.5989 -0.2681  0.2654
  325TIP3    H125170   4.692   2.800   2.156  0.1617  0.0572  0.2368
  325TIP3    H225171   4.610   2.809   2.283 -0.0606  3.5814 -0.0584
  326TIP3   OH225172   6.083   1.379   0.508  0.3218  0.2767 -0.5778
  326TIP3    H125173   6.116   1.456   0.553  0.4171 -0.7509  1.2546
  326TIP3    H225174   6.154   1.350   0.452  0.0464  1.8554 -1.7991
  327TIP3   OH225175   3.153   3.326   0.903 -0.0116 -0.4683  0.5680
  327TIP3    H125176   3.068   3.369   0.914  0.0547  0.2115 -1.2322
  327TIP3    H225177   3.202   3.351   0.982 -1.5946 -1.2588  1.8779
  328TIP3   OH225178   5.679   2.370   0.902  0.2914  0.8823 -0.2337
  328TIP3    H125179   5.611   2.311   0.935  1.9415 -0.4137  1.0502
  328TIP3    H225180   5.666   2.451   0.950  0.2346  0.3214  0.7128
  329TIP3   OH225181   5.426   4.093   0.885  0.2463  0.2461  0.1528
  329TIP3    H125182   5.353   4.078   0.945 -0.3466  1.2267 -0.3112
  329TIP3    H225183   5.485   4.019   0.901 -1.3676 -1.2149 -0.2619
  330TIP3   OH225184   3.812   7.031   6.575 -0.7849 -0.5156  0.0157
  330TIP3    H125185   3.765   7.046   6.657 -0.8733  0.5996 -0.2268
  330TIP3    H225186   3.746   6.994   6.516 -0.8067 -0.9941  0.3348
  331TIP3   OH225187   4.468   5.212   6.965 -0.2719 -0.6838  0.4016
  331TIP3    H125188   4.525   5.180   6.895 -1.1024  0.2777 -0.7579
  331TIP3    H225189   4.382   5.177   6.944 -0.7243  0.3934  0.3686
  332TIP3   OH225190   5.216   6.650   2.474 -0.0890  0.1510  0.2742
  332TIP3    H125191   5.198   6.556   2.485  0.0546  0.3001  2.1456
  332TIP3    H225192   5.311   6.655   2.471 -0.0656  0.3082  1.1194
  333TIP3   OH225193   1.777   2.908   7.283  0.2477 -0.6778  0.5680
  333TIP3    H125194   1.784   2.825   7.331  0.7116  0.2544  2.1773
  333TIP3    H225195   1.684   2.928   7.283 -0.0004 -1.6329 -0.6814
  334TIP3   OH225196   1.888   5.461   8.652 -0.5393 -0.0480  0.1474
  334TIP3    H125197   1.980   5.437   8.653 -0.0560  1.5784  2.7350
  334TIP3    H225198   1.851   5.418   8.730 -1.5201  0.8181  0.1862
  335TIP3   OH225199   0.482   5.829   8.317 -0.5716  0.2268  0.0799
  335TIP3    H125200   0.397   5.823   8.273 -1.0496 -0.4373  1.0592
  335TIP3    H225201   0.511   5.738   8.326 -0.1525  0.3976  0.4986
  336TIP3   OH225202   6.034   2.308   9.417 -0.2571 -0.0622  0.1414
  336TIP3    H125203   6.129   2.299   9.403 -0.2578 -0.3935  0.3478
  336TIP3    H225204   5.997   2.307   9.329 -0.0952 -0.2504  0.0735
  337TIP3   OH225205   4.248   4.646   8.085  0.2104  0.3380 -0.1401
  337TIP3    H125206   4.156   4.619   8.088  0.2809 -0.0395 -0.9751
  337TIP3    H225207   4.288   4.599   8.158  0.1241 -1.0913 -0.9650
  338TIP3   OH225208   3.983   0.944   1.389 -0.0647  0.0622  0.0950
  338TIP3    H125209   3.941   0.858   1.382 -0.5667  0.3764 -0.8386
  338TIP3    H225210   4.036   0.952   1.310  2.1716 -0.5019  1.4223
  339TIP3   OH225211   7.043   3.175   2.647 -0.2105  0.1335 -0.4055
  339TIP3    H125212   7.063   3.083   2.664 -0.8150 -0.0259 -0.5468
  339TIP3    H225213   7.111   3.202   2.584 -0.2834 -0.3351 -0.6954
  340TIP3   OH225214   3.204   4.794   3.177  0.4654 -0.0274  0.6641
  340TIP3    H125215   3.150   4.870   3.198  2.1378  1.6949 -0.8795
  340TIP3    H225216   3.179   4.771   3.088  1.3357 -0.0421  0.4158
  341TIP3   OH225217   0.232   0.228   9.054  0.1833 -0.4083 -0.1030
  341TIP3    H125218   0.297   0.159   9.039  0.3588 -0.3790  0.4959
  341TIP3    H225219   0.264   0.275   9.131 -0.9523 -0.8800  0.6892
  342TIP3   OH225220   1.150   3.515   3.177  0.2615  0.4512 -0.8812
  342TIP3    H125221   1.160   3.486   3.086  3.7550 -1.5911 -0.0379
  342TIP3    H225222   1.226   3.570   3.193 -0.4956  1.0787  0.7262
  343TIP3   OH225223   6.971   6.431   0.124  0.0424 -0.0445 -0.0094
  343TIP3    H125224   7.032   6.497   0.093  0.2697  0.2658  1.0741
  343TIP3    H225225   6.886   6.459   0.091  0.0249  1.1942  1.0490
  344TIP3   OH225226   7.387   0.018   8.103 -1.1102  0.0178 -0.0811
  344TIP3    H125227   7.445   0.088   8.071  1.7121 -1.2567  1.8808
  344TIP3    H225228   7.392   0.025   8.199 -3.4639 -0.8184  0.1595
  345TIP3   OH225229   1.261   4.523   9.027 -0.3475 -0.5105  0.2495
  345TIP3    H125230   1.199   4.452   9.046  0.9830 -1.5424  0.8964
  345TIP3    H225231   1.279   4.562   9.112 -0.4354  0.0913  0.0012
  346TIP3   OH225232   2.742   4.429   8.973 -0.4853 -0.1677  0.3240
  346TIP3    H125233   2.665   4.460   8.925 -0.3838 -0.3562  0.0326
  346TIP3    H225234   2.791   4.508   8.992 -1.5723  0.1465  1.9935
  347TIP3   OH225235   2.387   7.211   2.103 -0.3148 -1.1771  0.1379
  347TIP3    H125236   2.300   7.181   2.128 -0.4187 -0.8072  0.2279
  347TIP3    H225237   2.427   7.241   2.185 -0.5604 -0.2045 -0.0805
  348TIP3   OH225238   5.495   2.826   7.643  0.1146 -0.0860  0.1052
  348TIP3    H125239   5.437   2.890   7.683 -0.5398 -0.1663 -0.6857
  348TIP3    H225240   5.527   2.773   7.716 -1.2853 -0.4239  0.5103
  349TIP3   OH225241   1.815   2.196   7.841 -0.4905 -0.0159 -0.2299
  349TIP3    H125242   1.835   2.163   7.753  3.4762  0.8176  0.1995
  349TIP3    H225243   1.748   2.135   7.874  0.5071 -2.5704 -2.4904
  350TIP3   OH225244   2.133   6.766   6.683  0.2138 -0.6237 -0.5332
  350TIP3    H125245   2.174   6.780   6.769 -0.4641  0.0429 -0.3112
  350TIP3    H225246   2.060   6.706   6.700 -0.2155 -0.1136 -0.5552
  351TIP3   OH225247   6.235   6.756   7.582  0.1188  0.2899  0.2776
  351TIP3    H125248   6.236   6.709   7.666  0.8671  1.0029  0.6832
  351TIP3    H225249   6.300   6.825   7.593  1.1447 -0.3640 -1.3433
  352TIP3   OH225250   5.147   5.359   1.638  0.2546  0.1182 -0.4199
  352TIP3    H125251   5.196   5.285   1.602  0.5961  0.2247 -0.1713
  352TIP3    H225252   5.202   5.436   1.619  0.2272  0.2275 -0.0610
  353TIP3   OH225253   5.406   6.227   7.267  0.2115  0.3884  0.3774
  353TIP3    H125254   5.378   6.143   7.304 -0.8915  0.7826  0.4714
  353TIP3    H225255   5.415   6.211   7.173  0.9307 -0.0703  0.5199
  354TIP3   OH225256   3.867   2.373   1.595  0.0453 -0.1037  0.3229
  354TIP3    H125257   3.938   2.397   1.536  0.0144  2.0317  1.0702
  354TIP3    H225258   3.847   2.282   1.573  1.2233  0.0722 -1.6844
  355TIP3   OH225259   1.416   2.214   2.502  0.4419 -0.1135 -0.5702
  355TIP3    H125260   1.367   2.142   2.461  0.0048 -0.4117  0.4458
  355TIP3    H225261   1.363   2.240   2.576  1.9779 -0.7286  0.8255
  356TIP3   OH225262   6.940   6.167   7.133 -0.4576  0.4255 -0.1014
  356TIP3    H125263   6.895   6.246   7.104  0.1293  1.2869  1.2488
  356TIP3    H225264   6.930   6.167   7.228  1.4348  0.0495  0.1337
  357TIP3   OH225265   5.450   4.839   1.068 -0.1614 -0.2123 -0.8233
  357TIP3    H125266   5.458   4.754   1.025  1.7524  0.0443 -1.0711
  357TIP3    H225267   5.383   4.885   1.018 -1.6989 -1.7718 -0.2944
  358TIP3   OH225268   7.392   3.242   0.511 -0.3613  0.4064 -0.0469
  358TIP3    H125269   7.454   3.190   0.459 -2.2654 -0.5217 -1.5162
  358TIP3    H225270   7.389   3.327   0.466  0.6920  0.8961  0.7479
  359TIP3   OH225271   5.225   1.753   2.276 -0.7065  0.3804  0.1272
  359TIP3    H125272   5.264   1.809   2.343 -0.7839 -1.2630  1.6316
  359TIP3    H225273   5.151   1.711   2.320 -0.4445 -1.1576 -0.8149
  360TIP3   OH225274   4.494   0.976   0.611 -0.0551 -0.0788  0.0638
  360TIP3    H125275   4.531   1.012   0.531  1.6662  0.0861  0.8874
  360TIP3    H225276   4.570   0.957   0.666 -1.1937 -0.0379  1.7231
  361TIP3   OH225277   6.312   1.848   8.196  0.3983 -0.3224 -0.0534
  361TIP3    H125278   6.352   1.777   8.247  0.5459  0.0980  0.4185
  361TIP3    H225279   6.246   1.804   8.143  1.2900 -0.9998 -0.6421
  362TIP3   OH225280   1.149   3.441   2.352 -0.2462  0.9038  0.3693
  362TIP3    H125281   1.243   3.425   2.358 -0.1375  1.6837  0.9987
  362TIP3    H225282   1.125   3.416   2.263  0.0927 -1.5709  0.9075
  363TIP3   OH225283   0.227   1.035   8.274 -0.7952 -0.6718  0.0475
  363TIP3    H125284   0.254   1.085   8.351  0.5063 -0.3917 -0.5632
  363TIP3    H225285   0.205   1.102   8.209  0.1797 -0.8649 -0.5099
  364TIP3   OH225286   1.016   0.595   7.404  0.4374 -0.4819 -0.4554
  364TIP3    H125287   0.996   0.512   7.448  0.6276  0.0895  0.7765
  364TIP3    H225288   1.112   0.595   7.395  0.5453  0.0191  0.4837
  365TIP3   OH225289   5.592   1.593   8.231  0.2934  0.0894 -0.4164
  365TIP3    H125290   5.596   1.647   8.152 -0.2825  1.5090  0.4814
  365TIP3    H225291   5.649   1.637   8.293  2.9991 -2.5480 -0.8350
  366TIP3   OH225292   5.152   2.609   2.921  0.7597  0.5264  0.2814
  366TIP3    H125293   5.225   2.592   2.862 -0.0203 -0.0125 -0.5404
  366TIP3    H225294   5.143   2.704   2.922  0.6964  0.5302 -0.5612
  367TIP3   OH225295   3.809   6.474   7.334  0.7005 -0.3011  0.3127
  367TIP3    H125296   3.879   6.539   7.335  1.7138 -1.3165 -0.8783
  367TIP3    H225297   3.762   6.490   7.253 -2.1725  2.0171  2.2414
  368TIP3   OH225298   4.318   2.892   8.300  0.0114 -0.6888 -0.3295
  368TIP3    H125299   4.407   2.916   8.326  0.9670 -2.3261 -1.8870
  368TIP3    H225300   4.288   2.834   8.370  1.0084 -1.8357 -0.8270
  369TIP3   OH225301   0.559   6.430   0.445 -0.5086 -0.3582 -0.1155
  369TIP3    H125302   0.602   6.502   0.490  0.1972 -0.6836 -0.2387
  369TIP3    H225303   0.558   6.358   0.509 -0.9972 -0.3072 -0.0681
  370TIP3   OH225304   0.299   0.279   7.789 -0.1333 -0.0422  0.3218
  370TIP3    H125305   0.391   0.304   7.780 -0.4657  0.9579 -0.4412
  370TIP3    H225306   0.250   0.356   7.760 -1.2110 -1.0255 -0.5870
  371TIP3   OH225307   5.593   5.089   0.843 -0.0204 -0.1617 -0.0425
  371TIP3    H125308   5.512   5.052   0.809 -0.0891 -1.2272  1.1779
  371TIP3    H225309   5.650   5.013   0.857  0.8253  0.4740  0.0258
  372TIP3   OH225310   5.862   6.667   9.486 -0.2748  0.0598  0.5117
  372TIP3    H125311   5.822   6.581   9.496  0.3187 -0.4367 -1.0182
  372TIP3    H225312   5.945   6.661   9.533  0.1725 -0.5348 -0.3109
  373TIP3   OH225313   0.654   2.941   2.283  0.2110 -0.3415  0.1870
  373TIP3    H125314   0.604   3.011   2.325 -0.5232  0.2862 -1.6106
  373TIP3    H225315   0.730   2.927   2.340 -1.0313  0.0180  1.9846
  374TIP3   OH225316   3.802   3.840   1.595 -0.0960  0.2376  0.0996
  374TIP3    H125317   3.809   3.811   1.504  0.7973  1.6171 -0.2970
  374TIP3    H225318   3.735   3.782   1.633 -0.2998 -0.5314 -1.3493
  375TIP3   OH225319   1.715   3.875   7.888  0.1282  0.1119 -0.2654
  375TIP3    H125320   1.697   3.850   7.797 -0.9673 -1.6307  0.3757
  375TIP3    H225321   1.628   3.890   7.926  0.6017  1.2736  0.3912
  376TIP3   OH225322   4.142   3.035   9.441  0.2422  0.2593  0.0899
  376TIP3    H125323   4.173   3.031   9.351  1.8733 -0.1599  0.6328
  376TIP3    H225324   4.060   2.986   9.441  1.2223 -1.4667 -0.7985
  377TIP3   OH225325   0.767   2.452   0.682  0.2973  0.1525  0.2520
  377TIP3    H125326   0.796   2.404   0.759 -1.7804 -1.6538  0.0165
  377TIP3    H225327   0.741   2.384   0.619 -1.2137  1.5522 -0.7377
  378TIP3   OH225328   0.587   6.725   0.299 -0.6790  0.2003 -0.6202
  378TIP3    H125329   0.644   6.797   0.273 -1.7197  0.3204 -2.7327
  378TIP3    H225330   0.619   6.650   0.249  1.2914 -1.3284  2.5554
  379TIP3   OH225331   1.558   5.104   7.169 -0.2253  0.4700 -0.1091
  379TIP3    H125332   1.646   5.108   7.206 -0.3204  0.9579  0.0758
  379TIP3    H225333   1.563   5.037   7.101  0.6714  1.5045 -1.1125
  380TIP3   OH225334   0.554   6.863   8.011  0.8339 -0.1592  0.0121
  380TIP3    H125335   0.562   6.956   7.988  0.0672 -0.3664 -1.2399
  380TIP3    H225336   0.485   6.861   8.077 -0.4225  0.0367 -1.2273
  381TIP3   OH225337   5.013   1.938   9.134 -0.2742 -0.0152 -0.4951
  381TIP3    H125338   4.954   1.862   9.128 -0.0886 -0.4395  2.0176
  381TIP3    H225339   5.081   1.911   9.195  0.9881  1.4710 -1.1776
  382TIP3   OH225340   1.766   3.631   9.562 -0.1498 -0.1143  0.1167
  382TIP3    H125341   1.798   3.603   9.647  1.9071  2.0702  0.1550
  382TIP3    H225342   1.724   3.715   9.578 -1.0268 -0.3337 -0.8482
  383TIP3   OH225343   1.861   3.750   2.063  0.0516  0.0279 -0.0498
  383TIP3    H125344   1.957   3.756   2.063  0.0212  0.5634  0.5065
  383TIP3    H225345   1.838   3.747   1.970  0.7316 -2.4829 -0.2157
  384TIP3   OH225346   3.904   2.572   8.358  0.2358  0.3388 -0.4875
  384TIP3    H125347   3.932   2.494   8.406  0.6106  0.6102 -0.2610
  384TIP3    H225348   3.966   2.579   8.285  0.3851  0.5900 -0.3384
  385TIP3   OH225349   0.912   4.893   0.098 -0.6670 -0.1300  0.0561
  385TIP3    H125350   0.823   4.925   0.089 -1.2237 -1.7844 -0.9368
  385TIP3    H225351   0.929   4.847   0.015  1.1209  0.1914  0.2082
  386TIP3   OH225352   2.322   4.318   0.042  0.1287 -0.0774 -0.4427
  386TIP3    H125353   2.275   4.383   0.094 -0.6248 -0.6917 -0.3521
  386TIP3    H225354   2.280   4.235   0.063 -0.2885 -0.3266 -2.1291
  387TIP3   OH225355   7.090   6.738   0.381 -0.3368  0.1949 -0.1971
  387TIP3    H125356   7.165   6.700   0.428  0.6447  1.1602 -0.9029
  387TIP3    H225357   7.025   6.669   0.379  0.5588 -0.7017  0.4123
  388TIP3   OH225358   0.868   0.285   7.762 -0.5248  0.1400  0.0246
  388TIP3    H125359   0.875   0.190   7.775 -1.2199 -0.2028 -1.7808
  388TIP3    H225360   0.780   0.306   7.793 -0.6112  0.0723 -0.1714
  389TIP3   OH225361   4.895   6.812   2.490 -0.3238  0.4648 -0.3504
  389TIP3    H125362   4.889   6.904   2.515 -2.6551  0.3216 -0.1802
  389TIP3    H225363   4.968   6.778   2.543  0.0188  1.9883  0.2220
  390TIP3   OH225364   4.448   5.761   1.410  0.1644 -0.5364  0.4798
  390TIP3    H125365   4.397   5.681   1.411 -0.1177 -0.3663 -0.2717
  390TIP3    H225366   4.516   5.746   1.476 -0.5518 -0.9478  1.1412
  391TIP3   OH225367   5.055   2.418   2.284  0.0167  0.5488  0.3551
  391TIP3    H125368   4.966   2.443   2.308 -0.2970  0.2041 -0.4183
  391TIP3    H225369   5.068   2.332   2.324  0.4695  1.1419  1.5354
  392TIP3   OH225370   3.397   2.059   1.949 -0.4796  0.1216 -0.0462
  392TIP3    H125371   3.478   2.093   1.912 -0.5873  1.1113  0.6032
  392TIP3    H225372   3.331   2.077   1.882 -0.1619 -0.7838 -0.6230
  393TIP3   OH225373   2.951   1.956   1.153 -0.3146 -0.8603  0.2745
  393TIP3    H125374   2.899   1.976   1.232 -0.3418 -1.6968  0.4734
  393TIP3    H225375   2.887   1.920   1.092 -0.1644 -0.8502  0.1136
  394TIP3   OH225376   3.268   4.178   0.650 -0.4044 -0.4788 -0.2124
  394TIP3    H125377   3.259   4.110   0.716 -1.1162 -2.8602 -2.5644
  394TIP3    H225378   3.346   4.227   0.675  0.1545 -2.1772  1.5805
  395TIP3   OH225379   2.302   2.525   0.088  0.3916 -0.6655  0.1183
  395TIP3    H125380   2.245   2.526   0.011 -0.0438 -0.2450  0.4355
  395TIP3    H225381   2.331   2.616   0.098 -0.9714 -0.3303  1.4577
  396TIP3   OH225382   2.420   0.180   0.603  0.2462 -0.3785 -0.0839
  396TIP3    H125383   2.408   0.132   0.521 -1.4763  1.8324 -1.2253
  396TIP3    H225384   2.491   0.242   0.584 -0.1321  0.1153  0.0864
  397TIP3   OH225385   1.827   5.111   7.174  0.2581  0.0521 -0.1050
  397TIP3    H125386   1.898   5.073   7.226  0.4634  0.5799  0.0068
  397TIP3    H225387   1.839   5.074   7.087  0.3001 -0.3352  0.0605
  398TIP3   OH225388   1.049   6.136   2.061 -0.0601 -0.5123  0.1096
  398TIP3    H125389   1.044   6.144   1.965 -0.9062  1.1561  0.2653
  398TIP3    H225390   1.138   6.104   2.077  0.2552 -0.3747 -1.2082
  399TIP3   OH225391   3.433   7.268   2.324 -0.5916  0.0688 -0.2349
  399TIP3    H125392   3.513   7.313   2.297 -0.1771 -0.3001  0.3648
  399TIP3    H225393   3.463   7.198   2.382 -1.2724 -0.6165 -0.6800
  400TIP3   OH225394   1.113   1.575   0.385 -0.6483 -0.1327 -0.4993
  400TIP3    H125395   1.189   1.517   0.382 -1.0015 -0.5743 -1.3356
  400TIP3    H225396   1.041   1.522   0.349 -0.8139  1.0576 -2.0376
  401TIP3   OH225397   2.030   5.697   8.353  0.3675 -0.3005 -0.1650
  401TIP3    H125398   1.991   5.617   8.387 -0.3962  0.0985 -0.0765
  401TIP3    H225399   1.984   5.767   8.399 -0.5686  0.2573 -1.8652
  402TIP3   OH225400   2.630   1.639   2.801  0.0703 -0.1751  0.2074
  402TIP3    H125401   2.705   1.598   2.844  0.1970 -0.5320 -0.3445
  402TIP3    H225402   2.629   1.601   2.713  0.4893  1.3766 -0.5045
  403TIP3   OH225403   2.510   4.145   7.333 -0.0558 -0.3028  0.0138
  403TIP3    H125404   2.526   4.227   7.285 -2.7537  0.8011  0.8093
  403TIP3    H225405   2.508   4.078   7.264  3.9941 -0.1265 -0.4778
  404TIP3   OH225406   3.935   0.915   8.827  0.3550  0.1339 -0.5268
  404TIP3    H125407   4.007   0.854   8.843 -0.1721 -0.0966  1.1168
  404TIP3    H225408   3.952   0.989   8.884 -0.8413 -0.0648  0.1373
  405TIP3   OH225409   4.250   5.950   1.494 -0.2694  0.6119  0.0431
  405TIP3    H125410   4.174   5.897   1.472 -0.6335  0.8509  0.7183
  405TIP3    H225411   4.325   5.895   1.473 -0.6451 -0.4606  1.3902
  406TIP3   OH225412   6.776   1.511   1.988  0.0367 -0.4448  0.0246
  406TIP3    H125413   6.804   1.498   2.079  0.5016  1.7121  0.2479
  406TIP3    H225414   6.726   1.592   1.990 -2.1340 -1.6839 -1.2587
  407TIP3   OH225415   5.926   3.753   8.999 -0.1660  0.0355 -0.0625
  407TIP3    H125416   6.000   3.795   8.957  0.8260 -0.7376  0.8690
  407TIP3    H225417   5.878   3.710   8.927  1.7839 -1.7140 -0.4107
  408TIP3   OH225418   1.282   4.474   7.049  0.2701 -0.2498  0.3817
  408TIP3    H125419   1.231   4.473   6.968  2.0420  1.0541 -0.8317
  408TIP3    H225420   1.257   4.556   7.091  0.3274 -0.2750  0.4650
  409TIP3   OH225421   4.181   4.676   9.007  0.1789  0.0481 -0.2295
  409TIP3    H125422   4.232   4.719   8.938  0.6551 -1.0848 -0.6044
  409TIP3    H225423   4.138   4.748   9.053  1.6011  0.9907 -0.3103
  410TIP3   OH225424   1.147   7.166   8.691 -0.0206 -0.7528 -0.0996
  410TIP3    H125425   1.115   7.091   8.640 -1.0653  0.4370 -1.2613
  410TIP3    H225426   1.122   7.242   8.639 -0.0081  0.4586  1.6148
  411TIP3   OH225427   4.674   3.791   8.528 -0.2274 -0.2873  0.4279
  411TIP3    H125428   4.628   3.707   8.531  1.8519 -1.5827 -1.1237
  411TIP3    H225429   4.655   3.825   8.441 -0.9791  0.8692  1.0150
  412TIP3   OH225430   7.058   4.632   9.254 -0.1531  0.3713  0.3539
  412TIP3    H125431   7.003   4.559   9.226  1.9376 -0.8681 -0.7262
  412TIP3    H225432   7.002   4.709   9.242 -1.8129 -0.8481 -0.1901
  413TIP3   OH225433   1.982   0.596   7.932 -0.5113 -0.3175 -0.0876
  413TIP3    H125434   1.945   0.679   7.961 -1.5297 -0.7813 -0.0313
  413TIP3    H225435   1.938   0.530   7.986 -0.9213 -1.0297 -1.2691
  414TIP3   OH225436   6.739   6.713   0.356 -0.0856 -0.2404  0.2976
  414TIP3    H125437   6.657   6.759   0.375  0.2097  1.1430 -1.4761
  414TIP3    H225438   6.728   6.681   0.267  1.3155  0.0349  0.0075
  415TIP3   OH225439   5.755   0.745   0.127 -0.2449  0.4117  0.1643
  415TIP3    H125440   5.698   0.796   0.184 -0.3016  1.6813 -0.9733
  415TIP3    H225441   5.723   0.763   0.039 -0.0741 -1.3926 -0.2983
  416TIP3   OH225442   3.072   1.165   0.423 -0.2216 -0.3526  0.2472
  416TIP3    H125443   3.034   1.149   0.509 -1.8852  0.3602 -0.3218
  416TIP3    H225444   3.148   1.222   0.441  0.5250 -1.6466  1.3779
  417TIP3   OH225445   3.585   4.583   9.549 -0.4067  0.6511 -0.1416
  417TIP3    H125446   3.590   4.496   9.509  0.2175  1.1033 -1.0790
  417TIP3    H225447   3.669   4.593   9.595 -0.6929  0.5565  0.4135
  418TIP3   OH225448   0.224   6.441   8.609  0.5640  0.1973 -0.1670
  418TIP3    H125449   0.168   6.392   8.549 -1.4145  0.7261  1.1636
  418TIP3    H225450   0.241   6.524   8.563 -1.2645  0.7592  0.0940
  419TIP3   OH225451   1.424   1.747   0.899  0.5669 -0.0818  0.0451
  419TIP3    H125452   1.431   1.691   0.975 -0.5010 -0.2158  0.0587
  419TIP3    H225453   1.395   1.689   0.828 -1.9099  0.6239  0.3707
  420TIP3   OH225454   1.644   5.986   7.877 -0.0381 -0.0367 -0.3334
  420TIP3    H125455   1.607   5.920   7.818 -1.2857  1.4403 -1.2942
  420TIP3    H225456   1.609   5.963   7.963 -1.0755 -0.2277 -0.7825
  421TIP3   OH225457   3.474   7.094   2.033  0.1159 -0.2034  0.3627
  421TIP3    H125458   3.558   7.114   2.075  1.1981 -1.2116 -1.2006
  421TIP3    H225459   3.413   7.083   2.105  1.6067 -0.6007  1.6176
  422TIP3   OH225460   4.141   6.637   7.579  0.1070 -0.6104  0.0747
  422TIP3    H125461   4.231   6.662   7.596  0.1851 -0.7739 -0.0981
  422TIP3    H225462   4.091   6.718   7.589  0.1263 -0.7228  1.2278
  423TIP3   OH225463   5.468   2.484   7.814  0.0659  0.1377  0.0982
  423TIP3    H125464   5.452   2.436   7.895 -0.5447  2.1553  1.2612
  423TIP3    H225465   5.381   2.510   7.783  0.2571 -0.9757 -1.4969
  424TIP3   OH225466   2.598   2.818   0.416  0.8252 -0.0770 -0.2220
  424TIP3    H125467   2.511   2.842   0.448  1.4033  2.9569 -0.6974
  424TIP3    H225468   2.598   2.722   0.420 -1.4357 -0.1138  2.6550
  425TIP3   OH225469   2.136   3.666   7.348 -0.6588  0.2833  0.0606
  425TIP3    H125470   2.048   3.701   7.332  0.2289  2.7727  0.1871
  425TIP3    H225471   2.140   3.657   7.443 -1.1024 -0.8012 -0.0163
  426TIP3   OH225472   2.533   5.177   2.081  0.6127 -0.1151 -0.1843
  426TIP3    H125473   2.573   5.248   2.131  1.4744  0.7710 -2.0202
  426TIP3    H225474   2.601   5.109   2.076 -0.0870 -0.9606  1.2729
  427TIP3   OH225475   0.979   6.347   8.065 -0.4613 -0.0768 -0.1198
  427TIP3    H125476   1.018   6.292   8.133 -0.9884  1.4102  1.4764
  427TIP3    H225477   0.907   6.295   8.030 -0.8228 -0.4919  1.2070
  428TIP3   OH225478   4.176   3.486   0.587 -0.2540  0.3146 -1.0139
  428TIP3    H125479   4.112   3.464   0.654 -0.4523  1.8528 -0.6657
  428TIP3    H225480   4.157   3.577   0.564  1.7299  0.7786 -0.9753
  429TIP3   OH225481   1.540   1.271   7.043 -0.3133 -0.0529 -0.2515
  429TIP3    H125482   1.461   1.324   7.036 -0.9772 -1.0431 -0.4242
  429TIP3    H225483   1.576   1.270   6.954 -1.6769 -1.9332 -0.8334
  430TIP3   OH225484   3.724   1.668   1.481  0.5635 -0.0348  0.3083
  430TIP3    H125485   3.705   1.741   1.421 -0.7508 -0.5558  0.0594
  430TIP3    H225486   3.661   1.600   1.456  0.5725 -0.5830  1.7188
  431TIP3   OH225487   2.172   0.070   2.076 -0.0237 -0.1400  0.1168
  431TIP3    H125488   2.230   0.079   2.152 -0.5458  2.0842  0.3119
  431TIP3    H225489   2.085   0.063   2.114 -0.2160  0.1763 -0.2704
  432TIP3   OH225490   5.618   6.193   0.640  0.0417  0.3983 -0.0672
  432TIP3    H125491   5.644   6.173   0.729  0.3864  0.4984 -0.1429
  432TIP3    H225492   5.598   6.287   0.641 -1.6258  0.0631  0.3014
  433TIP3   OH225493   0.341   2.728   8.908 -0.2407 -0.4419  0.3626
  433TIP3    H125494   0.294   2.811   8.898  1.3362  0.4440 -0.0407
  433TIP3    H225495   0.419   2.751   8.959  0.1076 -1.7341  0.4387
  434TIP3   OH225496   0.280   2.109   7.243  0.6836  0.3721 -0.4494
  434TIP3    H125497   0.345   2.175   7.267  1.4184  0.1002 -1.5904
  434TIP3    H225498   0.216   2.157   7.190  1.1108  0.2297 -1.1106
  435TIP3   OH225499   4.089   2.036   9.137  0.6693 -0.0847 -0.1203
  435TIP3    H125500   4.100   2.057   9.045 -0.7693  0.1874 -0.2606
  435TIP3    H225501   4.098   1.941   9.141 -0.8216 -0.2838 -0.8248
  436TIP3   OH225502   3.262   6.419   0.900  0.7720  0.0773  0.2814
  436TIP3    H125503   3.275   6.510   0.875  0.7440 -0.4469 -1.7653
  436TIP3    H225504   3.344   6.395   0.945  2.3754  0.1103 -2.3848
  437TIP3   OH225505   7.058   0.827   1.473 -0.2726 -0.0964  0.1176
  437TIP3    H125506   7.057   0.922   1.463  1.4770 -0.1412 -0.8410
  437TIP3    H225507   7.059   0.793   1.383  1.1431 -0.9589  0.4311
  438TIP3   OH225508   2.157   3.956   0.573 -0.5174  0.1970 -0.3298
  438TIP3    H125509   2.121   3.959   0.662  1.8529  0.6352  0.6779
  438TIP3    H225510   2.125   4.037   0.532 -0.9828  0.3859  0.3936
  439TIP3   OH225511   0.048   4.500   7.362 -0.2504 -0.2952 -0.0373
  439TIP3    H125512  -0.009   4.569   7.328 -0.4956  0.1535  1.2595
  439TIP3    H225513   0.131   4.544   7.379  0.4711 -0.9075 -1.7327
  440TIP3   OH225514   6.076   0.848   7.363  0.3964 -0.2702  0.0791
  440TIP3    H125515   6.016   0.905   7.314  0.5592 -0.3495 -0.2192
  440TIP3    H225516   6.155   0.845   7.308  0.1387 -1.3483 -0.2583
  441TIP3   OH225517   6.319   0.518   2.364 -0.2368 -0.4536 -0.8420
  441TIP3    H125518   6.235   0.497   2.404  1.1912 -2.3972  1.4600
  441TIP3    H225519   6.301   0.590   2.304 -3.6823 -1.4321 -1.1768
  442TIP3   OH225520   5.168   3.736   7.316  0.5796 -0.2227 -0.7771
  442TIP3    H125521   5.134   3.741   7.226  0.1722  3.0257 -0.5582
  442TIP3    H225522   5.254   3.694   7.307  0.3463 -0.4018 -2.6077
  443TIP3   OH225523   7.254   0.379   6.754  0.4304 -0.0734  0.1969
  443TIP3    H125524   7.248   0.387   6.849 -0.6224  1.7447  0.0251
  443TIP3    H225525   7.169   0.408   6.721  0.4866 -1.4280 -1.2962
  444TIP3   OH225526   3.139   4.747   9.548 -0.2517  0.4410  0.4414
  444TIP3    H125527   3.234   4.754   9.561 -0.4663  0.5754  2.2509
  444TIP3    H225528   3.122   4.653   9.551 -0.2174  0.4376  0.5431
  445TIP3   OH225529   4.247   1.922   0.305  0.3245  0.3422  0.0383
  445TIP3    H125530   4.194   1.912   0.226  0.8237  0.7427 -0.3522
  445TIP3    H225531   4.185   1.950   0.373  0.1789  1.6961 -0.6258
  446TIP3   OH225532   5.817   5.691   0.260  0.2498  0.0874  0.2326
  446TIP3    H125533   5.765   5.757   0.213  0.2794  0.8094  1.1775
  446TIP3    H225534   5.849   5.632   0.192 -0.0035  0.9035 -0.6072
  447TIP3   OH225535   6.592   0.018   9.140 -0.3179  0.7500 -0.2623
  447TIP3    H125536   6.502   0.049   9.138 -0.1849  1.1090 -0.7224
  447TIP3    H225537   6.630   0.046   9.057 -0.3222 -1.0332 -0.9133
  448TIP3   OH225538   6.605   5.643   9.517 -0.2032 -0.8459 -0.1645
  448TIP3    H125539   6.640   5.600   9.439 -2.2026 -0.5035 -1.3392
  448TIP3    H225540   6.654   5.725   9.523  0.3362 -1.1166 -0.7515
  449TIP3   OH225541   0.019   3.201   7.018 -0.2116 -0.1096  0.9471
  449TIP3    H125542  -0.057   3.164   7.064  0.0677 -0.6177  1.0049
  449TIP3    H225543  -0.018   3.241   6.939 -0.7263  0.9568  1.7034
  450TIP3   OH225544   3.312   0.409   9.483  0.3078  0.5962 -0.0572
  450TIP3    H125545   3.405   0.388   9.495 -0.1972 -0.4298  2.9212
  450TIP3    H225546   3.277   0.412   9.572 -2.3617  1.8218 -1.0625
  451TIP3   OH225547   4.430   1.810   2.761 -0.1756  0.1096 -0.0997
  451TIP3    H125548   4.361   1.750   2.734  0.7105 -0.6958 -0.6200
  451TIP3    H225549   4.391   1.861   2.833 -0.6832 -1.6433  0.9228
  452TIP3   OH225550   2.516   0.646   2.808  0.5147  0.1283  0.6887
  452TIP3    H125551   2.560   0.707   2.749 -0.0841  0.9610  1.0938
  452TIP3    H225552   2.434   0.689   2.830 -0.7218 -1.5591 -0.3569
  453TIP3   OH225553   2.946   2.616   1.956  0.2330 -0.0616  0.3693
  453TIP3    H125554   2.851   2.602   1.952  0.3908 -1.1135 -0.5386
  453TIP3    H225555   2.961   2.695   1.904 -0.1255 -0.0665  0.2559
  454TIP3   OH225556   5.726   1.382   0.723  0.1175  0.2547 -0.1397
  454TIP3    H125557   5.805   1.349   0.766  0.8007  0.6247 -1.0627
  454TIP3    H225558   5.751   1.391   0.631 -2.0279 -2.8303 -1.1619
  455TIP3   OH225559   5.220   4.723   8.403  0.1689 -0.6310 -0.3744
  455TIP3    H125560   5.204   4.683   8.318 -0.3489 -1.4386  0.0948
  455TIP3    H225561   5.138   4.769   8.423  1.0194  1.4217 -1.2800
  456TIP3   OH225562   6.478   3.763   8.638  0.2354  0.4667 -0.6978
  456TIP3    H125563   6.430   3.761   8.721  0.9353  0.6451 -0.2789
  456TIP3    H225564   6.446   3.686   8.590 -3.2078  2.5053 -2.0328
  457TIP3   OH225565   4.889   6.701   0.447  0.4406  0.1093  0.0004
  457TIP3    H125566   4.839   6.634   0.400  1.1837  0.2914 -1.0790
  457TIP3    H225567   4.942   6.651   0.510  0.3919 -0.2485 -0.2377
  458TIP3   OH225568   1.263   6.979   9.460  0.2228 -0.4985 -0.3667
  458TIP3    H125569   1.320   7.050   9.491 -1.4963  0.9415 -0.3531
  458TIP3    H225570   1.192   7.024   9.414 -0.0663 -2.3244 -1.7988
  459TIP3   OH225571   0.256   2.125   0.939 -0.3773 -0.1681  0.1812
  459TIP3    H125572   0.339   2.172   0.950 -0.6177  0.0700  0.9966
  459TIP3    H225573   0.260   2.091   0.849  0.3551  0.3198  0.0197
  460TIP3   OH225574   2.910   0.689   6.654 -0.3322  0.3838 -0.2422
  460TIP3    H125575   2.921   0.783   6.669  0.2772  0.2335  0.2871
  460TIP3    H225576   2.984   0.664   6.599  0.1938 -0.0149  0.6302
  461TIP3   OH225577   7.364   2.077   1.338  0.0950 -0.0046 -0.1703
  461TIP3    H125578   7.450   2.051   1.307  0.0112 -0.2934 -0.1626
  461TIP3    H225579   7.331   2.000   1.385  0.9685  0.9776  2.2476
  462TIP3   OH225580   1.751   5.902   8.829 -0.1600 -0.0410  0.0372
  462TIP3    H125581   1.779   5.861   8.747 -1.1070  0.8739 -0.7677
  462TIP3    H225582   1.785   5.991   8.824 -1.0796  0.3295  0.1674
  463TIP3   OH225583   0.298   6.129   2.495  0.6789 -0.2581  0.3756
  463TIP3    H125584   0.368   6.193   2.478  2.2997 -2.4557 -1.9069
  463TIP3    H225585   0.315   6.099   2.584  0.4391  1.7527  1.1524
  464TIP3   OH225586   4.207   3.345   7.501  0.1001  0.0963 -0.1887
  464TIP3    H125587   4.273   3.405   7.535 -0.7645  0.8987  0.1320
  464TIP3    H225588   4.129   3.365   7.552 -0.6332 -0.1949 -1.1690
  465TIP3   OH225589   5.760   6.615   7.183 -0.3946  0.4646 -0.4741
  465TIP3    H125590   5.787   6.663   7.104 -0.4357  1.3427  0.0343
  465TIP3    H225591   5.723   6.682   7.240  0.4675 -0.0013  0.6767
  466TIP3   OH225592   7.373   2.399   6.640  0.2447 -0.1182  0.2102
  466TIP3    H125593   7.333   2.404   6.726 -0.4943  1.2977 -0.1795
  466TIP3    H225594   7.374   2.306   6.618 -3.9204 -0.2186 -0.2469
  467TIP3   OH225595   7.005   5.095   0.356 -0.6390  0.0521  0.1627
  467TIP3    H125596   6.945   5.072   0.427 -0.4263  0.4828  0.4878
  467TIP3    H225597   7.002   5.190   0.351 -2.3468 -0.0522 -1.9161
  468TIP3   OH225598   4.980   7.171   7.362 -0.0292  0.0397 -0.3586
  468TIP3    H125599   5.030   7.253   7.357 -0.7484  0.4292 -1.5590
  468TIP3    H225600   4.890   7.198   7.346 -0.3386 -0.9292 -0.2578
  469TIP3   OH225601   2.336   3.815   0.431  0.3543  0.5051 -0.2481
  469TIP3    H125602   2.255   3.862   0.453  0.0131 -0.5679  0.8592
  469TIP3    H225603   2.388   3.817   0.512 -0.5620 -2.8037  0.5497
  470TIP3   OH225604   7.026   3.675   2.606 -0.2247 -0.0336 -0.0070
  470TIP3    H125605   7.049   3.649   2.517 -1.4558  1.7702 -0.9011
  470TIP3    H225606   7.110   3.691   2.649  0.3639 -0.5116 -0.9612
  471TIP3   OH225607   6.945   0.575   9.575  0.1648  0.2879 -0.3703
  471TIP3    H125608   6.871   0.533   9.532 -0.2672 -0.1923  0.8108
  471TIP3    H225609   6.906   0.646   9.625  0.1836 -1.2101  1.9026
  472TIP3   OH225610   1.040   7.032   1.256 -0.6096 -0.1310 -0.3569
  472TIP3    H125611   1.092   6.952   1.249 -0.0307  0.0889  1.0543
  472TIP3    H225612   1.067   7.085   1.181  0.8934 -0.2216  0.0767
  473TIP3   OH225613   5.804   1.896   0.734 -0.1212 -0.4586  0.3811
  473TIP3    H125614   5.885   1.906   0.784  0.0252  0.7599 -0.0525
  473TIP3    H225615   5.771   1.986   0.725 -0.0564 -0.6217 -1.8319
  474TIP3   OH225616   2.695   6.232   8.267  0.4071 -0.7041 -0.2266
  474TIP3    H125617   2.712   6.159   8.207 -0.4878 -0.9336 -0.2202
  474TIP3    H225618   2.753   6.217   8.341 -0.0261 -1.6065 -0.0643
  475TIP3   OH225619   2.308   0.067   1.592  0.4665  0.6176 -0.2046
  475TIP3    H125620   2.278  -0.010   1.640  1.2690  0.2823 -0.2386
  475TIP3    H225621   2.403   0.064   1.598  0.5097  2.5747  1.3732
  476TIP3   OH225622   3.665   3.455   9.252  0.2259 -0.0441 -0.3876
  476TIP3    H125623   3.670   3.546   9.280 -1.5459 -0.2445  0.7522
  476TIP3    H225624   3.702   3.454   9.164  0.1051  1.8056 -0.4915
  477TIP3   OH225625   4.038   1.137   8.190  0.0111 -0.0831  0.3664
  477TIP3    H125626   3.964   1.115   8.133  0.1321 -1.1248  0.5974
  477TIP3    H225627   4.008   1.115   8.278  0.4973 -0.2255  0.4957
  478TIP3   OH225628   3.867   2.985   1.020  0.2752 -0.3869  0.2875
  478TIP3    H125629   3.777   2.970   1.049  0.0695 -1.1108 -0.6794
  478TIP3    H225630   3.883   3.077   1.041 -0.3842 -0.4754  1.2624
  479TIP3   OH225631   0.158   0.655   8.334  0.2664 -0.1667 -0.3864
  479TIP3    H125632   0.185   0.580   8.281 -1.3197 -0.1024 -1.3470
  479TIP3    H225633   0.224   0.660   8.404  0.3769 -2.4877 -0.2459
  480TIP3   OH225634   0.629   5.510   7.183 -0.2157  0.1981 -0.1428
  480TIP3    H125635   0.599   5.569   7.114  2.0384 -1.6209 -2.9177
  480TIP3    H225636   0.709   5.551   7.217  0.4249 -0.4064 -0.8918
  481TIP3   OH225637   2.175   5.472   2.029  0.2940  0.4977  0.2984
  481TIP3    H125638   2.091   5.515   2.045  0.1363  0.4393 -0.3295
  481TIP3    H225639   2.207   5.448   2.116  0.5083  2.1038  0.6867
  482TIP3   OH225640   4.813   1.330   7.655 -0.1625  0.8779  0.0716
  482TIP3    H125641   4.803   1.348   7.748 -0.0219  1.8230 -0.0776
  482TIP3    H225642   4.751   1.260   7.637  0.3374  0.1664  1.0134
  483TIP3   OH225643   6.194   4.165   0.113 -0.1557 -0.4107 -0.1264
  483TIP3    H125644   6.103   4.189   0.129 -0.9052 -1.2915 -2.5899
  483TIP3    H225645   6.191   4.075   0.081  1.4999 -0.2842 -0.7956
  484TIP3   OH225646   3.666   1.604   1.742 -0.3753 -0.0509 -0.4916
  484TIP3    H125647   3.659   1.512   1.769 -2.7194 -0.5737 -2.4989
  484TIP3    H225648   3.721   1.601   1.663  1.3887  0.6519  0.6352
  485TIP3   OH225649   3.348   3.867   7.147  0.8338 -0.0198 -0.0028
  485TIP3    H125650   3.354   3.848   7.240  1.1807  2.1013  0.4565
  485TIP3    H225651   3.429   3.914   7.127  0.2510  0.5601 -1.0996
  486TIP3   OH225652   3.884   1.305   7.596  0.6187  0.2851  0.0389
  486TIP3    H125653   3.897   1.399   7.585 -0.4875  0.5320  0.6652
  486TIP3    H225654   3.906   1.267   7.511 -0.5670  1.3133 -0.7666
  487TIP3   OH225655   6.870   5.042   6.375 -0.6538 -0.0267 -0.1486
  487TIP3    H125656   6.781   5.056   6.409 -0.7855 -0.2963 -0.3823
  487TIP3    H225657   6.895   5.127   6.339 -0.2195  0.4950  1.2814
  488TIP3   OH225658   4.992   3.159   2.824  0.3988  0.3141  0.1877
  488TIP3    H125659   4.983   3.143   2.730  1.1646  1.0150 -0.0202
  488TIP3    H225660   4.918   3.113   2.864 -0.0907  0.2339 -0.7848
  489TIP3   OH225661   2.644   1.434   2.606  0.2630  0.1383 -0.4421
  489TIP3    H125662   2.567   1.426   2.662  0.8212 -0.8032  0.2252
  489TIP3    H225663   2.653   1.347   2.566  1.8018 -0.2420  0.6195
  490TIP3   OH225664   3.662   2.573   7.958  0.3517 -0.1996 -0.0130
  490TIP3    H125665   3.619   2.640   7.905  0.1523  0.0892  0.4988
  490TIP3    H225666   3.732   2.539   7.903  1.3983  1.4618  0.2410
  491TIP3   OH225667   4.050   0.057   9.149  0.2184  0.3108  0.0887
  491TIP3    H125668   4.069   0.004   9.226 -2.1535  1.2197  1.3840
  491TIP3    H225669   4.004  -0.002   9.089 -2.9358  0.8840  1.7624
  492TIP3   OH225670   1.394   1.849   7.824 -0.1169 -0.0818  0.2577
  492TIP3    H125671   1.436   1.917   7.770 -1.4174  0.8237  0.3308
  492TIP3    H225672   1.334   1.897   7.880 -1.5721 -1.3592 -0.1472
  493TIP3   OH225673   1.302   4.810   9.579  0.2402  0.1961  0.1074
  493TIP3    H125674   1.280   4.721   9.606 -2.4607  1.0402  1.0427
  493TIP3    H225675   1.227   4.839   9.527  1.0809  1.9154 -0.2238
  494TIP3   OH225676   6.257   1.431   0.838 -0.3363 -0.2931 -0.0855
  494TIP3    H125677   6.170   1.391   0.841 -1.0121  1.1906  0.9299
  494TIP3    H225678   6.248   1.503   0.776 -0.3481  0.9445  1.2964
  495TIP3   OH225679   5.154   1.243   8.965 -0.1999  0.5969  0.0434
  495TIP3    H125680   5.147   1.314   9.029  1.7297  0.4744  0.4490
  495TIP3    H225681   5.197   1.283   8.890  2.7905 -0.5209  1.0426
  496TIP3   OH225682   0.272   5.570   2.885  0.0613  0.4283 -0.3972
  496TIP3    H125683   0.200   5.600   2.941 -1.2417 -0.1496 -1.6726
  496TIP3    H225684   0.318   5.505   2.938 -1.0776 -0.0381  0.0695
  497TIP3   OH225685   0.578   5.282   7.352  0.3266  0.4648 -0.1898
  497TIP3    H125686   0.604   5.356   7.297  3.2395  0.1942  0.6322
  497TIP3    H225687   0.567   5.209   7.291  0.8799  0.7803 -0.6791
  498TIP3   OH225688   0.552   2.970   2.853 -0.4941  0.0889 -0.3720
  498TIP3    H125689   0.521   2.905   2.916 -0.3908  1.0727  0.7211
  498TIP3    H225690   0.498   3.047   2.870  0.4267  0.7974 -0.5910
  499TIP3   OH225691   2.942   1.332   2.667  0.4115  0.2931 -0.7070
  499TIP3    H125692   2.930   1.269   2.597  1.2329  0.6787 -1.2156
  499TIP3    H225693   2.874   1.398   2.653  1.9182  1.5591 -2.5125
  500TIP3   OH225694   4.557   3.872   1.483 -0.0764  0.4174 -0.0686
  500TIP3    H125695   4.526   3.860   1.393 -0.8285  1.5040  0.0158
  500TIP3    H225696   4.479   3.899   1.532  0.5689  1.0682  0.6368
  501TIP3   OH225697   2.249   0.346   1.488 -0.5121  0.2983 -0.0764
  501TIP3    H125698   2.321   0.345   1.551 -1.1516 -1.7572  0.6876
  501TIP3    H225699   2.191   0.275   1.516 -2.0669  0.9149 -1.5683
  502TIP3   OH225700   1.976   2.522   7.720 -0.3619  0.0429 -0.7870
  502TIP3    H125701   1.945   2.601   7.677 -0.5209 -0.1273 -0.9916
  502TIP3    H225702   1.975   2.543   7.813  1.1513  0.8281 -0.9238
  503TIP3   OH225703   4.235   3.189   8.819  0.6419 -0.4046  0.3868
  503TIP3    H125704   4.313   3.153   8.862  0.3220 -0.3722  1.0020
  503TIP3    H225705   4.213   3.124   8.752  1.5351 -0.1336 -0.1752
  504TIP3   OH225706   3.442   4.333   1.447 -0.7292 -0.0521  0.1528
  504TIP3    H125707   3.523   4.383   1.438  0.3061 -1.7466 -0.5574
  504TIP3    H225708   3.437   4.311   1.540  0.4207 -1.1464 -0.0217
  505TIP3   OH225709   6.833   5.623   2.304 -0.1177  0.3188  0.4610
  505TIP3    H125710   6.791   5.685   2.244 -0.5152 -0.7290 -0.3873
  505TIP3    H225711   6.782   5.629   2.385 -0.7011  0.4587  0.0897
  506TIP3   OH225712   5.683   6.332   8.180 -0.2341 -0.4223  0.2895
  506TIP3    H125713   5.638   6.269   8.237 -1.1104 -0.6972 -0.6588
  506TIP3    H225714   5.654   6.418   8.211 -1.1053 -0.5839 -0.0459
  507TIP3   OH225715   6.354   2.119   0.423 -0.1287 -0.1993  0.0154
  507TIP3    H125716   6.423   2.099   0.360  0.9399 -2.8605  1.8484
  507TIP3    H225717   6.382   2.199   0.466  0.5107  0.1294 -0.9917
  508TIP3   OH225718   4.153   2.932   0.104 -0.1341 -0.4283 -0.3510
  508TIP3    H125719   4.096   3.002   0.138 -1.3519 -1.1121 -0.9034
  508TIP3    H225720   4.147   2.941   0.009  0.2560 -0.8540 -0.4147
  509TIP3   OH225721   0.885   4.915   2.526 -0.5507 -0.0107 -0.5152
  509TIP3    H125722   0.883   5.008   2.547 -0.5741  0.9643 -4.1837
  509TIP3    H225723   0.964   4.882   2.570  1.0953  2.4396 -1.3987
  510TIP3   OH225724   3.323   1.764   7.936  0.1674 -1.0632  0.4364
  510TIP3    H125725   3.241   1.715   7.933  0.2599 -1.2239 -3.3132
  510TIP3    H225726   3.298   1.851   7.967 -1.3205 -1.2736 -0.1101
  511TIP3   OH225727   0.957   1.341   8.791 -0.3043 -0.3745 -0.3823
  511TIP3    H125728   1.045   1.377   8.799 -1.0383  1.6311 -0.7364
  511TIP3    H225729   0.925   1.335   8.881 -0.2700  0.1686 -0.3293
  512TIP3   OH225730   3.420   3.508   9.453  0.2953 -0.6612  0.2308
  512TIP3    H125731   3.449   3.439   9.393  0.3055  0.4617 -1.1112
  512TIP3    H225732   3.413   3.586   9.398 -0.0660  0.3351  1.6323
  513TIP3   OH225733   4.392   7.046   9.602 -0.7387 -0.0473 -0.0834
  513TIP3    H125734   4.332   6.972   9.616  0.1617 -0.7998 -0.1249
  513TIP3    H225735   4.373   7.106   9.674 -1.0462 -0.6082  0.3108
  514TIP3   OH225736   7.252   2.832   9.005 -0.6288 -0.2974 -0.5225
  514TIP3    H125737   7.272   2.739   9.007 -0.3485 -0.2434 -0.6370
  514TIP3    H225738   7.259   2.861   9.096 -0.2382 -0.2966 -0.5471
  515TIP3   OH225739   3.840   2.756   2.630 -0.7390  0.1006  0.3831
  515TIP3    H125740   3.867   2.707   2.552 -0.5011 -0.1797  0.6396
  515TIP3    H225741   3.756   2.718   2.655 -0.3997 -0.3940  0.7713
  516TIP3   OH225742   0.848   6.455   8.646 -0.1191  0.1096 -0.8054
  516TIP3    H125743   0.856   6.541   8.604  0.3781  1.3368  1.6309
  516TIP3    H225744   0.778   6.466   8.710  1.0033 -0.7867  0.6403
  517TIP3   OH225745   7.289   3.595   9.074 -0.1568  0.1793 -0.5171
  517TIP3    H125746   7.232   3.672   9.071 -0.7487 -0.2144  0.3495
  517TIP3    H225747   7.322   3.592   9.164 -1.4991 -1.5160 -0.0069
  518TIP3   OH225748   0.789   6.789   6.879 -0.0717  0.3009  0.0789
  518TIP3    H125749   0.734   6.723   6.837  0.1091  1.0435 -1.3699
  518TIP3    H225750   0.728   6.845   6.927 -0.4520  0.3125 -0.4071
  519TIP3   OH225751   5.049   0.796   8.743  0.9226 -0.2974 -0.1346
  519TIP3    H125752   5.037   0.864   8.809 -0.7162 -0.7311  0.0698
  519TIP3    H225753   5.142   0.800   8.720  1.1804  0.9368  1.0133
  520TIP3   OH225754   0.896   0.272   0.177 -0.1105  0.3588 -0.6133
  520TIP3    H125755   0.841   0.343   0.142  0.7460  0.7722 -1.1423
  520TIP3    H225756   0.849   0.242   0.255 -0.0446  2.1243  0.1474
  521TIP3   OH225757   5.751   3.273   6.460  0.1879  0.4641 -0.6788
  521TIP3    H125758   5.669   3.314   6.488  0.6218  0.5153  0.5780
  521TIP3    H225759   5.801   3.344   6.419  0.2923  0.8262  0.0746
  522TIP3   OH225760   0.195   1.041   0.609 -0.2972  0.0815  0.1419
  522TIP3    H125761   0.236   1.108   0.664 -0.9632  0.6650 -0.0507
  522TIP3    H225762   0.262   0.975   0.597  0.7972  1.2989 -0.6516
  523TIP3   OH225763   1.261   3.197   9.258  0.1653  0.1869 -0.4115
  523TIP3    H125764   1.234   3.108   9.280  0.5141  0.1023 -0.3178
  523TIP3    H225765   1.351   3.202   9.289 -0.0268  0.7475  0.0734
  524TIP3   OH225766   5.684   4.408   9.463 -0.4520  0.2522  0.5971
  524TIP3    H125767   5.775   4.386   9.441 -0.7734 -0.8895  0.3023
  524TIP3    H225768   5.654   4.335   9.518 -0.6986  1.4386  2.0976
  525TIP3   OH225769   0.875   1.669   9.022  0.1353  0.0395  0.0196
  525TIP3    H125770   0.845   1.679   9.112  0.9204  0.0888  0.2876
  525TIP3    H225771   0.808   1.616   8.979 -0.9739  1.2154  0.2366
  526TIP3   OH225772   4.914   5.836   0.148  0.7069  0.1011 -0.4681
  526TIP3    H125773   5.005   5.823   0.175  0.3928  1.2591  1.3569
  526TIP3    H225774   4.876   5.748   0.149  1.7854 -0.4050 -1.2879
  527TIP3   OH225775   1.647   5.243   1.021  0.2394 -0.2100  0.0477
  527TIP3    H125776   1.693   5.161   1.000 -1.1619 -1.2757  0.9847
  527TIP3    H225777   1.718   5.306   1.039  1.3724 -0.8162 -1.9387
  528TIP3   OH225778   4.827   6.890   7.682  0.0956 -0.3064 -0.2059
  528TIP3    H125779   4.786   6.829   7.743  0.6909  0.0609  0.5712
  528TIP3    H225780   4.759   6.906   7.616 -1.2307  0.7073  1.3279
  529TIP3   OH225781   1.310   3.234   2.092  0.2396  0.4787 -0.1824
  529TIP3    H125782   1.284   3.142   2.106  1.3990  0.0465 -0.7363
  529TIP3    H225783   1.400   3.238   2.124 -0.0158  1.5952  0.4191
  530TIP3   OH225784   1.959   1.239   0.595 -0.4486  0.4572  0.2025
  530TIP3    H125785   1.901   1.199   0.530 -1.4315 -0.4511  1.6000
  530TIP3    H225786   1.959   1.332   0.572  0.9817 -0.0781 -2.4132
  531TIP3   OH225787   6.921   5.278   1.943 -0.0994  0.0679 -0.0939
  531TIP3    H125788   6.885   5.361   1.976  0.9654  0.2436  0.6839
  531TIP3    H225789   6.857   5.248   1.880 -0.8648  1.1295  0.1436
  532TIP3   OH225790   5.195   1.685   1.365 -0.1932  0.3110  0.3178
  532TIP3    H125791   5.180   1.684   1.270  1.7863  0.1303 -0.0521
  532TIP3    H225792   5.284   1.649   1.375  0.1748  1.5814  2.1217
  533TIP3   OH225793   2.080   7.101   6.899 -1.0659 -0.3502 -0.2468
  533TIP3    H125794   2.138   7.025   6.898 -0.4869 -0.0475  2.6514
  533TIP3    H225795   2.010   7.079   6.837  1.3063 -1.3142 -2.7866
  534TIP3   OH225796   7.337   2.453   0.252  0.3471 -0.9286  0.5450
  534TIP3    H125797   7.383   2.462   0.336  2.3692  1.2939 -0.6794
  534TIP3    H225798   7.401   2.413   0.194 -0.3291 -0.5963 -0.4413
  535TIP3   OH225799   4.290   6.208   1.258  0.3994 -0.0557  0.2660
  535TIP3    H125800   4.250   6.234   1.174  1.3040  0.3399 -0.0484
  535TIP3    H225801   4.337   6.285   1.287 -1.1379  0.3223  1.9288
  536TIP3   OH225802   4.924   1.462   8.574  0.0196 -0.2848  0.0527
  536TIP3    H125803   4.880   1.440   8.656 -0.5715  0.3900 -0.0688
  536TIP3    H225804   4.892   1.397   8.511 -3.2093  1.8764 -0.7869
  537TIP3   OH225805   7.413   5.324   7.641  0.2441  0.0618  0.0396
  537TIP3    H125806   7.466   5.309   7.720 -0.0099 -2.0914 -0.1187
  537TIP3    H225807   7.364   5.242   7.631  0.1633  0.3457 -2.2648
  538TIP3   OH225808   1.274   5.910   2.132  0.0941  0.3484  0.3873
  538TIP3    H125809   1.288   5.873   2.219 -0.2524  0.8865  0.6789
  538TIP3    H225810   1.294   6.003   2.142  0.7479  0.2861 -0.2833
  539TIP3   OH225811   6.519   3.873   2.158  0.5697  0.1113 -0.0273
  539TIP3    H125812   6.538   3.831   2.242  0.7103 -1.2400 -0.6972
  539TIP3    H225813   6.425   3.859   2.145  0.8577 -1.2510 -0.8714
  540TIP3   OH225814   4.827   4.680   7.454  0.4339  0.2972  0.0436
  540TIP3    H125815   4.921   4.660   7.452  0.4676  0.4564  0.0243
  540TIP3    H225816   4.808   4.691   7.547  0.4452  0.3127  0.0441
  541TIP3   OH225817   0.027   5.448   0.921  0.2687 -0.3817 -0.6839
  541TIP3    H125818   0.019   5.445   0.826  0.0951 -2.1663 -0.6489
  541TIP3    H225819  -0.064   5.444   0.953  0.3399 -0.0808 -0.4318
  542TIP3   OH225820   7.244   2.699   0.555 -0.1878  0.3881 -0.0742
  542TIP3    H125821   7.200   2.639   0.495  0.8169 -0.8563  0.3691
  542TIP3    H225822   7.237   2.785   0.513  0.0165 -0.3545 -1.7087
  543TIP3   OH225823   5.944   6.526   8.747 -0.1626 -0.5619 -0.5916
  543TIP3    H125824   5.906   6.596   8.694 -1.6731 -0.5578  0.4372
  543TIP3    H225825   6.038   6.535   8.734 -0.3685  1.1107 -1.1636
  544TIP3   OH225826   1.504   6.817   9.147  0.3858 -0.3883 -0.0142
  544TIP3    H125827   1.418   6.839   9.183 -0.1911  1.0544 -2.0668
  544TIP3    H225828   1.567   6.858   9.206 -0.4086 -0.2280  0.7313
  545TIP3   OH225829   5.360   0.425   7.668  0.7093  0.1325  0.2088
  545TIP3    H125830   5.426   0.490   7.643 -0.7993  1.4695 -0.5241
  545TIP3    H225831   5.358   0.363   7.595  1.6209 -0.3095  0.5533
  546TIP3   OH225832   2.615   0.633   0.384 -0.0068 -0.1928  0.0643
  546TIP3    H125833   2.656   0.668   0.304 -0.3218  1.1117  0.4556
  546TIP3    H225834   2.546   0.695   0.404 -0.8043 -1.2391  0.6182
  547TIP3   OH225835   4.973   5.053   8.715  0.2979  0.4537  0.2666
  547TIP3    H125836   4.985   4.979   8.774  2.0292 -0.6387 -1.3858
  547TIP3    H225837   4.935   5.121   8.771  0.1648 -1.1094  2.1983
  548TIP3   OH225838   6.756   3.865   9.016  0.3455  0.0688 -0.4600
  548TIP3    H125839   6.735   3.805   9.088  0.1186 -0.3881 -0.9056
  548TIP3    H225840   6.796   3.941   9.060  0.7740 -0.4684  0.0920
  549TIP3   OH225841   0.287   5.528   2.073  0.3121  0.8582 -0.0840
  549TIP3    H125842   0.216   5.528   2.009 -1.0482  1.3010  1.3718
  549TIP3    H225843   0.336   5.608   2.055  0.6264  0.4288 -1.2532
  550TIP3   OH225844   3.237   3.858   1.118  0.2484  0.2350 -0.1976
  550TIP3    H125845   3.190   3.803   1.055 -1.9626  2.3674 -0.5688
  550TIP3    H225846   3.215   3.822   1.203  0.8374 -0.8911 -0.5034
  551TIP3   OH225847   1.128   0.093   0.650 -0.0210  0.1308 -0.2217
  551TIP3    H125848   1.067   0.163   0.628  0.2857  0.4117 -0.1919
  551TIP3    H225849   1.164   0.065   0.566  0.5839  0.6847 -0.1617
  552TIP3   OH225850   4.684   3.480   2.267  0.2014  0.2456  0.1493
  552TIP3    H125851   4.773   3.446   2.266 -0.3957 -1.5522 -2.7155
  552TIP3    H225852   4.629   3.404   2.287 -0.8729  0.3387 -2.0765
  553TIP3   OH225853   1.721   1.191   8.507  0.6523  0.1407 -0.1675
  553TIP3    H125854   1.664   1.157   8.575 -1.9114  0.1299 -2.1707
  553TIP3    H225855   1.808   1.195   8.548 -0.8854  1.1706  3.3990
  554TIP3   OH225856   6.185   1.508   8.733  0.1609  0.4854  0.0673
  554TIP3    H125857   6.194   1.551   8.648  0.2346 -0.8553 -0.6122
  554TIP3    H225858   6.206   1.416   8.717 -0.9431 -0.0161  1.2959
  555TIP3   OH225859   5.652   2.609   1.496  0.0850  0.4330 -0.5183
  555TIP3    H125860   5.562   2.640   1.487  0.0237  1.1138  1.8490
  555TIP3    H225861   5.705   2.689   1.488  0.5340  0.0179 -2.0458
  556TIP3   OH225862   1.053   4.935   9.150 -0.4293 -0.0961 -0.7176
  556TIP3    H125863   1.037   4.864   9.088 -0.4844  0.9314 -1.9058
  556TIP3    H225864   0.966   4.959   9.182 -0.5756  0.4787 -1.5178
  557TIP3   OH225865   5.759   1.046   0.683  0.5809  0.5312 -0.2807
  557TIP3    H125866   5.841   1.092   0.664 -0.2980  1.2980 -2.6006
  557TIP3    H225867   5.697   1.081   0.620 -1.2000 -1.0282  0.5013
  558TIP3   OH225868   0.285   3.802   0.492  0.2268 -0.2604 -0.2054
  558TIP3    H125869   0.228   3.728   0.472  0.8659 -0.7895 -0.0623
  558TIP3    H225870   0.350   3.768   0.552  1.3744  0.0552 -1.2175
  559TIP3   OH225871   0.450   4.822   9.426 -0.3160 -0.2250  0.2398
  559TIP3    H125872   0.367   4.869   9.430 -0.2087  0.0339 -0.4973
  559TIP3    H225873   0.427   4.730   9.441 -0.5983 -0.0191  1.0902
  560TIP3   OH225874   3.356   3.677   1.936 -0.5352  0.6737  0.1351
  560TIP3    H125875   3.338   3.589   1.903  2.6535  0.0055 -0.1253
  560TIP3    H225876   3.336   3.734   1.863  1.9213 -0.3704 -1.5010
  561TIP3   OH225877   4.764   2.637   6.906 -0.1870  0.3599  0.1689
  561TIP3    H125878   4.777   2.666   6.816 -0.8076 -0.7017 -0.2896
  561TIP3    H225879   4.680   2.591   6.904 -0.2093  0.3290  1.2930
  562TIP3   OH225880   0.777   1.709   0.243  0.4952  0.0709  0.2279
  562TIP3    H125881   0.760   1.735   0.152 -1.7435  0.6592  0.7347
  562TIP3    H225882   0.812   1.788   0.284 -0.9200  0.6100  0.4416
  563TIP3   OH225883   2.260   3.688   2.466 -0.3387  0.5704  0.2977
  563TIP3    H125884   2.312   3.704   2.544  2.1950 -1.4378 -0.8498
  563TIP3    H225885   2.285   3.758   2.406 -0.5232  0.7675  0.4474
  564TIP3   OH225886   3.417   5.917   7.740 -0.0978  0.5725 -0.0829
  564TIP3    H125887   3.331   5.959   7.743  0.2037  1.1625  1.0943
  564TIP3    H225888   3.460   5.946   7.821  1.6481  1.2312 -1.1906
  565TIP3   OH225889   2.553   3.151   7.726 -0.4361 -0.3479  0.0016
  565TIP3    H125890   2.577   3.185   7.813  1.4593  0.6979 -0.8621
  565TIP3    H225891   2.488   3.084   7.744 -0.9132  0.5953  2.1552
  566TIP3   OH225892   1.080   0.265   3.054  0.1389 -0.3230 -0.6100
  566TIP3    H125893   1.021   0.319   3.108 -0.8598 -0.8110 -1.1880
  566TIP3    H225894   1.166   0.304   3.067 -0.5446  1.4285 -0.9850
  567TIP3   OH225895   7.190   1.968   0.683 -0.5833  0.3379  0.2834
  567TIP3    H125896   7.125   2.025   0.642 -1.1189 -0.5245 -0.0834
  567TIP3    H225897   7.179   1.985   0.777 -0.3472  1.2427  0.1634
  568TIP3   OH225898   0.532   6.039   1.561  0.2560  0.5237 -0.1840
  568TIP3    H125899   0.460   6.016   1.620  0.5043  1.9690  0.7410
  568TIP3    H225900   0.490   6.063   1.479 -0.0101 -3.3950 -1.4144
  569TIP3   OH225901   6.358   1.827   0.188 -0.2549  0.0074 -0.0138
  569TIP3    H125902   6.305   1.906   0.197 -0.4956 -0.2792  1.3289
  569TIP3    H225903   6.436   1.854   0.140  0.1367  1.3057  1.2861
  570TIP3   OH225904   3.845   5.057   0.100 -0.1928  0.4946 -0.1239
  570TIP3    H125905   3.812   5.061   0.189 -0.5913 -0.2452 -0.2292
  570TIP3    H225906   3.849   4.963   0.080  1.1690  0.5915 -0.4202
  571TIP3   OH225907   1.771   4.701   7.063  0.1243 -0.3393  0.1765
  571TIP3    H125908   1.800   4.625   7.012  1.4603 -1.0582  1.9103
  571TIP3    H225909   1.729   4.759   6.998  1.2732 -1.4242 -1.6248
  572TIP3   OH225910   5.225   6.398   1.223 -0.5707  0.2649 -0.4158
  572TIP3    H125911   5.270   6.337   1.281  2.1710  0.4388 -2.1901
  572TIP3    H225912   5.165   6.344   1.172 -0.0687 -0.5166 -0.1836
  573TIP3   OH225913   0.831   0.630   1.072  0.6701  0.2317  0.2356
  573TIP3    H125914   0.906   0.685   1.050 -0.2550  0.8683 -1.6058
  573TIP3    H225915   0.833   0.560   1.006  0.7407 -0.8752  1.3772
  574TIP3   OH225916   3.092   5.913   9.386  0.0632 -0.1266 -0.5032
  574TIP3    H125917   3.001   5.931   9.362 -0.3365  0.2126  1.1737
  574TIP3    H225918   3.143   5.942   9.311 -1.1923 -0.1563 -1.3958
  575TIP3   OH225919   3.760   4.081   1.310  0.0675  0.0637  0.9807
  575TIP3    H125920   3.669   4.108   1.299 -0.0155 -0.0211  1.4244
  575TIP3    H225921   3.765   4.051   1.401  0.0525 -1.7483  0.4348
  576TIP3   OH225922   3.331   1.922   0.940 -0.0425 -0.3431  0.1422
  576TIP3    H125923   3.273   1.886   0.873  0.5025 -1.1247  0.0872
  576TIP3    H225924   3.415   1.934   0.896  0.1508 -0.2752  0.5249
  577TIP3   OH225925   1.721   6.255   7.071  0.2014 -0.1997 -0.8805
  577TIP3    H125926   1.626   6.242   7.062  0.2593 -1.7472  0.4859
  577TIP3    H225927   1.752   6.177   7.116  1.9939  0.7589 -0.3882
  578TIP3   OH225928   6.630   3.589   1.157  0.1010  0.0544 -0.0031
  578TIP3    H125929   6.584   3.506   1.166 -3.5288  1.8803  0.3535
  578TIP3    H225930   6.596   3.626   1.075  2.7986  0.6285 -0.9707
  579TIP3   OH225931   2.131   1.939   9.052  0.4433  0.1035  0.0044
  579TIP3    H125932   2.149   2.031   9.033  1.1654  0.4422  2.0476
  579TIP3    H225933   2.079   1.942   9.133 -1.8101 -1.2203 -1.2946
  580TIP3   OH225934   3.661   5.811   7.909 -0.5458  1.0163  0.3358
  580TIP3    H125935   3.685   5.866   7.835 -1.6066  2.1093  0.7582
  580TIP3    H225936   3.635   5.728   7.870 -1.1586  1.6013 -0.5422
  581TIP3   OH225937   3.052   4.128   6.931 -0.2510 -0.0637  0.4629
  581TIP3    H125938   3.097   4.047   6.955 -1.3038 -0.4438  1.2178
  581TIP3    H225939   3.028   4.168   7.014 -0.1589  0.7999  0.0852
  582TIP3   OH225940   5.136   1.644   1.096 -0.0787  0.0905  0.1294
  582TIP3    H125941   5.182   1.611   1.019 -0.0013  0.4960  0.0031
  582TIP3    H225942   5.050   1.670   1.063 -0.4844 -0.8481  0.3980
  583TIP3   OH225943   5.168   3.884   1.777  0.1505  0.3017 -0.6308
  583TIP3    H125944   5.211   3.862   1.860 -1.2135 -1.6483 -0.3655
  583TIP3    H225945   5.080   3.911   1.802 -0.1116  0.1864 -1.3914
  584TIP3   OH225946   1.853   3.108   8.121  0.0730  0.1337 -0.7080
  584TIP3    H125947   1.870   3.016   8.100  0.3721 -0.0187  0.1600
  584TIP3    H225948   1.914   3.127   8.192 -1.0301  0.5705  0.1461
  585TIP3   OH225949   0.457   3.093   1.988 -0.0746  0.3531 -0.5659
  585TIP3    H125950   0.503   3.177   1.991  1.1482 -0.2813 -0.7360
  585TIP3    H225951   0.370   3.114   1.954 -1.3905  2.1892  3.3768
  586TIP3   OH225952   5.696   2.416   1.693 -0.6502  0.4488 -0.0369
  586TIP3    H125953   5.739   2.356   1.632  1.4577  1.5828  0.2282
  586TIP3    H225954   5.660   2.485   1.636 -0.1043  0.6691 -0.1217
  587TIP3   OH225955   3.417   4.941   2.777 -0.5112  0.0677 -0.1507
  587TIP3    H125956   3.494   4.901   2.736 -0.0897 -0.0478  0.7448
  587TIP3    H225957   3.354   4.950   2.705 -0.1354 -0.9988 -0.6259
  588TIP3   OH225958   6.771   1.406   9.063  0.0626 -0.3497 -0.2891
  588TIP3    H125959   6.688   1.359   9.057 -0.7103  0.9565 -0.2290
  588TIP3    H225960   6.806   1.404   8.974 -0.3747 -0.3143 -0.4658
  589TIP3   OH225961   1.312   4.666   0.920 -0.2051 -0.2446 -0.3603
  589TIP3    H125962   1.371   4.593   0.902  1.1415  0.6100  0.4129
  589TIP3    H225963   1.232   4.626   0.953  1.1075 -1.3364  1.6861
  590TIP3   OH225964   6.381   1.062   1.977  0.2513 -0.0948  0.5143
  590TIP3    H125965   6.472   1.042   1.958  0.1479  0.4312 -0.6233
  590TIP3    H225966   6.377   1.070   2.072  1.0856 -1.5322  0.7017
  591TIP3   OH225967   0.212   4.716   7.902  0.0360 -0.1033 -0.2777
  591TIP3    H125968   0.179   4.786   7.957 -3.0942 -0.3281 -1.6623
  591TIP3    H225969   0.145   4.648   7.907  1.3888 -1.6205 -1.5663
  592TIP3   OH225970   5.951   1.852   8.725  0.2200 -0.3104 -0.0723
  592TIP3    H125971   5.914   1.934   8.758  1.2674  0.2446 -0.2254
  592TIP3    H225972   5.949   1.862   8.629  2.8837  0.7746 -0.1062
  593TIP3   OH225973   1.203   7.274   0.482 -0.2968 -0.0263 -0.3031
  593TIP3    H125974   1.296   7.254   0.487 -0.2616  0.2070  0.0278
  593TIP3    H225975   1.187   7.292   0.389  0.0506  0.2430 -0.3121
  594TIP3   OH225976   1.388   0.173   6.521  0.2806 -0.2821  0.0689
  594TIP3    H125977   1.404   0.255   6.568 -1.8450 -0.3280  1.0024
  594TIP3    H225978   1.466   0.160   6.468  1.4945  1.3531  1.3383
  595TIP3   OH225979   2.351   5.106   2.356  0.8138 -0.2696 -0.1875
  595TIP3    H125980   2.347   5.065   2.270 -2.3043  1.3257 -0.9821
  595TIP3    H225981   2.329   5.036   2.417 -2.1902 -0.4348 -1.2942
  596TIP3   OH225982   3.706   7.054   8.674 -0.6611 -0.5164 -0.2502
  596TIP3    H125983   3.612   7.039   8.674 -1.0535  1.4103  2.0010
  596TIP3    H225984   3.730   7.060   8.767  1.6113 -0.4724 -0.7686
  597TIP3   OH225985   4.498   3.302   7.096 -0.0067 -0.1958  0.1487
  597TIP3    H125986   4.452   3.372   7.143 -0.0444  0.5857 -1.0324
  597TIP3    H225987   4.562   3.269   7.160  0.3285  1.2151  0.5772
  598TIP3   OH225988   4.894   2.328   6.262  0.1032  0.0780  0.0083
  598TIP3    H125989   4.896   2.362   6.351 -0.1145 -1.4174  0.6197
  598TIP3    H225990   4.809   2.356   6.227  0.5642  1.4309 -0.0626
  599TIP3   OH225991   5.542   0.397   2.719 -0.0948 -0.4078  0.0925
  599TIP3    H125992   5.546   0.477   2.771  1.1920  0.6455 -1.5365
  599TIP3    H225993   5.616   0.345   2.749  0.5699  0.1428 -0.5429
  600TIP3   OH225994   0.394   6.757   2.506 -0.5835 -0.9757  0.5934
  600TIP3    H125995   0.406   6.679   2.452  0.3328  1.1883 -2.6571
  600TIP3    H225996   0.475   6.764   2.557  0.4197 -0.8974 -0.9429
  601TIP3   OH225997   2.903   0.147   7.883  0.2384 -0.0595  0.5563
  601TIP3    H125998   2.996   0.148   7.861 -0.1117  0.5022 -1.0249
  601TIP3    H225999   2.898   0.191   7.968  1.2681  1.2267 -0.0201
  602TIP3   OH226000   2.852   3.805   8.763  0.1905  0.3728 -0.1015
  602TIP3    H126001   2.769   3.843   8.733 -0.0827 -0.9140 -1.0490
  602TIP3    H226002   2.832   3.772   8.851 -0.1420  0.5555 -0.1039
  603TIP3   OH226003   7.210   5.190   7.299 -0.4809 -0.0232 -0.2268
  603TIP3    H126004   7.261   5.138   7.236 -0.5616  0.7604 -0.9504
  603TIP3    H226005   7.272   5.252   7.336 -0.6304  0.1044 -0.1865
  604TIP3   OH226006   2.967   3.800   1.838  0.2974  0.0868  0.2125
  604TIP3    H126007   2.905   3.834   1.773  0.5318 -1.8227 -1.1039
  604TIP3    H226008   3.018   3.877   1.865  0.3536  0.9505 -2.0630
  605TIP3   OH226009   6.476   5.696   0.926  0.1679 -0.2345 -0.5255
  605TIP3    H126010   6.560   5.738   0.945 -0.0793 -0.0826  0.2743
  605TIP3    H226011   6.493   5.640   0.850  1.2738 -1.0960  0.3390
  606TIP3   OH226012   2.540   7.228   7.738 -0.2173 -0.2990 -0.4444
  606TIP3    H126013   2.543   7.322   7.751  1.0037 -0.3070 -0.6022
  606TIP3    H226014   2.452   7.203   7.767 -0.9560  1.0189 -1.4044
  607TIP3   OH226015   7.296   0.690   3.169 -0.6828 -0.0173  0.2586
  607TIP3    H126016   7.351   0.768   3.168  0.1132 -0.5716 -0.2381
  607TIP3    H226017   7.316   0.645   3.087  0.2364 -1.6557  1.3110
  608TIP3   OH226018   3.520   3.218   6.961 -0.2267  0.2309  0.3755
  608TIP3    H126019   3.560   3.132   6.969  0.2630  0.4801  0.6513
  608TIP3    H226020   3.428   3.204   6.980 -0.1570 -0.2392  0.3679
  609TIP3   OH226021   7.375   1.789   0.218  0.1892 -0.0408  0.0786
  609TIP3    H126022   7.315   1.841   0.272 -0.0352 -0.5433  0.3170
  609TIP3    H226023   7.325   1.767   0.140 -0.4931 -1.7609  0.9463
  610TIP3   OH226024   7.051   1.786   0.871 -0.4482 -1.2284  0.3930
  610TIP3    H126025   6.988   1.837   0.821 -2.2444 -1.4124  2.3205
  610TIP3    H226026   7.122   1.768   0.809 -0.2466  2.5289 -0.7075
  611TIP3   OH226027   6.272   6.646   8.190  0.5030 -0.2108 -0.0664
  611TIP3    H126028   6.280   6.667   8.283  2.0229  0.9872 -0.4306
  611TIP3    H226029   6.273   6.550   8.188 -1.6621 -0.3341  1.2692
  612TIP3   OH226030   5.215   4.892   1.633  0.4878  0.2574  0.3263
  612TIP3    H126031   5.310   4.893   1.642  0.4755  2.2427  0.8325
  612TIP3    H226032   5.182   4.868   1.720  0.5201  0.0341  0.2772
  613TIP3   OH226033   1.096   2.965   8.297  0.1460  0.0824  0.1163
  613TIP3    H126034   1.159   3.033   8.271  1.5935 -1.4210 -0.5137
  613TIP3    H226035   1.054   2.939   8.215  0.2992 -0.4584  0.2112
  614TIP3   OH226036   2.856   2.870   1.526 -0.6545  0.4895 -0.3926
  614TIP3    H126037   2.838   2.847   1.435  0.8643  0.8109 -0.8032
  614TIP3    H226038   2.780   2.837   1.575 -1.3151 -0.0151 -1.7152
  615TIP3   OH226039   4.896   7.382   0.924 -0.1735 -0.8044  0.0017
  615TIP3    H126040   4.839   7.391   1.000 -0.4245 -1.4584 -0.0959
  615TIP3    H226041   4.937   7.468   0.913  0.3732 -0.8794  1.2772
  616TIP3   OH226042   2.575   2.506   9.620  0.4302  0.4710  0.1655
  616TIP3    H126043   2.606   2.436   9.678  3.1030  1.3098 -0.1158
  616TIP3    H226044   2.579   2.585   9.674 -0.6975  0.7068 -0.0832
  617TIP3   OH226045   6.025   3.401   0.352  0.5427  0.2410 -0.1927
  617TIP3    H126046   5.996   3.477   0.403  1.0090  0.0578  0.3505
  617TIP3    H226047   5.949   3.344   0.349  0.8620 -0.3120  1.3603
  618TIP3   OH226048   1.294   0.142   1.689  0.1032  0.0948 -0.2776
  618TIP3    H126049   1.199   0.134   1.692 -0.0578  1.9971  0.9033
  618TIP3    H226050   1.326   0.077   1.752 -0.5539  0.9492  0.9772
  619TIP3   OH226051   1.832   1.806   9.217  0.0413 -0.2299 -0.6724
  619TIP3    H126052   1.855   1.795   9.124 -2.0405 -0.4937 -1.2082
  619TIP3    H226053   1.777   1.885   9.219 -0.6164 -0.6883  0.1897
  620TIP3   OH226054   7.353   6.257   1.726 -0.0534  0.0552  0.1776
  620TIP3    H126055   7.418   6.245   1.795 -0.2979 -0.3261  0.3433
  620TIP3    H226056   7.399   6.233   1.645  0.4340  1.1318  0.1159
  621TIP3   OH226057   5.045   3.972   2.763  0.3294 -0.7001  0.3088
  621TIP3    H126058   5.113   3.953   2.699 -0.7562 -0.1456 -1.0826
  621TIP3    H226059   5.068   4.058   2.798 -0.4881  0.2762 -1.4014
  622TIP3   OH226060   3.769   3.714   0.348  0.0444 -0.1229 -0.0872
  622TIP3    H126061   3.719   3.736   0.427  1.6393  1.7011  0.4907
  622TIP3    H226062   3.754   3.789   0.290  0.4354 -0.5518 -0.7471
  623TIP3   OH226063   6.206   3.706   1.014  0.6279 -0.5512 -0.2417
  623TIP3    H126064   6.291   3.701   0.970  1.2423  0.0920  0.8203
  623TIP3    H226065   6.201   3.626   1.066  1.2139  0.0454  0.7578
  624TIP3   OH226066   4.190   2.241   1.570  0.4825 -0.0586 -0.0611
  624TIP3    H126067   4.164   2.178   1.503  1.8470  1.0452 -1.7297
  624TIP3    H226068   4.168   2.326   1.532 -1.1268  0.5558  2.0433
  625TIP3   OH226069   5.940   1.577   0.916  0.1485 -0.4412  0.4993
  625TIP3    H126070   5.846   1.584   0.933 -0.1285  2.4175 -1.4437
  625TIP3    H226071   5.950   1.494   0.869 -1.7837  0.0892 -1.0043
  626TIP3   OH226072   7.413   6.978   1.518  0.1921 -0.0675  0.3200
  626TIP3    H126073   7.448   6.896   1.483 -1.9308 -0.3816 -1.3187
  626TIP3    H226074   7.469   7.046   1.481  2.4753 -0.7295  2.3344
  627TIP3   OH226075   5.464   7.009   0.853  0.7040 -0.1889  0.2626
  627TIP3    H126076   5.469   7.080   0.789  0.0503  0.6893  1.1349
  627TIP3    H226077   5.522   7.037   0.924 -1.2504  0.6112  1.6296
  628TIP3   OH226078   5.570   3.059   7.481 -0.2758 -0.0571  0.1311
  628TIP3    H126079   5.596   3.026   7.394 -0.6388  1.7886 -0.7217
  628TIP3    H226080   5.540   2.981   7.527  1.4158 -1.3606 -0.8128
  629TIP3   OH226081   4.794   7.108   0.506 -0.2801  0.3025 -0.3320
  629TIP3    H126082   4.846   7.036   0.540 -2.7604 -1.5243 -0.0725
  629TIP3    H226083   4.738   7.134   0.579 -1.3861  0.5168 -1.2095
  630TIP3   OH226084   6.627   3.512   0.202  0.1691 -0.1076  0.4976
  630TIP3    H126085   6.561   3.447   0.177  2.4884 -1.4040 -2.9000
  630TIP3    H226086   6.673   3.471   0.276  1.0556 -2.1328 -1.0564
  631TIP3   OH226087   1.138   2.073   1.469 -0.4200 -0.0633  0.3084
  631TIP3    H126088   1.117   2.013   1.397 -1.7996 -0.2741  0.8511
  631TIP3    H226089   1.175   2.017   1.537  0.3450  0.0480 -0.0101
  632TIP3   OH226090   7.272   5.875   8.835  0.1422  0.2502  0.5572
  632TIP3    H126091   7.353   5.853   8.880  0.8466 -1.5648 -1.4569
  632TIP3    H226092   7.297   5.940   8.769  0.5013 -1.8692 -1.5202
  633TIP3   OH226093   6.425   4.401   8.470 -0.0501 -0.3066 -0.1575
  633TIP3    H126094   6.432   4.351   8.388  2.0119 -0.9362  0.3421
  633TIP3    H226095   6.387   4.338   8.532 -0.2093 -0.3196 -0.2690
  634TIP3   OH226096   0.447   7.018   0.561 -0.4760  0.0395 -0.0024
  634TIP3    H126097   0.538   7.048   0.562  0.2475 -1.9642 -0.5405
  634TIP3    H226098   0.429   6.999   0.468 -1.1533 -0.3447  0.2006
  635TIP3   OH226099   1.391   2.534   9.653 -0.5144  0.3556 -0.3743
  635TIP3    H126100   1.354   2.448   9.632 -1.1086  0.5914 -0.2872
  635TIP3    H226101   1.324   2.578   9.705  0.0892  0.5910  0.2276
  636TIP3   OH226102   3.521   6.869   1.049 -0.1767  0.5469 -0.0958
  636TIP3    H126103   3.425   6.868   1.047 -0.3571 -4.0279  0.1787
  636TIP3    H226104   3.543   6.869   1.142 -0.2678 -2.9676  0.0667
  637TIP3   OH226105   1.947   5.453   9.649 -0.1867  0.0197  0.2453
  637TIP3    H126106   1.905   5.526   9.603  1.0347 -0.1199 -1.1495
  637TIP3    H226107   2.037   5.453   9.618  0.5892 -0.3906  2.3289
  638TIP3   OH226108   4.786   5.941   7.512 -0.0249 -0.5789  0.1794
  638TIP3    H126109   4.807   6.011   7.574 -0.5002  0.0410 -0.3416
  638TIP3    H226110   4.832   5.865   7.545  0.6687  0.0326  0.6506
  639TIP3   OH226111   0.752   1.313   1.645  0.9273  0.9442  0.5755
  639TIP3    H126112   0.807   1.382   1.681  0.5292  0.9474  1.1920
  639TIP3    H226113   0.804   1.276   1.574  1.5334  1.2550  0.8452
  640TIP3   OH226114   7.141   0.822   8.614 -0.1701  0.9293  0.0032
  640TIP3    H126115   7.120   0.805   8.706 -1.7284  0.0781 -0.4759
  640TIP3    H226116   7.158   0.736   8.577 -0.5472  1.1584 -0.7222
  641TIP3   OH226117   7.240   1.799   1.291 -0.4961  0.0593 -0.3677
  641TIP3    H126118   7.238   1.751   1.208 -0.2000  0.0378 -0.3610
  641TIP3    H226119   7.249   1.731   1.358 -2.7533 -0.1087 -0.1648
  642TIP3   OH226120   6.518   5.211   7.160  0.4410 -0.5469  0.3066
  642TIP3    H126121   6.552   5.122   7.173  0.3501 -0.8442 -1.3000
  642TIP3    H226122   6.434   5.211   7.206  0.1276 -1.5214 -0.2318
  643TIP3   OH226123   0.862   4.712   7.615 -0.3107 -0.2835  0.7476
  643TIP3    H126124   0.795   4.671   7.669 -2.0804 -0.5349 -1.4609
  643TIP3    H226125   0.904   4.776   7.672 -2.3160 -0.2639  2.2974
  644TIP3   OH226126   5.118   6.100   7.611  0.1756  0.1378 -0.0618
  644TIP3    H126127   5.175   6.163   7.656 -0.9175  0.5374  0.8249
  644TIP3    H226128   5.058   6.070   7.679  1.1628 -2.5219 -0.2525
  645TIP3   OH226129   0.082   5.838   1.590 -0.0637 -0.6539  0.2084
  645TIP3    H126130  -0.000   5.842   1.639  0.4049 -0.3197  0.9859
  645TIP3    H226131   0.065   5.775   1.520 -0.8590 -0.8737  0.5868
  646TIP3   OH226132   1.873   4.642   9.058 -0.2080  0.3036 -0.0895
  646TIP3    H126133   1.880   4.593   9.140 -0.4542  2.4575  1.2915
  646TIP3    H226134   1.955   4.623   9.012  0.3643 -0.1938  1.0902
  647TIP3   OH226135   7.377   4.295   2.670  0.2610  0.1912 -0.4286
  647TIP3    H126136   7.306   4.338   2.718 -0.3355 -0.5013 -0.6747
  647TIP3    H226137   7.413   4.364   2.615 -1.0293  0.2847 -1.2129
  648TIP3   OH226138   0.310   2.584   1.075 -0.0367 -0.2847  0.3798
  648TIP3    H126139   0.288   2.531   0.998 -0.1939  0.4978 -0.1236
  648TIP3    H226140   0.397   2.619   1.055 -0.6665  1.0533 -0.0723
  649TIP3   OH226141   0.567   0.498   0.020 -0.1535 -0.2732 -0.5113
  649TIP3    H126142   0.513   0.513   0.097 -0.9374 -1.9164 -0.6978
  649TIP3    H226143   0.657   0.501   0.053 -0.4812 -1.1717  0.5346
  650TIP3   OH226144   5.169   3.592   3.304  0.3170  0.2545 -0.4016
  650TIP3    H126145   5.264   3.599   3.303  0.3802 -0.4798 -1.1575
  650TIP3    H226146   5.142   3.617   3.215 -0.0825 -0.7278 -0.5705
  651TIP3   OH226147   5.591   4.850   2.665  0.2768  0.1567 -0.2390
  651TIP3    H126148   5.638   4.931   2.645 -0.4220  0.5169 -0.4456
  651TIP3    H226149   5.650   4.780   2.636  0.7754  0.5947 -0.2917
  652TIP3   OH226150   2.104   0.941   8.067 -0.1314 -0.2278  0.3219
  652TIP3    H126151   2.021   0.910   8.031 -0.1382 -1.1502  1.0767
  652TIP3    H226152   2.080   0.986   8.148  0.0998 -0.4651  0.5227
  653TIP3   OH226153   4.780   3.179   8.495 -1.2166  0.4403  0.2817
  653TIP3    H126154   4.742   3.237   8.429 -1.4834 -1.2757 -1.1786
  653TIP3    H226155   4.871   3.168   8.467 -1.4360 -0.6070 -0.0707
  654TIP3   OH226156   2.640   5.698   9.163 -0.2417  0.4212  0.0982
  654TIP3    H126157   2.677   5.740   9.086 -0.2377 -0.4976 -0.4112
  654TIP3    H226158   2.711   5.645   9.199 -0.3672  0.5137  0.4956
  655TIP3   OH226159   2.071   4.875   0.107 -0.2527 -0.3919 -0.2159
  655TIP3    H126160   1.984   4.894   0.142 -1.0338 -2.6515 -0.7409
  655TIP3    H226161   2.079   4.933   0.031 -0.2397  1.5785  1.2222
  656TIP3   OH226162   1.946   3.721   7.945  0.7504  0.3448 -0.3119
  656TIP3    H126163   1.925   3.701   8.036 -1.8827 -2.1767 -1.3021
  656TIP3    H226164   1.885   3.792   7.922  0.9870  0.5610 -0.2716
  657TIP3   OH226165   1.763   2.656   2.469  0.3613 -0.1968  0.1803
  657TIP3    H126166   1.692   2.664   2.406  1.4159 -1.3578 -1.2277
  657TIP3    H226167   1.772   2.744   2.506 -2.3520 -0.2024  1.0961
  658TIP3   OH226168   1.476   7.331   7.394 -0.1916  0.5841  0.2371
  658TIP3    H126169   1.493   7.251   7.344 -0.5553 -0.5184  1.7868
  658TIP3    H226170   1.491   7.305   7.486  0.8284  2.6162  0.6884
  659TIP3   OH226171   5.589   5.883   9.165  0.2512 -0.6680  0.4284
  659TIP3    H126172   5.519   5.903   9.102  0.0391  0.8363  1.0961
  659TIP3    H226173   5.543   5.857   9.245  0.4846 -0.8199  0.5136
  660TIP3   OH226174   2.369   5.965   1.434  0.0888 -0.2443 -0.2701
  660TIP3    H126175   2.315   5.953   1.356 -0.9224  3.6432 -0.3527
  660TIP3    H226176   2.307   5.993   1.501  1.3746 -0.6296  1.1281
  661TIP3   OH226177   4.884   6.550   1.872 -0.3160 -0.5313  0.8051
  661TIP3    H126178   4.890   6.614   1.943 -1.1796 -1.4546  1.7353
  661TIP3    H226179   4.819   6.586   1.812 -0.2617 -0.1929  0.9466
  662TIP3   OH226180   5.960   1.468   9.420  0.1251  0.0083 -0.2068
  662TIP3    H126181   5.958   1.437   9.511  1.2436 -0.0757 -0.2032
  662TIP3    H226182   6.052   1.487   9.403 -0.0578 -0.0933 -1.3712
  663TIP3   OH226183   5.227   1.827   8.718 -0.2027 -0.8505 -0.3061
  663TIP3    H126184   5.163   1.756   8.732  0.2438 -1.0653  0.7663
  663TIP3    H226185   5.312   1.785   8.732  0.0800 -0.1576  0.0968
  664TIP3   OH226186   2.419   3.422   2.094  0.1841  0.5609  0.4683
  664TIP3    H126187   2.341   3.474   2.073 -0.3284 -0.2543  0.3289
  664TIP3    H226188   2.396   3.332   2.071  0.8785  0.1815  1.1748
  665TIP3   OH226189   0.881   3.164   1.955  0.2878  0.1289 -0.8514
  665TIP3    H126190   0.897   3.209   2.038 -0.8477 -1.6743  0.4303
  665TIP3    H226191   0.968   3.149   1.918  0.7992  1.2480 -0.1602
  666TIP3   OH226192   7.037   0.743   1.178  0.4908  0.5871  0.2621
  666TIP3    H126193   7.064   0.833   1.196  0.2229  0.9783 -1.1861
  666TIP3    H226194   7.056   0.730   1.085  0.7880 -0.9571  0.5086
  667TIP3   OH226195   1.556   6.319   1.922 -0.2503  0.0380 -0.4651
  667TIP3    H126196   1.566   6.412   1.945  0.1042  0.1815 -1.1795
  667TIP3    H226197   1.580   6.272   2.002 -0.5268  0.5602 -0.0659
  668TIP3   OH226198   4.560   2.760   9.177  0.1834 -0.4963 -0.1281
  668TIP3    H126199   4.617   2.819   9.128  1.7631 -1.1142  0.8956
  668TIP3    H226200   4.619   2.695   9.215 -1.2808 -1.5249  0.4843
  669TIP3   OH226201   5.811   3.481   9.414 -0.2019 -0.4748  0.0221
  669TIP3    H126202   5.775   3.407   9.365  1.5399 -1.2581 -0.1275
  669TIP3    H226203   5.873   3.522   9.353  0.7977 -0.4889  1.0156
  670TIP3   OH226204   3.177   1.983   9.138  0.2255 -0.1812 -0.0340
  670TIP3    H126205   3.098   1.999   9.189 -0.4493  0.0030 -1.0982
  670TIP3    H226206   3.217   2.069   9.127 -0.0371 -0.1089 -0.4472
  671TIP3   OH226207   3.548   0.379   6.810  0.0980  0.0505  0.3900
  671TIP3    H126208   3.590   0.439   6.747 -0.5036 -0.3952 -0.4547
  671TIP3    H226209   3.466   0.422   6.832 -0.5005 -0.5942 -0.4873
  672TIP3   OH226210   6.612   6.170   8.316 -0.3575 -0.0147  0.4036
  672TIP3    H126211   6.660   6.158   8.398 -0.8155 -1.2093  0.5064
  672TIP3    H226212   6.524   6.197   8.343  0.2557  2.4253  0.2094
  673TIP3   OH226213   1.956   4.172   9.335  0.4974  0.4503  0.1947
  673TIP3    H126214   1.968   4.267   9.330 -2.2996  0.8905  0.4457
  673TIP3    H226215   1.976   4.151   9.426 -0.2724  1.0516  0.5150
  674TIP3   OH226216   6.328   5.845   2.255 -0.1436  0.1663  0.0272
  674TIP3    H126217   6.361   5.894   2.180  2.8372 -3.4007 -1.2871
  674TIP3    H226218   6.400   5.843   2.317 -1.3192  0.0890  1.4422
  675TIP3   OH226219   1.959   3.886   8.358 -0.1539  0.1485 -0.7966
  675TIP3    H126220   2.006   3.953   8.408  2.5650 -1.8175 -0.4804
  675TIP3    H226221   1.876   3.875   8.404  1.3478 -0.0399  2.0943
  676TIP3   OH226222   2.728   3.389   0.189  0.3617 -0.6194 -0.9222
  676TIP3    H126223   2.697   3.477   0.167  1.6975 -0.7146 -3.6237
  676TIP3    H226224   2.804   3.404   0.246  1.0349  0.0487 -1.9687
  677TIP3   OH226225   5.835   0.855   8.643  0.2364 -0.1676 -0.1115
  677TIP3    H126226   5.829   0.869   8.548 -0.9784 -0.3826 -0.0921
  677TIP3    H226227   5.822   0.760   8.653  0.7605 -0.2006  0.2437
  678TIP3   OH226228   3.284   5.667   1.019 -0.0866 -0.5376  0.5648
  678TIP3    H126229   3.376   5.648   1.005 -0.6202 -2.1210 -1.1486
  678TIP3    H226230   3.283   5.756   1.055  2.0739 -0.3899  0.3713
  679TIP3   OH226231   5.716   5.790   7.856  0.4504  0.4191  0.0052
  679TIP3    H126232   5.685   5.729   7.923  0.7396  1.5129  1.1599
  679TIP3    H226233   5.636   5.827   7.818  0.2961  0.1486  0.0604
  680TIP3   OH226234   2.395   3.692   7.423  0.0177 -0.5536  0.0843
  680TIP3    H126235   2.440   3.732   7.348  2.1873 -1.8711  0.5887
  680TIP3    H226236   2.302   3.698   7.401  0.2647  3.0518 -0.6523
  681TIP3   OH226237   5.680   2.660   7.859 -0.1638 -0.1093  0.2774
  681TIP3    H126238   5.611   2.604   7.823 -1.2715  0.6948  1.0653
  681TIP3    H226239   5.718   2.610   7.930 -0.0725 -0.4920 -0.0433
  682TIP3   OH226240   6.247   6.454   1.131 -0.0206 -0.1571  0.5480
  682TIP3    H126241   6.207   6.504   1.203  0.7313  0.9036  0.2557
  682TIP3    H226242   6.212   6.494   1.052  0.9789  0.2515  0.3009
  683TIP3   OH226243   1.121   3.087   7.438  0.1769 -0.5835 -0.0278
  683TIP3    H126244   1.102   3.057   7.349  1.9419  0.9041 -0.9715
  683TIP3    H226245   1.202   3.041   7.462 -0.0584 -0.6513  0.6623
  684TIP3   OH226246   0.373   0.755   9.544  0.2508 -0.2260 -0.7462
  684TIP3    H126247   0.319   0.759   9.623 -2.0922 -3.3022 -1.9773
  684TIP3    H226248   0.388   0.847   9.521  0.4807  0.7976  2.7983
  685TIP3   OH226249   1.736   2.423   2.245 -0.0161  0.1233  0.0485
  685TIP3    H126250   1.684   2.405   2.166  1.5403 -1.7069 -0.6463
  685TIP3    H226251   1.671   2.439   2.313 -1.4220  0.5899 -1.3420
  686TIP3   OH226252   4.365   3.546   7.861 -0.2005  0.2005 -0.0743
  686TIP3    H126253   4.460   3.552   7.850 -0.0740  0.0140  0.8698
  686TIP3    H226254   4.335   3.637   7.864 -0.1044  0.2587 -0.7699
  687TIP3   OH226255   1.373   7.383   6.684 -0.2633 -0.5467  0.2143
  687TIP3    H126256   1.418   7.426   6.757  0.1229  1.1346 -0.9473
  687TIP3    H226257   1.354   7.454   6.622  1.5509 -2.1603 -2.4198
  688TIP3   OH226258   5.270   1.687   0.598 -0.0951  0.4976 -0.2278
  688TIP3    H126259   5.206   1.758   0.590 -0.1671  0.7644  2.0559
  688TIP3    H226260   5.355   1.728   0.579 -0.1722  1.1434  0.7696
  689TIP3   OH226261   4.150   5.796   8.952  0.3942  0.5038  0.1172
  689TIP3    H126262   4.066   5.841   8.968  0.0371 -0.3499  0.6783
  689TIP3    H226263   4.216   5.856   8.987  0.0207  1.1238 -0.2051
  690TIP3   OH226264   7.255   2.876   1.529 -0.2973  0.1384 -0.1005
  690TIP3    H126265   7.226   2.925   1.452 -0.0678  0.5494  0.0701
  690TIP3    H226266   7.186   2.811   1.543 -0.2726 -0.0276 -0.7310
  691TIP3   OH226267   6.388   1.554   1.046  0.3805  0.0368 -0.5763
  691TIP3    H126268   6.329   1.518   0.980  2.0552  0.0011 -2.1071
  691TIP3    H226269   6.431   1.627   1.003 -0.7267  2.0717  1.5081
  692TIP3   OH226270   0.785   5.283   8.356 -0.3626 -0.0808  0.1665
  692TIP3    H126271   0.784   5.377   8.372 -0.0223 -0.1606  0.6897
  692TIP3    H226272   0.803   5.274   8.262  0.3730  0.3656  0.2604
  693TIP3   OH226273   2.150   0.582   8.729  0.3101 -0.2715  0.2137
  693TIP3    H126274   2.175   0.666   8.690 -1.0808  0.4067  0.7120
  693TIP3    H226275   2.136   0.602   8.822 -0.8945 -0.8402  0.1790
  694TIP3   OH226276   3.850   1.027   7.953  0.4096  0.5143 -0.0917
  694TIP3    H126277   3.768   1.035   7.904 -0.8719  1.5386  2.0372
  694TIP3    H226278   3.822   1.003   8.042  2.3489  1.6744  0.8992
  695TIP3   OH226279   7.019   1.136   8.413  0.2026 -0.3089  0.0517
  695TIP3    H126280   6.980   1.050   8.396  0.9075 -0.7724  0.7068
  695TIP3    H226281   7.110   1.126   8.387  0.1451  0.4411 -0.4559
  696TIP3   OH226282   2.795   2.620   0.542 -0.4261  0.1820 -0.0330
  696TIP3    H126283   2.708   2.587   0.567 -0.2370 -0.0453  0.3275
  696TIP3    H226284   2.827   2.557   0.478 -0.3929  0.0953  0.0695
  697TIP3   OH226285   6.153   6.663   2.686 -0.0659  0.0255 -0.3664
  697TIP3    H126286   6.143   6.575   2.722  0.7097  0.2481  0.4276
  697TIP3    H226287   6.246   6.682   2.694 -0.4807  1.6532  1.2906
  698TIP3   OH226288   1.095   0.413   9.186  0.4250 -0.5380 -0.4211
  698TIP3    H126289   1.190   0.413   9.176  0.5412 -2.1140  0.3438
  698TIP3    H226290   1.074   0.500   9.219  1.4858  0.1128 -1.3753
  699TIP3   OH226291   3.060   6.460   9.649  0.2409  0.1956 -0.1163
  699TIP3    H126292   3.031   6.392   9.589  1.5809 -1.0329  0.5748
  699TIP3    H226293   3.155   6.450   9.655  0.4694  2.0091  0.1665
  700TIP3   OH226294   0.677   4.812   0.342  0.4195 -0.0094 -0.3244
  700TIP3    H126295   0.647   4.723   0.327  1.1123 -0.0855 -1.3735
  700TIP3    H226296   0.632   4.840   0.422 -0.9484 -0.7588 -0.8045
  701TIP3   OH226297   3.030   1.214   1.559 -0.0160  0.3217  0.0588
  701TIP3    H126298   3.085   1.210   1.638 -1.4606  0.9441  1.1508
  701TIP3    H226299   3.019   1.308   1.542 -2.4427  0.3133  1.1763
  702TIP3   OH226300   3.125   0.269   1.603  0.5125 -0.1508 -0.4164
  702TIP3    H126301   3.202   0.324   1.616  0.3113  0.8389 -2.8063
  702TIP3    H226302   3.052   0.323   1.633  0.5896 -0.4631  0.3570
  703TIP3   OH226303   5.016   5.514   1.015 -0.1877 -0.3820  0.1115
  703TIP3    H126304   4.999   5.601   0.977  1.1546  0.2072  0.7836
  703TIP3    H226305   4.933   5.489   1.055 -0.4987  0.7511  0.2107
  704TIP3   OH226306   4.312   1.979   7.055  0.4324  0.6237  0.0467
  704TIP3    H126307   4.286   2.007   6.968 -1.5332 -1.1377 -0.0068
  704TIP3    H226308   4.364   1.900   7.041 -0.8450 -0.3255  0.4717
  705TIP3   OH226309   1.145   1.813   9.141 -0.1529  0.2662  0.2429
  705TIP3    H126310   1.102   1.731   9.167  0.4583 -0.1594 -0.0501
  705TIP3    H226311   1.224   1.817   9.195 -0.6469  1.1358  0.9128
  706TIP3   OH226312   0.343   2.080   7.725 -0.5078 -0.1186  0.1796
  706TIP3    H126313   0.253   2.102   7.750 -0.2537  1.8889 -0.4296
  706TIP3    H226314   0.394   2.095   7.805 -0.4049  1.2321 -0.1081
  707TIP3   OH226315   5.700   1.369   2.034 -0.0281  0.3737  0.3586
  707TIP3    H126316   5.692   1.440   1.970  1.7371 -1.3524 -1.9572
  707TIP3    H226317   5.616   1.324   2.031  0.5788 -0.7627 -2.2456
  708TIP3   OH226318   0.949   1.032   7.796 -0.1224 -0.7673  0.0158
  708TIP3    H126319   1.018   0.981   7.838  0.2987 -1.6609 -1.6931
  708TIP3    H226320   0.975   1.038   7.704 -0.0925  2.6778  0.1084
  709TIP3   OH226321   2.873   0.225   0.689  0.3291  0.2976  0.1345
  709TIP3    H126322   2.805   0.232   0.757  1.0977 -0.1203  0.9810
  709TIP3    H226323   2.831   0.176   0.618 -1.1314  2.4487 -0.5873
  710TIP3   OH226324   4.103   4.530   0.715  0.1871 -0.6344  0.0555
  710TIP3    H126325   4.170   4.522   0.647  0.0585  1.7162 -0.4386
  710TIP3    H226326   4.022   4.503   0.673  0.3036 -0.3278 -0.3734
  711TIP3   OH226327   6.425   3.670   6.626 -0.4992  0.3054 -0.3894
  711TIP3    H126328   6.331   3.681   6.612 -0.2109  0.8569 -2.1496
  711TIP3    H226329   6.458   3.632   6.544  0.8759  0.6219 -0.0218
  712TIP3   OH226330   1.142   5.036   8.890 -0.0987 -0.3945 -0.3151
  712TIP3    H126331   1.155   5.096   8.964 -2.0726 -0.7627  0.4009
  712TIP3    H226332   1.075   4.975   8.921  0.6116 -1.9333 -1.6437
  713TIP3   OH226333   3.544   6.729   7.804  0.2098  0.2287  0.2031
  713TIP3    H126334   3.481   6.666   7.838 -0.1664  1.2845  1.5229
  713TIP3    H226335   3.625   6.678   7.794 -0.4762 -0.8067 -0.1895
  714TIP3   OH226336   6.827   4.602   1.069  0.0524 -0.1424 -0.1061
  714TIP3    H126337   6.782   4.680   1.102  0.4956  0.2630 -0.4387
  714TIP3    H226338   6.773   4.529   1.097 -0.4144  0.2939  0.1404
  715TIP3   OH226339   6.375   2.322   9.324 -0.2044 -0.3814 -0.8751
  715TIP3    H126340   6.339   2.242   9.287 -1.2565  0.2804 -1.3252
  715TIP3    H226341   6.390   2.301   9.416 -0.6589 -1.0242 -0.9420
  716TIP3   OH226342   5.518   6.465   0.122  0.5305  0.2878 -0.4881
  716TIP3    H126343   5.585   6.529   0.143  0.1037  0.3477  0.7452
  716TIP3    H226344   5.456   6.470   0.194 -0.0033 -0.8483 -0.8390
  717TIP3   OH226345   2.113   1.693   0.665 -0.0813 -0.2099 -0.0530
  717TIP3    H126346   2.167   1.621   0.700  0.7995  1.0203  1.2387
  717TIP3    H226347   2.023   1.663   0.677  0.2563 -1.7170 -0.9519
  718TIP3   OH226348   6.521   6.172   7.275  0.0657 -0.0244 -0.3396
  718TIP3    H126349   6.579   6.110   7.318 -1.5075 -1.7967 -0.6186
  718TIP3    H226350   6.557   6.182   7.187 -0.1317 -1.2770 -0.5811
  719TIP3   OH226351   3.208   2.035   1.158 -0.0162  0.4176 -0.3161
  719TIP3    H126352   3.260   1.991   1.090 -0.7170  0.5545 -0.9580
  719TIP3    H226353   3.121   1.994   1.152  0.2492 -0.4805  1.3830
  720TIP3   OH226354   0.417   5.786   7.355 -0.0093 -0.2022  0.2379
  720TIP3    H126355   0.406   5.872   7.315  0.0100 -1.1736 -2.0263
  720TIP3    H226356   0.367   5.727   7.299  1.7917 -1.9939  0.4083
  721TIP3   OH226357   2.825   1.006   7.978  0.1612  0.0727 -0.0171
  721TIP3    H126358   2.890   1.071   7.952 -0.0954  0.4368  0.2339
  721TIP3    H226359   2.776   0.988   7.898 -1.1489  1.7855  0.3262
  722TIP3   OH226360   7.313   0.002   0.261 -0.2261  0.0382  0.4664
  722TIP3    H126361   7.250  -0.059   0.300 -0.3671  1.1095  2.0034
  722TIP3    H226362   7.276   0.089   0.277 -0.3624  0.5636 -2.2692
  723TIP3   OH226363   2.380   2.181   8.816  0.2634 -0.2041 -0.1201
  723TIP3    H126364   2.306   2.141   8.770  0.3309 -1.1846  0.5848
  723TIP3    H226365   2.457   2.135   8.781  0.5262  0.5677 -0.5956
  724TIP3   OH226366   2.085   3.213   7.206  0.1735 -0.1873  0.0845
  724TIP3    H126367   2.148   3.276   7.240  0.3615 -0.5477  0.4103
  724TIP3    H226368   2.015   3.267   7.168  0.1301  0.2179  0.7272
  725TIP3   OH226369   1.978   0.081   0.874  0.6274  0.4081 -0.3403
  725TIP3    H126370   2.017   0.153   0.925 -1.2566  0.2596  1.4552
  725TIP3    H226371   1.900   0.057   0.923 -0.3102 -1.0275 -2.4021
  726TIP3   OH226372   4.706   5.526   7.426  0.4769 -0.2767  0.2943
  726TIP3    H126373   4.642   5.595   7.411  0.4375 -0.0945  1.2721
  726TIP3    H226374   4.656   5.444   7.414  0.3018 -0.1415  0.0824
  727TIP3   OH226375   3.743   4.777   7.365  0.1455 -0.3746 -0.4213
  727TIP3    H126376   3.732   4.691   7.408 -0.4114 -0.8968 -1.5611
  727TIP3    H226377   3.788   4.757   7.283 -1.4315  0.1729 -1.4805
  728TIP3   OH226378   6.123   1.368   7.067 -0.0121 -0.6029  0.0959
  728TIP3    H126379   6.057   1.299   7.073  0.3248 -0.8010  2.2401
  728TIP3    H226380   6.205   1.322   7.047  0.0155 -0.7081  0.4467
  729TIP3   OH226381   1.724   2.445   7.618 -0.1217 -0.8105 -0.1087
  729TIP3    H126382   1.819   2.441   7.634 -0.2670  0.6314  1.4026
  729TIP3    H226383   1.688   2.478   7.700 -1.7146  0.7490 -1.3663
  730TIP3   OH226384   5.929   0.296   7.746  0.0204  0.0278  0.1839
  730TIP3    H126385   5.980   0.218   7.723 -1.4039 -1.2372  1.0446
  730TIP3    H226386   5.879   0.317   7.667 -0.2101 -0.4668  0.1926
  731TIP3   OH226387   5.557   6.003   1.075 -0.2622 -0.1669  0.6260
  731TIP3    H126388   5.488   6.068   1.062 -0.6455 -0.7621 -0.5355
  731TIP3    H226389   5.629   6.034   1.020 -0.5758 -0.8704 -0.2201
  732TIP3   OH226390   2.200   1.830   1.835 -0.0714 -0.2901  0.0240
  732TIP3    H126391   2.162   1.846   1.749  1.9566  0.6167 -0.7744
  732TIP3    H226392   2.216   1.736   1.838 -1.9594 -0.6243  0.2331
  733TIP3   OH226393   2.312   2.251   7.143  0.7779 -0.0314  0.1239
  733TIP3    H126394   2.310   2.335   7.097 -1.1808 -0.5728 -0.8704
  733TIP3    H226395   2.406   2.231   7.152  1.2496  1.5492 -0.8918
  734TIP3   OH226396   3.048   5.781   7.938  0.1119  0.4968 -0.4165
  734TIP3    H126397   3.033   5.694   7.976 -0.2520  0.9575  0.5080
  734TIP3    H226398   3.127   5.769   7.884  0.3400 -0.2989  0.0654
  735TIP3   OH226399   6.807   0.194   1.943  0.2509 -0.0648 -0.0145
  735TIP3    H126400   6.847   0.140   1.875  1.8974 -0.9769  1.5636
  735TIP3    H226401   6.873   0.260   1.963  1.0267 -1.4086  2.4303
  736TIP3   OH226402   0.616   7.260   8.325 -0.3381 -0.3801  0.1469
  736TIP3    H126403   0.621   7.190   8.259  3.6166 -0.6246  0.4419
  736TIP3    H226404   0.591   7.215   8.406 -1.1227 -0.8165 -0.3231
  737TIP3   OH226405   5.679   3.858   7.156  0.2151 -0.7252  0.7309
  737TIP3    H126406   5.615   3.803   7.111  0.1742 -0.4705  0.4753
  737TIP3    H226407   5.764   3.831   7.122  0.1502 -0.2005  0.1326
  738TIP3   OH226408   0.473   6.393   2.937 -0.5155  0.1825 -0.6215
  738TIP3    H126409   0.473   6.397   2.842 -0.5674 -0.2786 -0.6432
  738TIP3    H226410   0.467   6.300   2.958 -1.5403  0.3310 -0.1713
  739TIP3   OH226411   6.260   1.155   7.809 -0.1239 -0.1100  0.5105
  739TIP3    H126412   6.169   1.167   7.782 -0.6862 -0.3998  2.2018
  739TIP3    H226413   6.265   1.064   7.836  1.2402 -0.7184 -1.5130
  740TIP3   OH226414   4.687   4.191   0.106 -1.1326 -0.1494 -0.2328
  740TIP3    H126415   4.700   4.286   0.110  0.0384 -0.2921 -0.3484
  740TIP3    H226416   4.593   4.181   0.091 -0.9087  1.0958 -3.1796
  741TIP3   OH226417   6.787   0.903   7.043 -0.0569 -0.4612  0.6129
  741TIP3    H126418   6.778   0.885   6.949  0.3413  0.1157  0.4575
  741TIP3    H226419   6.863   0.853   7.070  1.6035  1.5865 -0.0128
  742TIP3   OH226420   3.488   0.958   8.292  0.2896 -0.2566 -0.1832
  742TIP3    H126421   3.421   0.902   8.331  0.9539 -1.6980 -1.0363
  742TIP3    H226422   3.484   1.039   8.342 -0.8851 -0.9673  0.9184
  743TIP3   OH226423   2.524   6.150   9.535  0.3542  0.1302  0.8793
  743TIP3    H126424   2.616   6.173   9.547  1.1233 -0.0305 -3.3096
  743TIP3    H226425   2.525   6.057   9.514 -1.0330 -0.2555  2.2870
  744TIP3   OH226426   2.518   3.447   1.123 -0.6028 -0.2663 -0.2673
  744TIP3    H126427   2.450   3.424   1.186 -0.6752  2.0244  0.5611
  744TIP3    H226428   2.477   3.429   1.037 -0.7630 -2.6788  0.2257
  745TIP3   OH226429   0.696   7.017   7.198  0.0528  0.4513 -0.6491
  745TIP3    H126430   0.700   7.074   7.122 -1.6801  2.8621  0.9067
  745TIP3    H226431   0.731   7.070   7.270 -0.3248 -0.9417  0.6384
  746TIP3   OH226432   5.628   5.695   7.507 -0.6114  0.1601  0.2108
  746TIP3    H126433   5.602   5.787   7.509  2.0862  1.0801 -1.4967
  746TIP3    H226434   5.606   5.666   7.418  2.7153  0.6841 -0.9477
  747TIP3   OH226435   2.502   4.173   9.079  0.2929  0.0409  0.7158
  747TIP3    H126436   2.429   4.221   9.119 -0.9466 -1.7140  0.6799
  747TIP3    H226437   2.526   4.226   9.002 -0.1538  1.2386  1.3688
  748TIP3   OH226438   7.089   0.213   1.526  0.1079  0.1358 -0.0326
  748TIP3    H126439   7.020   0.151   1.502  1.5033 -0.3825 -3.1284
  748TIP3    H226440   7.049   0.299   1.516  0.1877 -0.0990 -3.2611
  749TIP3   OH226441   1.911   0.135   0.616 -0.0602  0.7029  0.0458
  749TIP3    H126442   1.933   0.103   0.703 -0.2275  0.0649 -0.1382
  749TIP3    H226443   1.820   0.162   0.622 -0.3175 -0.1108 -0.1395
  750TIP3   OH226444   1.412   5.389   9.569  0.1991 -0.2451  0.1396
  750TIP3    H126445   1.465   5.414   9.644  0.5021  2.5592 -0.8911
  750TIP3    H226446   1.325   5.425   9.587  0.1059 -0.1003 -0.5546
  751TIP3   OH226447   6.115   2.372   1.232  0.2358  0.1414  0.1131
  751TIP3    H126448   6.091   2.464   1.237 -0.3136 -0.0079  0.3306
  751TIP3    H226449   6.034   2.328   1.205  0.6308 -0.2154 -0.5060
  752TIP3   OH226450   4.382   4.170   1.369  0.5901  0.4333  0.9414
  752TIP3    H126451   4.316   4.185   1.436  0.4495 -0.0053  0.9067
  752TIP3    H226452   4.465   4.189   1.412  0.3701  2.3779  0.5785
  753TIP3   OH226453   6.840   3.579   9.655  0.7290  0.1051  0.3209
  753TIP3    H126454   6.845   3.503   9.597  2.1633 -0.3267  0.9561
  753TIP3    H226455   6.769   3.557   9.716  2.2596 -1.6181  1.6175
  754TIP3   OH226456   6.300   2.818   0.898 -0.2889  0.1335  0.1839
  754TIP3    H126457   6.212   2.791   0.875  0.3418 -0.8118 -1.2378
  754TIP3    H226458   6.355   2.742   0.877  1.4800  2.1230 -3.3020
  755TIP3   OH226459   2.554   6.281   1.006 -0.1716 -0.3451  0.7812
  755TIP3    H126460   2.568   6.370   1.040  1.5161 -0.1076 -0.3709
  755TIP3    H226461   2.501   6.294   0.927  2.4944  0.0712 -1.0781
  756TIP3   OH226462   1.000   1.837   1.747  0.5044  0.0536 -0.1030
  756TIP3    H126463   1.083   1.867   1.713 -0.7839  2.4761 -1.3750
  756TIP3    H226464   0.949   1.812   1.670 -0.3190 -0.3803  0.5563
  757TIP3   OH226465   0.747   0.992   2.790 -0.1573 -0.0463  0.0959
  757TIP3    H126466   0.838   0.963   2.796  0.4782  1.8797  0.4766
  757TIP3    H226467   0.704   0.926   2.736  0.8750 -2.3102  1.8627
  758TIP3   OH226468   3.469   2.513   0.686  0.0683 -0.3701 -0.1441
  758TIP3    H126469   3.395   2.560   0.726 -0.5300 -1.2431 -0.2116
  758TIP3    H226470   3.538   2.579   0.681 -0.6343  0.4091  0.1082
  759TIP3   OH226471   3.048   2.433   9.197  0.3858 -0.1157 -0.3406
  759TIP3    H126472   3.100   2.477   9.130 -2.1753  1.7572 -1.2484
  759TIP3    H226473   3.064   2.484   9.276  1.5950 -0.9042 -0.0540
  760TIP3   OH226474   4.077   0.788   7.970 -0.0750  0.0739 -0.6775
  760TIP3    H126475   4.011   0.744   7.918 -1.9570  1.2667  0.5590
  760TIP3    H226476   4.048   0.879   7.974  1.3837  0.5460  0.3268
  761TIP3   OH226477   4.050   4.192   0.653 -0.3521  0.0844  0.4237
  761TIP3    H126478   4.113   4.255   0.617 -1.2738  0.8629  0.1344
  761TIP3    H226479   4.047   4.211   0.746 -1.9749  1.7635  0.0971
  762TIP3   OH226480   1.827   1.093   7.829  0.7319 -0.1062 -0.2780
  762TIP3    H126481   1.748   1.144   7.841  1.2071  0.2039  1.9925
  762TIP3    H226482   1.881   1.144   7.769 -0.1187  0.4488 -0.5759
  763TIP3   OH226483   6.349   0.804   7.258 -0.4611 -0.5734 -0.2974
  763TIP3    H126484   6.389   0.820   7.344 -0.0577  0.6744 -0.7113
  763TIP3    H226485   6.409   0.844   7.195 -2.4070  1.5252 -0.9234
  764TIP3   OH226486   4.003   6.077   8.996 -0.1716  0.1266 -0.3247
  764TIP3    H126487   3.957   6.130   9.060  1.3057  1.5897 -0.3998
  764TIP3    H226488   4.069   6.136   8.958  0.0290 -1.1204 -2.0736
  765TIP3   OH226489   1.595   5.648   2.044  0.3269  0.0479 -0.0859
  765TIP3    H126490   1.517   5.685   2.002 -0.4187 -0.6238  0.6955
  765TIP3    H226491   1.586   5.671   2.136 -0.9712 -3.3088  0.7694
  766TIP3   OH226492   1.785   5.732   8.556  0.1993  0.3543 -0.0667
  766TIP3    H126493   1.698   5.722   8.520 -0.9317  0.1965  2.4888
  766TIP3    H226494   1.808   5.645   8.589  1.2206  0.4569 -0.4653
  767TIP3   OH226495   1.522   0.432   2.725 -0.1459  0.6760 -0.8350
  767TIP3    H126496   1.607   0.467   2.696 -0.3461  2.3511  0.4370
  767TIP3    H226497   1.542   0.384   2.805 -0.1650 -0.5173 -1.5225
  768TIP3   OH226498   7.293   0.985   1.739  0.0025 -0.0606  0.7626
  768TIP3    H126499   7.342   1.001   1.819 -0.0155 -2.5035  1.3217
  768TIP3    H226500   7.299   0.891   1.724  0.4880  0.3397 -2.4434
  769TIP3   OH226501   4.881   2.160   0.013  0.4519  0.2510 -0.1412
  769TIP3    H126502   4.925   2.161  -0.072  0.6667 -2.1181 -0.1304
  769TIP3    H226503   4.921   2.086   0.059 -0.5713  0.6919  1.5328
  770TIP3   OH226504   5.581   2.796   8.962  0.2002 -0.3086  0.5958
  770TIP3    H126505   5.634   2.857   9.013  1.0936  0.5555 -1.2812
  770TIP3    H226506   5.492   2.831   8.967  0.3352 -0.0475  1.2568
  771TIP3   OH226507   4.062   1.776   8.862  0.5986  0.0730  0.1133
  771TIP3    H126508   4.081   1.791   8.770  2.5292  1.4985  0.6693
  771TIP3    H226509   3.979   1.727   8.863  1.1445 -1.0176 -2.3755
  772TIP3   OH226510   5.878   3.518   8.214 -0.0128  0.7140  0.5582
  772TIP3    H126511   5.944   3.450   8.227  0.1606  1.0671  1.6137
  772TIP3    H226512   5.837   3.495   8.131  1.4478  0.4985 -0.1425
  773TIP3   OH226513   1.586   4.497   7.304  0.2384 -0.2548  0.4390
  773TIP3    H126514   1.572   4.592   7.311  0.4955 -0.1278 -0.6412
  773TIP3    H226515   1.649   4.487   7.233 -1.5563 -1.3688 -1.0738
  774TIP3   OH226516   4.882   6.250   1.890  0.0615 -0.9384  0.0904
  774TIP3    H126517   4.880   6.342   1.864 -1.2284 -0.9062  0.2292
  774TIP3    H226518   4.800   6.213   1.855  0.5012 -2.0079  0.1355
  775TIP3   OH226519   2.843   6.580   8.503 -0.1394 -0.0240 -0.1247
  775TIP3    H126520   2.841   6.499   8.555 -0.4295 -0.1187 -0.2813
  775TIP3    H226521   2.834   6.550   8.412  0.3716  0.1402 -0.2291
  776TIP3   OH226522   2.401   4.241   8.217  0.5283  0.1066  0.0112
  776TIP3    H126523   2.423   4.291   8.138 -0.7466  2.4048  1.0151
  776TIP3    H226524   2.472   4.261   8.279 -0.5060  1.5950  0.7659
  777TIP3   OH226525   1.807   4.263   6.794  0.0513  0.3189  0.8113
  777TIP3    H126526   1.814   4.176   6.753  1.6426 -0.5817  2.8319
  777TIP3    H226527   1.723   4.297   6.762 -0.0429 -1.4024 -1.0191
  778TIP3   OH226528   7.012   5.012   2.596  0.6350  0.0155  0.4871
  778TIP3    H126529   7.100   4.977   2.581 -0.6642 -2.4635 -2.1516
  778TIP3    H226530   6.968   4.944   2.646 -0.0224  0.9514  1.2123
  779TIP3   OH226531   3.097   5.833   1.584 -0.2856  0.1091  0.3003
  779TIP3    H126532   3.142   5.779   1.520 -1.0265 -1.2786  0.9036
  779TIP3    H226533   3.022   5.869   1.537 -0.9781 -1.1197  0.4086
  780TIP3   OH226534   2.800   6.184   7.569 -0.1767  0.6892  0.0567
  780TIP3    H126535   2.834   6.097   7.550 -3.2260 -1.3389  2.7729
  780TIP3    H226536   2.769   6.217   7.485 -1.4613 -2.1330 -0.6711
  781TIP3   OH226537   6.521   2.731   1.249  0.3046 -0.2792 -0.1148
  781TIP3    H126538   6.444   2.786   1.243  0.1020 -0.4968  0.4919
  781TIP3    H226539   6.522   2.683   1.166 -0.7264 -0.9461  0.2371
  782TIP3   OH226540   2.413   0.108   7.459 -0.5161 -0.2834  0.0736
  782TIP3    H126541   2.446   0.198   7.460 -1.7220  0.1803 -0.4454
  782TIP3    H226542   2.372   0.097   7.545  0.4245 -0.6611  0.4899
  783TIP3   OH226543   0.359   5.632   1.638  0.0698 -0.3185 -0.3739
  783TIP3    H126544   0.342   5.670   1.551 -0.1143 -0.6472 -0.4826
  783TIP3    H226545   0.348   5.538   1.625  0.6248 -0.4165 -0.1240
  784TIP3   OH226546   6.313   4.067   6.784 -0.4178 -0.3410 -0.1770
  784TIP3    H126547   6.323   4.144   6.729 -0.3395 -1.2916 -1.5632
  784TIP3    H226548   6.234   4.083   6.835 -0.6595  0.4535 -0.7882
  785TIP3   OH226549   2.848   2.391   8.963 -0.1624 -0.2178  0.0632
  785TIP3    H126550   2.915   2.456   8.940  1.5446 -2.1261 -0.5788
  785TIP3    H226551   2.808   2.367   8.879 -0.0085 -0.8214  0.1639
  786TIP3   OH226552   5.499   7.243   7.157  0.2305 -0.4158  0.3421
  786TIP3    H126553   5.409   7.274   7.150  0.9356  1.4983 -1.7256
  786TIP3    H226554   5.492   7.148   7.152 -1.6540 -0.3015 -0.0514
  787TIP3   OH226555   6.210   5.514   7.252  0.4605  0.1635 -0.6722
  787TIP3    H126556   6.239   5.594   7.208 -1.3452  2.9691  2.6665
  787TIP3    H226557   6.121   5.499   7.219 -1.1163  2.5920  1.9353
  788TIP3   OH226558   0.089   2.874   9.369  0.1091 -0.0980 -0.4402
  788TIP3    H126559   0.109   2.828   9.287  1.1049  0.6135 -0.6180
  788TIP3    H226560   0.026   2.942   9.343 -0.3505 -0.5079 -0.4187
  789TIP3   OH226561   7.209   6.483   9.197  0.7276 -0.6900 -0.1724
  789TIP3    H126562   7.166   6.565   9.171 -0.2220 -0.7041  1.2308
  789TIP3    H226563   7.293   6.484   9.150  0.2446  0.5180 -1.0817
  790TIP3   OH226564   4.052   6.882   2.261 -0.3807 -0.4140  0.0275
  790TIP3    H126565   3.997   6.881   2.339 -1.0898 -0.3618 -0.4559
  790TIP3    H226566   3.990   6.875   2.188  0.1997  0.3612 -0.5597
  791TIP3   OH226567   6.415   3.354   1.213  0.2163  0.1421  0.2997
  791TIP3    H126568   6.365   3.304   1.147  0.2517 -0.6513  0.8539
  791TIP3    H226569   6.405   3.303   1.293 -2.5145  2.6749  1.7765
  792TIP3   OH226570   3.264   0.911   0.050 -0.3011 -0.0874 -0.0618
  792TIP3    H126571   3.357   0.930   0.065  0.3382 -2.0456 -1.1572
  792TIP3    H226572   3.219   0.953   0.123  1.2995  1.9325 -0.1301
  793TIP3   OH226573   3.157   3.626   0.977 -0.2544 -0.4642  0.2217
  793TIP3    H126574   3.170   3.619   0.882  0.2441 -0.4148  0.2850
  793TIP3    H226575   3.219   3.563   1.014  0.8108  0.7732  0.5926
  794TIP3   OH226576   5.630   2.156   7.711  0.3998  0.1915  0.1551
  794TIP3    H126577   5.613   2.100   7.635  1.3764  0.8610 -0.5751
  794TIP3    H226578   5.607   2.244   7.681  2.0364  0.6576  0.1683
  795TIP3   OH226579   1.370   4.227   8.666  0.5020 -0.0742 -0.6113
  795TIP3    H126580   1.324   4.230   8.583  0.2480 -0.5628 -0.4921
  795TIP3    H226581   1.349   4.141   8.702  0.5426  0.1626 -0.0072
  796TIP3   OH226582   1.898   6.262   8.358  0.5659  0.5095  0.1450
  796TIP3    H126583   1.928   6.187   8.408  0.2175 -0.0034 -0.3950
  796TIP3    H226584   1.850   6.316   8.421 -0.6289 -0.5629  0.1874
  797TIP3   OH226585   7.279   5.281   8.403  0.3399  0.2905 -0.1731
  797TIP3    H126586   7.244   5.192   8.407 -0.9446  0.7398 -0.7333
  797TIP3    H226587   7.250   5.314   8.318  0.2466  1.4528  0.2926
  798TIP3   OH226588   4.456   0.080   2.159 -0.1087 -0.1312 -0.2767
  798TIP3    H126589   4.430   0.112   2.073  0.4008 -1.0100 -0.7723
  798TIP3    H226590   4.481   0.158   2.208  0.9056  0.2591 -1.3846
  799TIP3   OH226591   7.408   0.221   6.573  0.3500  0.1123  0.6552
  799TIP3    H126592   7.339   0.246   6.634 -0.0640 -1.7987  1.0437
  799TIP3    H226593   7.360   0.190   6.495  0.6666 -2.1113  1.2777
  800TIP3   OH226594   3.670   7.270   9.247  0.0787 -0.7315 -0.2159
  800TIP3    H126595   3.677   7.357   9.289 -0.2638 -0.8864  0.1713
  800TIP3    H226596   3.631   7.288   9.162  0.8705 -0.3994 -0.5207
  801TIP3   OH226597   2.789   1.073   9.480 -0.2676 -0.1895 -0.2325
  801TIP3    H126598   2.717   1.094   9.421 -0.5771 -0.0696  0.1824
  801TIP3    H226599   2.818   0.986   9.452  0.2709  0.2854 -1.2194
  802TIP3   OH226600   7.395   7.144   0.943  0.4012  0.1385  0.2643
  802TIP3    H126601   7.456   7.081   0.905  0.1468  0.7361 -1.2229
  802TIP3    H226602   7.450   7.204   0.994  0.6939 -0.9709  1.2914
  803TIP3   OH226603   5.041   2.116   9.464  0.5605  0.0879  0.9009
  803TIP3    H126604   5.099   2.189   9.486  0.4311  1.1369 -1.8196
  803TIP3    H226605   5.099   2.050   9.426  0.2033  0.5437 -0.4900
  804TIP3   OH226606   6.575   3.630   6.849 -0.4373 -0.3001 -0.4729
  804TIP3    H126607   6.534   3.665   6.771  0.0044  0.0371 -0.5574
  804TIP3    H226608   6.632   3.560   6.817 -0.1181 -0.0399 -0.4699
  805TIP3   OH226609   0.964   3.659   8.452 -0.2484 -0.0299 -0.0024
  805TIP3    H126610   0.955   3.755   8.449  2.0128  0.3157  1.7386
  805TIP3    H226611   0.980   3.634   8.361  1.8240  1.6351 -0.1861
  806TIP3   OH226612   3.730   5.269   9.640 -0.0265 -1.1185 -0.1036
  806TIP3    H126613   3.759   5.290   9.551 -0.2923 -0.9839 -0.1607
  806TIP3    H226614   3.805   5.226   9.680  0.3802 -0.4329 -0.1200
  807TIP3   OH226615   0.249   1.329   7.844 -0.3607  0.2003 -0.3748
  807TIP3    H126616   0.250   1.301   7.752  0.1810  1.4705 -0.7722
  807TIP3    H226617   0.158   1.316   7.872 -1.1769  2.1679 -1.8656
  808TIP3   OH226618   3.511   1.305   7.522 -0.7567  0.7541 -0.1367
  808TIP3    H126619   3.542   1.311   7.431 -0.2157  0.8766  0.0569
  808TIP3    H226620   3.478   1.216   7.530  2.5675 -0.5498  0.5974
  809TIP3   OH226621   6.757   4.167   7.538 -0.4884  0.3636  0.3717
  809TIP3    H126622   6.703   4.096   7.573 -0.7411  0.8446  0.9638
  809TIP3    H226623   6.756   4.234   7.605  1.3752  0.1442  0.6870
  810TIP3   OH226624   6.975   3.221   8.579  0.0873  0.4563 -0.2043
  810TIP3    H126625   6.963   3.144   8.523 -0.4155  0.8294 -0.6103
  810TIP3    H226626   6.893   3.269   8.572 -0.2511  0.1854  1.3580
  811TIP3   OH226627   4.447   6.498   9.449  0.1570 -0.0149 -0.5135
  811TIP3    H126628   4.477   6.433   9.512  0.6300  1.2942  0.6763
  811TIP3    H226629   4.488   6.580   9.478 -1.5724  1.1079 -1.0783
  812TIP3   OH226630   5.579   3.671   8.495 -0.2619 -0.1736  0.4866
  812TIP3    H126631   5.604   3.587   8.532  1.9669  0.2173 -0.0110
  812TIP3    H226632   5.549   3.651   8.407  3.1383 -0.2725 -0.8013
  813TIP3   OH226633   1.486   5.749   1.077 -0.2952 -0.5964 -0.1210
  813TIP3    H126634   1.518   5.658   1.075 -0.8537 -0.8055  0.4601
  813TIP3    H226635   1.503   5.779   1.166  2.2550  0.7452 -0.9443
  814TIP3   OH226636   2.251   7.337   0.812  0.3562  0.6441 -0.0231
  814TIP3    H126637   2.212   7.415   0.852 -0.1763  0.4898 -0.2292
  814TIP3    H226638   2.324   7.315   0.869  0.3141  1.1091  0.2151
  815TIP3   OH226639   6.512   2.914   8.162 -0.3294  0.9119 -0.4877
  815TIP3    H126640   6.467   2.995   8.140  0.6690  1.9345  1.1171
  815TIP3    H226641   6.527   2.872   8.077  0.0680  2.8879 -1.4405
  816TIP3   OH226642   2.814   1.949   0.052 -0.3428 -0.1607  0.2618
  816TIP3    H126643   2.883   1.970   0.115 -0.8205  1.5105  0.2866
  816TIP3    H226644   2.861   1.925  -0.028  0.2564 -1.1314  0.8821
  817TIP3   OH226645   7.115   2.831   9.663 -0.0113  0.1115  0.6348
  817TIP3    H126646   7.204   2.812   9.693 -0.1034  1.8526  2.2720
  817TIP3    H226647   7.068   2.748   9.672  0.9056 -0.3019  1.9878
  818TIP3   OH226648   0.322   3.049   9.103  0.3167 -0.2397 -0.1092
  818TIP3    H126649   0.333   3.144   9.093 -0.2107 -0.0952  0.5591
  818TIP3    H226650   0.228   3.037   9.112  0.5153 -0.5126  2.4630
  819TIP3   OH226651   5.284   4.723   7.730  0.4223  0.1602  0.1398
  819TIP3    H126652   5.279   4.648   7.790  0.3405 -0.1487 -0.2489
  819TIP3    H226653   5.333   4.789   7.779  1.0465 -0.3777  0.2593
  820TIP3   OH226654   1.570   4.484   7.014 -0.6078  0.0163 -0.2282
  820TIP3    H126655   1.481   4.477   7.048 -0.6020 -0.5123 -0.3176
  820TIP3    H226656   1.559   4.517   6.925 -0.5791  2.2320  0.5259
  821TIP3   OH226657   3.231   6.000   0.240 -0.6364 -0.5306 -0.4713
  821TIP3    H126658   3.234   5.957   0.154 -1.8763 -0.4100 -0.5945
  821TIP3    H226659   3.245   6.093   0.221  3.6088 -0.8756 -0.0606
  822TIP3   OH226660   0.695   0.385   1.456 -0.1787 -0.1297  0.0338
  822TIP3    H126661   0.754   0.403   1.529  0.1910  0.2016 -0.3433
  822TIP3    H226662   0.636   0.461   1.454  1.0293  0.8198 -1.2086
  823TIP3   OH226663   4.458   6.001   1.254 -0.4600  0.3902  0.0136
  823TIP3    H126664   4.376   6.050   1.244 -1.2577 -0.8260  0.3545
  823TIP3    H226665   4.432   5.919   1.296  0.8295 -0.3407 -0.5438
  824TIP3   OH226666   3.140   6.340   8.002 -0.1990 -0.3162  0.0787
  824TIP3    H126667   3.176   6.266   8.051  0.6932 -0.4725 -0.7720
  824TIP3    H226668   3.047   6.339   8.022  0.0610 -0.6632  1.3686
  825TIP3   OH226669   0.712   6.394   7.465  0.1363 -0.0999 -0.0445
  825TIP3    H126670   0.669   6.377   7.382  0.1766  2.7613 -0.7295
  825TIP3    H226671   0.658   6.348   7.530 -2.1035  0.7265 -1.2289
  826TIP3   OH226672   2.269   3.679   8.786  0.2614  0.2835  0.0567
  826TIP3    H126673   2.229   3.605   8.740  0.5486  0.6355 -0.7583
  826TIP3    H226674   2.228   3.756   8.747 -0.0813  0.5651  0.9459
  827TIP3   OH226675   3.670   3.590   1.887  0.1306 -0.1683  0.1227
  827TIP3    H126676   3.670   3.524   1.956  2.7647  0.5186  0.9028
  827TIP3    H226677   3.643   3.671   1.931 -1.6145 -0.3758 -0.4924
  828TIP3   OH226678   1.995   2.655   0.560 -0.0568  0.1326  0.4218
  828TIP3    H126679   2.083   2.627   0.586  0.4383 -0.5932 -1.8327
  828TIP3    H226680   1.968   2.715   0.630  1.9620 -0.0808  1.4837
  829TIP3   OH226681   4.832   7.343   8.062 -0.4465  0.2524  0.5318
  829TIP3    H126682   4.825   7.365   7.969 -2.1844 -0.1351  0.5296
  829TIP3    H226683   4.809   7.424   8.108  1.9711  0.9118  0.6938
  830TIP3   OH226684   6.685   5.652   2.515 -0.0456  0.2287 -0.3241
  830TIP3    H126685   6.670   5.619   2.603  0.8665 -0.8543 -0.5507
  830TIP3    H226686   6.617   5.718   2.502  0.1572  0.8283  1.3975
  831TIP3   OH226687   2.576   6.021   0.321 -0.3563  0.4258  0.1416
  831TIP3    H126688   2.517   6.051   0.252  0.1415  0.7478 -0.1493
  831TIP3    H226689   2.659   6.066   0.303  0.6374 -1.6503 -0.7258
  832TIP3   OH226690   6.320   1.036   9.465 -0.2816 -0.2967  0.3388
  832TIP3    H126691   6.368   1.118   9.479 -0.4488 -0.1432  0.0238
  832TIP3    H226692   6.337   1.014   9.373 -0.9851 -0.1313  0.1640
  833TIP3   OH226693   3.774   3.917   8.446  0.3011 -0.5184 -0.1209
  833TIP3    H126694   3.768   3.984   8.514  1.8056  0.9173 -1.2975
  833TIP3    H226695   3.769   3.966   8.364  2.3505 -1.6962 -1.0402
  834TIP3   OH226696   5.918   5.917   9.117 -0.0266 -0.1555 -0.3292
  834TIP3    H126697   5.992   5.920   9.178 -0.1142 -0.5246 -0.1971
  834TIP3    H226698   5.957   5.896   9.032  0.3788  2.6206 -0.9076
  835TIP3   OH226699   2.175   6.816   6.940 -0.3224 -0.1340 -0.2022
  835TIP3    H126700   2.253   6.817   6.995  0.1226  0.7596 -0.8143
  835TIP3    H226701   2.121   6.746   6.976  0.8478 -0.9169  0.1115
  836TIP3   OH226702   1.879   5.299   0.628  0.3138 -0.4746 -0.0560
  836TIP3    H126703   1.916   5.294   0.716 -0.5678  1.2826  0.4622
  836TIP3    H226704   1.792   5.336   0.642 -0.6564 -2.1196 -1.4831
  837TIP3   OH226705   2.909   3.300   7.752 -0.0376 -0.6329 -0.3040
  837TIP3    H126706   2.851   3.259   7.815 -0.4757 -0.5023 -0.6194
  837TIP3    H226707   2.996   3.269   7.776 -0.0941  0.0549  0.8647
  838TIP3   OH226708   0.225   2.919   1.498 -0.5941  0.2148 -0.0744
  838TIP3    H126709   0.214   2.984   1.429 -2.3092 -0.2714 -0.2997
  838TIP3    H226710   0.318   2.894   1.493 -0.1574  1.8484 -0.6744
  839TIP3   OH226711   7.000   3.320   0.265 -0.3030  0.3873  0.1499
  839TIP3    H126712   7.040   3.249   0.216  0.9303  0.6251  0.7695
  839TIP3    H226713   6.940   3.276   0.325  1.7889 -0.3586  1.8308
  840TIP3   OH226714   3.694   5.744   7.040 -0.1047 -0.1066  0.3069
  840TIP3    H126715   3.650   5.705   6.964  2.8477  0.6567 -1.9837
  840TIP3    H226716   3.643   5.823   7.059 -1.7098 -1.0335  0.0609
  841TIP3   OH226717   0.332   1.489   1.003 -0.5989 -0.3405 -0.2086
  841TIP3    H126718   0.397   1.483   0.933 -0.2106  0.9859 -0.0034
  841TIP3    H226719   0.322   1.583   1.017 -0.3870 -0.5812  1.7810
  842TIP3   OH226720   6.725   6.530   9.068  0.2037 -0.4374 -0.4873
  842TIP3    H126721   6.743   6.582   8.989 -0.2929  1.6614  0.6931
  842TIP3    H226722   6.630   6.534   9.078  0.3340  0.0249  0.6582
  843TIP3   OH226723   4.584   4.077   1.186  0.0701 -0.5268  0.1020
  843TIP3    H126724   4.562   4.056   1.095 -1.4601 -1.6331  0.6741
  843TIP3    H226725   4.506   4.120   1.220  0.7379  0.1419  0.8246
  844TIP3   OH226726   2.071   5.877   7.336 -0.6200  0.2273  0.5852
  844TIP3    H126727   2.087   5.971   7.343 -0.4915  0.1238  2.0455
  844TIP3    H226728   2.017   5.867   7.258  1.0124  1.2909 -0.7438
  845TIP3   OH226729   3.235   3.483   0.148  0.9767  0.2558 -0.5523
  845TIP3    H126730   3.268   3.464   0.061 -0.2219 -1.8252 -0.6271
  845TIP3    H226731   3.279   3.564   0.174  1.3490  0.9351 -3.0644
  846TIP3   OH226732   6.414   4.906   0.241  0.0879 -0.6032 -0.3276
  846TIP3    H126733   6.463   4.847   0.183  0.5115 -1.5365  0.9483
  846TIP3    H226734   6.481   4.959   0.284 -0.2500  0.3369 -0.9032
  847TIP3   OH226735   3.118   0.058   2.184 -0.0447 -0.4586 -0.2651
  847TIP3    H126736   3.131  -0.012   2.247 -0.6136 -0.2038  0.1435
  847TIP3    H226737   3.050   0.113   2.223  1.4516  1.1754  0.1730
  848TIP3   OH226738   4.997   4.803   8.535  0.3485  0.2247 -0.2355
  848TIP3    H126739   4.962   4.889   8.556 -1.4548 -0.2635 -1.0344
  848TIP3    H226740   4.943   4.742   8.585 -0.6730 -0.6214 -2.2598
  849TIP3   OH226741   6.525   2.549   9.563 -0.2743  0.6261  0.0993
  849TIP3    H126742   6.564   2.615   9.620 -2.9311  0.8072  1.9179
  849TIP3    H226743   6.514   2.593   9.479  1.2855  1.2498  0.1915
  850TIP3   OH226744   5.234   1.897   9.279  0.0987  1.0630 -0.8295
  850TIP3    H126745   5.239   1.844   9.358 -0.0676  1.7501 -0.3458
  850TIP3    H226746   5.321   1.934   9.268  0.1825  0.7883 -1.0968
  851TIP3   OH226747   7.209   4.880   0.351  0.2912 -1.0341 -0.4827
  851TIP3    H126748   7.211   4.899   0.445  1.5054 -0.8257 -0.5375
  851TIP3    H226749   7.157   4.951   0.313  0.7536 -0.4823 -0.0997
  852TIP3   OH226750   4.940   1.416   0.514  0.4168  0.5230 -0.2370
  852TIP3    H126751   4.846   1.411   0.502  0.1890  0.3965  1.4057
  852TIP3    H226752   4.952   1.436   0.607  2.0309 -1.5021  0.0642
  853TIP3   OH226753   6.043   4.521   0.703  0.0407  0.2858 -0.0113
  853TIP3    H126754   5.961   4.491   0.742 -0.7748  1.3013 -0.8829
  853TIP3    H226755   6.060   4.458   0.632  0.8195 -0.7724  1.0576
  854TIP3   OH226756   5.766   0.243   2.767 -0.1126 -0.6540  0.5721
  854TIP3    H126757   5.792   0.153   2.750  3.7158  0.3521  0.0914
  854TIP3    H226758   5.798   0.262   2.855  2.4250  1.1213 -0.6114
  855TIP3   OH226759   6.852   0.873   2.495  0.2459 -0.0675  0.7403
  855TIP3    H126760   6.782   0.820   2.534 -0.4646  0.6320  0.4451
  855TIP3    H226761   6.859   0.949   2.552 -1.2432  1.2794 -0.7770
  856TIP3   OH226762   4.599   0.454   8.610  0.0453  0.2524  0.3240
  856TIP3    H126763   4.619   0.520   8.544  0.5376 -0.3562 -0.1551
  856TIP3    H226764   4.559   0.502   8.682 -0.7374  0.8972 -0.5290
  857TIP3   OH226765   2.180   6.834   9.119  0.2560 -0.7278  0.0598
  857TIP3    H126766   2.139   6.880   9.192 -0.4352 -3.1370  1.3139
  857TIP3    H226767   2.240   6.772   9.161  1.1706 -0.9712 -1.5174
  858TIP3   OH226768   1.927   3.311   2.586  0.2025 -0.0504  0.4742
  858TIP3    H126769   1.863   3.364   2.635  0.8989  1.3565 -0.0654
  858TIP3    H226770   2.011   3.349   2.609  0.6676 -0.4373 -0.5340
  859TIP3   OH226771   4.585   2.307   1.081  0.3755 -0.0079  0.1033
  859TIP3    H126772   4.532   2.383   1.103  1.3174  0.5669  0.4688
  859TIP3    H226773   4.524   2.233   1.084 -0.6451  0.7712 -0.6574
  860TIP3   OH226774   7.316   5.149   2.495 -0.0730 -0.3388 -0.2204
  860TIP3    H126775   7.308   5.123   2.587  0.6293 -2.0386 -0.6119
  860TIP3    H226776   7.286   5.073   2.446 -2.2490  1.2005 -1.4398
  861TIP3   OH226777   0.222   1.698   9.427  0.0412  0.4643  0.5447
  861TIP3    H126778   0.157   1.653   9.482 -2.1524  1.6978 -0.8752
  861TIP3    H226779   0.306   1.664   9.457 -1.1286 -0.1371  3.5015
  862TIP3   OH226780   3.353   1.120   8.661 -0.0436  0.3349  0.4053
  862TIP3    H126781   3.315   1.129   8.748 -3.2472 -1.4270 -0.6001
  862TIP3    H226782   3.285   1.074   8.611  2.6426 -0.9752 -2.3562
  863TIP3   OH226783   0.623   4.183   1.379  0.1138 -0.3613  0.1796
  863TIP3    H126784   0.559   4.205   1.446  1.4431  0.1508  1.3432
  863TIP3    H226785   0.707   4.212   1.415  0.9875 -0.8047 -1.3708
  864TIP3   OH226786   1.906   0.911   0.604 -0.2140 -0.7112  0.4711
  864TIP3    H126787   1.907   0.994   0.556 -2.9319 -0.7182  0.2284
  864TIP3    H226788   1.902   0.936   0.696  0.4305 -0.6265  0.4826
  865TIP3   OH226789   0.578   4.897   7.626 -0.0967  0.3033  0.0105
  865TIP3    H126790   0.584   4.814   7.674  1.5024  0.3291 -0.0822
  865TIP3    H226791   0.545   4.960   7.690  0.4888 -0.0078  0.6207
  866TIP3   OH226792   0.269   2.278   9.123  0.1620 -0.3296 -0.0681
  866TIP3    H126793   0.198   2.324   9.170 -0.5068 -1.2818 -0.1137
  866TIP3    H226794   0.236   2.189   9.112  2.0142 -1.2273  1.2661
  867TIP3   OH226795   5.165   3.334   9.258 -0.3188  0.2534  0.1208
  867TIP3    H126796   5.217   3.414   9.252  2.4798 -1.4667 -0.5874
  867TIP3    H226797   5.224   3.270   9.298 -1.9752 -1.8083 -0.5497
  868TIP3   OH226798   6.322   4.118   1.117  0.0939  0.2076  0.9883
  868TIP3    H126799   6.383   4.067   1.170 -3.1606 -2.4130  2.6616
  868TIP3    H226800   6.269   4.052   1.073 -3.5687  2.0334  2.2221
  869TIP3   OH226801   4.968   5.256   0.323  0.7462 -0.3230 -0.3521
  869TIP3    H126802   5.062   5.258   0.304  0.4069  2.2147 -2.3173
  869TIP3    H226803   4.931   5.197   0.258  0.7068  1.0076 -1.5991
  870TIP3   OH226804   2.709   1.712   8.479 -0.2069 -0.3795 -0.2022
  870TIP3    H126805   2.779   1.666   8.525  0.4070 -0.8171 -1.5253
  870TIP3    H226806   2.737   1.714   8.388 -1.9320 -0.5747 -0.7720
  871TIP3   OH226807   3.963   4.521   9.381 -0.7945 -0.0635  0.2508
  871TIP3    H126808   4.054   4.497   9.363 -0.5420  0.2554  1.0533
  871TIP3    H226809   3.914   4.488   9.306  0.1819  1.0351 -0.9368
  872TIP3   OH226810   5.135   4.744   2.586  0.2249 -0.1550 -0.2429
  872TIP3    H126811   5.148   4.820   2.643  2.6200 -1.0505  0.5100
  872TIP3    H226812   5.204   4.682   2.612 -1.2290 -2.3376 -1.2679
  873TIP3   OH226813   4.429   6.722   0.323  0.0116  0.1530  0.0682
  873TIP3    H126814   4.393   6.811   0.317 -0.1992  0.0780  0.2114
  873TIP3    H226815   4.411   6.695   0.413  1.3320  0.4958  0.4659
  874TIP3   OH226816   7.420   0.979   2.021  0.1565  0.4409  0.1410
  874TIP3    H126817   7.512   0.951   2.020  0.1727  0.4743 -0.9828
  874TIP3    H226818   7.398   0.986   2.114  0.8599 -0.9867  0.4497
  875TIP3   OH226819   2.782   6.400   9.013  0.4633 -0.0578 -0.0568
  875TIP3    H126820   2.870   6.430   9.035  0.4675  0.0030 -0.1558
  875TIP3    H226821   2.725   6.474   9.033  0.5038  0.1152 -0.5479
  876TIP3   OH226822   4.126   0.407   1.324 -0.0728 -0.4945 -0.4027
  876TIP3    H126823   4.157   0.357   1.249 -0.3739 -0.1966 -0.7288
  876TIP3    H226824   4.177   0.488   1.322  1.1115 -1.1727  0.6886
  877TIP3   OH226825   4.820   3.288   2.541  0.1661  0.3983 -0.6615
  877TIP3    H126826   4.749   3.318   2.598  2.3277 -0.3806  2.7683
  877TIP3    H226827   4.786   3.209   2.498 -1.3247  0.5660  0.1707
  878TIP3   OH226828   4.525   5.493   2.485 -0.1703  0.6497 -0.2252
  878TIP3    H126829   4.456   5.438   2.522  1.7116 -0.9237  1.2146
  878TIP3    H226830   4.505   5.581   2.517 -1.2870  0.1594  0.4844
  879TIP3   OH226831   2.756   1.688   7.677  0.1841  0.5210 -0.0737
  879TIP3    H126832   2.771   1.623   7.608  0.9832  0.2340  0.3586
  879TIP3    H226833   2.810   1.763   7.651 -1.9224  1.6678 -1.3957
  880TIP3   OH226834   1.479   0.055   0.639 -0.3617 -0.4615  0.0877
  880TIP3    H126835   1.540   0.122   0.609  0.2587 -1.8494 -1.9701
  880TIP3    H226836   1.416   0.103   0.693  2.5376  1.0150  2.4540
  881TIP3   OH226837   2.901   1.621   8.709 -0.3701  0.0493  0.5606
  881TIP3    H126838   2.880   1.532   8.736 -1.7127  0.0732 -0.3190
  881TIP3    H226839   2.844   1.676   8.763 -1.5633  0.2004 -0.7953
  882TIP3   OH226840   6.451   7.248   9.644 -0.0183 -0.1018  0.2873
  882TIP3    H126841   6.371   7.210   9.606  0.3884  1.4037 -2.3705
  882TIP3    H226842   6.478   7.185   9.710 -2.6156 -1.3700  0.2983
  883TIP3   OH226843   5.015   7.153   8.151 -0.2402  0.4621 -0.1390
  883TIP3    H126844   4.997   7.070   8.108 -1.3959  0.2518  0.7256
  883TIP3    H226845   4.938   7.207   8.134  0.0658  1.0086  0.1553
  884TIP3   OH226846   4.195   1.513   7.944  0.0772  0.0619 -0.2395
  884TIP3    H126847   4.192   1.566   7.864 -2.5454 -0.5310 -0.6259
  884TIP3    H226848   4.104   1.509   7.973  0.5253 -2.3415  1.0297
  885TIP3   OH226849   2.989   4.562   8.287  0.1989  0.7813 -0.0566
  885TIP3    H126850   2.921   4.496   8.271 -1.0086  1.9821 -0.0300
  885TIP3    H226851   3.063   4.512   8.322 -0.8654 -0.4982  0.4553
  886TIP3   OH226852   5.000   4.446   7.657  0.0835 -0.5473 -0.4062
  886TIP3    H126853   5.037   4.512   7.597  2.5264 -0.8025  0.7150
  886TIP3    H226854   5.012   4.483   7.744  0.0563 -1.7980  0.1513
  887TIP3   OH226855   3.319   5.025   3.047  0.0256  0.0349  0.2746
  887TIP3    H126856   3.328   4.955   3.112 -1.1129 -0.6466 -0.2521
  887TIP3    H226857   3.352   4.986   2.966 -0.1051  0.2947  0.0973
  888TIP3   OH226858   7.015   2.311   2.631  0.5581 -0.1212  0.9961
  888TIP3    H126859   6.992   2.403   2.638  0.3198 -0.0688 -0.2306
  888TIP3    H226860   6.930   2.265   2.635  0.6484 -0.2669  1.2787
  889TIP3   OH226861   6.549   4.717   0.456  0.4531  0.2978 -0.1583
  889TIP3    H126862   6.616   4.650   0.467 -0.5704 -0.8314 -0.6343
  889TIP3    H226863   6.470   4.669   0.433 -0.3232  1.6655 -0.4698
  890TIP3   OH226864   3.270   0.246   0.981  0.4124  0.0338 -0.1502
  890TIP3    H126865   3.196   0.281   0.931 -0.3655 -0.5185  0.5839
  890TIP3    H226866   3.316   0.324   1.013  0.3564  0.3851 -0.9122
  891TIP3   OH226867   0.652   2.437   0.022  0.7884  0.2664  0.6237
  891TIP3    H126868   0.691   2.446  -0.065  0.6641  2.0263  0.7139
  891TIP3    H226869   0.687   2.511   0.071  0.9713 -0.7910  2.1365
  892TIP3   OH226870   6.290   3.728   7.865  0.3363  0.1797 -0.1116
  892TIP3    H126871   6.361   3.666   7.883 -1.0777 -1.5867 -0.4011
  892TIP3    H226872   6.214   3.691   7.909 -0.4199  2.0691  0.2296
  893TIP3   OH226873   0.947   2.212   2.100  0.3003  0.1420  0.3311
  893TIP3    H126874   1.023   2.224   2.044  0.5019 -0.8935  0.3689
  893TIP3    H226875   0.874   2.250   2.051  0.6664  0.2445 -0.1349
  894TIP3   OH226876   2.592   4.956   6.598  0.0590 -0.1624 -0.2216
  894TIP3    H126877   2.651   4.924   6.666 -0.3536  0.7738  0.5947
  894TIP3    H226878   2.639   5.029   6.557  0.1479 -0.4814 -0.7064
  895TIP3   OH226879   3.266   0.562   0.999  0.1925 -0.7482  0.0052
  895TIP3    H126880   3.216   0.556   0.918 -0.6182  0.1620  0.4129
  895TIP3    H226881   3.349   0.600   0.973 -1.0852  2.2935 -0.0793
  896TIP3   OH226882   0.676   0.981   8.567  0.3693 -0.0758 -0.1663
  896TIP3    H126883   0.609   0.952   8.505 -0.5149  0.0719  0.7050
  896TIP3    H226884   0.759   0.951   8.528 -0.1340  0.2143 -1.5315
  897TIP3   OH226885   1.000   5.360   1.533 -0.0252 -0.7318  0.3174
  897TIP3    H126886   0.927   5.411   1.498 -0.7681 -1.2907  1.0407
  897TIP3    H226887   1.040   5.320   1.456 -0.9604 -1.0452 -0.0173
  898TIP3   OH226888   5.392   4.041   9.239  0.0987  0.2128  0.1509
  898TIP3    H126889   5.359   4.077   9.321 -0.8336 -0.2016 -0.0381
  898TIP3    H226890   5.465   4.100   9.215 -0.5750  1.2156  0.4966
  899TIP3   OH226891   1.728   7.076   8.665 -0.2439 -0.3666 -0.1960
  899TIP3    H126892   1.648   7.066   8.716  0.3800 -2.2339  0.5241
  899TIP3    H226893   1.702   7.127   8.589 -1.9300 -0.2543  0.4100
  900TIP3   OH226894   5.228   1.425   0.802  0.1922  0.6089  0.2537
  900TIP3    H126895   5.296   1.489   0.823 -0.0091  0.7591  0.4593
  900TIP3    H226896   5.275   1.342   0.793  0.9086  1.2263 -2.9508
  901TIP3   OH226897   6.436   4.852   7.098 -0.5495 -0.3883 -0.6827
  901TIP3    H126898   6.427   4.826   7.006  2.6650 -2.3924 -0.5739
  901TIP3    H226899   6.500   4.923   7.098  0.0506 -0.9114  0.0551
  902TIP3   OH226900   4.796   3.742   2.135  0.0509 -0.3067 -0.5464
  902TIP3    H126901   4.738   3.726   2.061 -0.5633  0.7971 -0.3214
  902TIP3    H226902   4.881   3.763   2.095 -0.0125 -0.6960 -0.8976
  903TIP3   OH226903   3.201   3.730   7.703 -0.1755  0.3089 -0.7306
  903TIP3    H126904   3.288   3.769   7.712  0.3627 -0.7023 -1.3160
  903TIP3    H226905   3.182   3.692   7.788 -1.2095  2.7494  0.2226
  904TIP3   OH226906   3.802   2.265   0.973 -0.0587 -0.8002  0.1127
  904TIP3    H126907   3.730   2.243   0.915  0.0906 -0.2585 -0.2927
  904TIP3    H226908   3.796   2.360   0.984  2.2776 -0.2343 -2.3145
  905TIP3   OH226909   6.425   0.010   2.173 -0.1507  0.1492  0.1759
  905TIP3    H126910   6.422   0.046   2.262 -0.7540  1.5911 -0.3990
  905TIP3    H226911   6.459   0.082   2.120  1.1168 -1.0071 -0.6365
  906TIP3   OH226912   1.766   4.522   1.035  0.1360  0.1391  0.2891
  906TIP3    H126913   1.791   4.600   0.986 -1.2353 -0.1361 -0.9027
  906TIP3    H226914   1.712   4.555   1.107 -2.0575  0.2496 -1.2828
  907TIP3   OH226915   0.359   5.729   0.912 -0.3269  0.1820 -0.0480
  907TIP3    H126916   0.313   5.715   0.995 -1.2160 -0.4388 -0.6220
  907TIP3    H226917   0.292   5.761   0.853  0.4537  1.2861 -0.3540
  908TIP3   OH226918   2.562   6.912   2.285 -0.2111 -0.1957  0.6517
  908TIP3    H126919   2.629   6.975   2.258  1.1333 -1.5193  0.7330
  908TIP3    H226920   2.517   6.888   2.204  0.3882 -0.3666  0.3663
  909TIP3   OH226921   2.746   6.921   2.605 -0.0926 -0.0301 -0.1701
  909TIP3    H126922   2.730   6.930   2.699 -1.3739  1.1164 -0.4590
  909TIP3    H226923   2.828   6.969   2.590 -0.4377  0.6899  0.2062
  910TIP3   OH226924   6.125   5.274   8.048  0.1591 -0.0849 -0.2842
  910TIP3    H126925   6.153   5.184   8.033 -0.9877 -0.1355 -2.3674
  910TIP3    H226926   6.086   5.273   8.136  3.1605 -0.7996  1.1790
  911TIP3   OH226927   3.663   0.783   1.927  0.2268 -0.3642  0.4238
  911TIP3    H126928   3.575   0.790   1.964 -0.4546  0.1544 -1.1650
  911TIP3    H226929   3.651   0.734   1.846  1.3027  0.2080 -0.1116
  912TIP3   OH226930   7.045   2.072   9.415 -0.0883  0.8336 -0.7379
  912TIP3    H126931   7.133   2.106   9.427 -0.2289  1.2331 -0.8220
  912TIP3    H226932   7.048   1.983   9.450  0.2582  0.9675 -0.4276
  913TIP3   OH226933   4.269   2.083   6.786  0.3401 -0.1763  0.5460
  913TIP3    H126934   4.330   2.151   6.757  1.1546 -2.2410 -3.2638
  913TIP3    H226935   4.287   2.008   6.728 -4.2925 -1.6992  0.6610
  914TIP3   OH226936   3.833   5.692   0.474  0.0482 -0.4286 -0.3903
  914TIP3    H126937   3.765   5.744   0.515  0.7889 -0.3396  0.7509
  914TIP3    H226938   3.912   5.710   0.524  0.4276 -2.2768 -0.2479
  915TIP3   OH226939   0.433   0.043   1.452 -0.2438 -0.6991  0.0962
  915TIP3    H126940   0.506   0.009   1.504 -1.6266  0.3675  2.9347
  915TIP3    H226941   0.356   0.032   1.508 -1.9204  0.2568 -1.8828
  916TIP3   OH226942   1.988   4.662   2.130 -0.2128 -0.1373 -0.2944
  916TIP3    H126943   2.039   4.743   2.133  0.3732 -0.5044 -0.0811
  916TIP3    H226944   1.902   4.687   2.162 -1.1460  1.1485 -3.4310
  917TIP3   OH226945   6.250   5.551   0.890  0.1752  0.3771  0.0358
  917TIP3    H126946   6.328   5.564   0.944 -1.3296 -1.7736  2.9833
  917TIP3    H226947   6.219   5.640   0.871  2.2896  1.2317  0.3434
  918TIP3   OH226948   1.617   1.578   2.021  0.3969  0.0429  0.0430
  918TIP3    H126949   1.593   1.511   1.957  0.7073 -0.3439  0.3276
  918TIP3    H226950   1.689   1.626   1.981  1.0846 -0.6708  0.3996
  919TIP3   OH226951   7.239   4.377   3.062 -0.2651  0.1634  0.5572
  919TIP3    H126952   7.197   4.372   3.147  1.3302 -3.0557  1.3216
  919TIP3    H226953   7.331   4.396   3.081 -0.0681  0.4268 -0.5489
  920TIP3   OH226954   4.353   0.422   9.035  0.3773  0.2599  0.0055
  920TIP3    H126955   4.448   0.418   9.050  0.6612 -0.8538 -1.7336
  920TIP3    H226956   4.314   0.394   9.117  1.5863 -0.0360  0.4954
  921TIP3   OH226957   2.522   5.699   1.210  0.0824 -0.1716  0.0840
  921TIP3    H126958   2.517   5.609   1.240  0.3492 -0.4651 -0.7286
  921TIP3    H226959   2.434   5.720   1.180  0.5475 -1.0058 -2.0391
  922TIP3   OH226960   2.148   4.828   1.484 -0.1110  0.0791 -0.6612
  922TIP3    H126961   2.066   4.787   1.454  0.4543 -0.5453 -1.3870
  922TIP3    H226962   2.136   4.837   1.578 -0.9229 -0.2308 -0.7214
  923TIP3   OH226963   2.810   3.434   2.783 -0.0615  0.0856 -0.4173
  923TIP3    H126964   2.775   3.365   2.840  0.8075 -0.2378 -0.2701
  923TIP3    H226965   2.898   3.404   2.760  0.5836  1.4345  0.1657
  924TIP3   OH226966   2.392   5.055   8.217  0.0597  0.4851 -0.4604
  924TIP3    H126967   2.486   5.050   8.234 -0.0074 -1.2116 -0.3914
  924TIP3    H226968   2.352   5.006   8.288 -0.9160  1.4398 -0.3285
  925TIP3   OH226969   1.057   3.343   7.332  0.4150  0.5548  0.1087
  925TIP3    H126970   1.137   3.295   7.350 -0.9310 -1.4737  0.9872
  925TIP3    H226971   1.023   3.367   7.418 -0.2022  0.9261 -0.2295
  926TIP3   OH226972   2.011   7.054   8.110 -0.3411  0.5413 -0.2155
  926TIP3    H126973   1.955   7.063   8.187  0.1289 -1.5735  0.4436
  926TIP3    H226974   1.967   7.104   8.042 -2.5232 -0.2271  0.5464
  927TIP3   OH226975   6.336   2.631   1.492  0.4137 -0.1318 -0.4842
  927TIP3    H126976   6.432   2.635   1.492  0.5110 -1.3831 -2.0502
  927TIP3    H226977   6.316   2.540   1.512 -0.4829  0.1969  0.1872
  928TIP3   OH226978   2.675   4.172   1.776  0.5287  0.2783  0.0964
  928TIP3    H126979   2.715   4.160   1.863  2.1685  2.7570 -0.2159
  928TIP3    H226980   2.597   4.225   1.793  0.1873 -0.2354  0.1583
  929TIP3   OH226981   1.566   5.868   8.109 -0.1282  0.0002 -0.1115
  929TIP3    H126982   1.655   5.834   8.103  0.0802  0.5082  0.0475
  929TIP3    H226983   1.511   5.790   8.121  0.2022 -0.3871 -1.0409
  930TIP3   OH226984   3.840   5.852   1.464  0.0238 -0.3592  0.2764
  930TIP3    H126985   3.816   5.885   1.550 -0.4883 -0.1424  0.0571
  930TIP3    H226986   3.924   5.809   1.477 -0.0182 -0.2695  0.8686
  931TIP3   OH226987   3.920   3.744   0.810  0.0316  0.0984 -0.0086
  931TIP3    H126988   3.893   3.835   0.795  0.3954  0.0650 -0.9498
  931TIP3    H226989   3.998   3.733   0.755  0.2943 -0.6327  0.4967
  932TIP3   OH226990   2.256   2.511   1.058  0.9684 -0.2293  0.3013
  932TIP3    H126991   2.178   2.457   1.045  1.3063 -1.1475  1.7895
  932TIP3    H226992   2.328   2.457   1.025  0.9404  0.9140 -1.7598
  933TIP3   OH226993   1.351   4.319   9.521  0.0402  0.0780 -0.1924
  933TIP3    H126994   1.408   4.296   9.447 -1.0310 -0.9541 -0.7325
  933TIP3    H226995   1.344   4.239   9.572 -0.7793  0.2296 -0.0445
  934TIP3   OH226996   0.237   0.701   1.762  0.0841  0.2066 -0.1120
  934TIP3    H126997   0.177   0.756   1.712  0.0852  1.5050  1.2323
  934TIP3    H226998   0.324   0.732   1.737  0.4057 -2.4764 -2.9845
  935TIP3   OH226999   2.992   2.961   9.578  0.1818 -0.0378 -0.2833
  935TIP3    H127000   2.920   3.017   9.608  0.2120 -1.0124  1.7882
  935TIP3    H227001   3.070   3.016   9.584  0.3173 -0.3892  2.3977
  936TIP3   OH227002   5.945   2.708   1.640  0.3962 -0.7760 -0.0472
  936TIP3    H127003   5.945   2.614   1.625 -0.8985 -0.5523 -1.7426
  936TIP3    H227004   6.035   2.727   1.668  0.7361 -2.4708  0.1407
  937TIP3   OH227005   2.310   4.303   1.224 -0.7730  0.6914 -0.7255
  937TIP3    H127006   2.301   4.335   1.313  0.6830  0.6155 -0.5217
  937TIP3    H227007   2.387   4.349   1.190 -2.2116  1.9271 -2.5097
  938TIP3   OH227008   2.881   1.691   0.778  0.1095 -0.4571 -0.1244
  938TIP3    H127009   2.853   1.605   0.748 -2.0216 -0.1264  0.6633
  938TIP3    H227010   2.889   1.743   0.699 -0.6965 -0.8364 -0.4655
  939TIP3   OH227011   5.142   4.706   1.404  0.4268  0.1752 -0.2895
  939TIP3    H127012   5.145   4.764   1.480  0.5341 -0.7164  0.3989
  939TIP3    H227013   5.150   4.765   1.329  0.4154  1.0606  0.3863
  940TIP3   OH227014   2.489   5.042   2.766 -0.2488  0.1103  0.1829
  940TIP3    H127015   2.569   5.011   2.723 -0.5250  1.3419 -1.2836
  940TIP3    H227016   2.418   4.997   2.720 -0.4554 -0.6120  1.1669
  941TIP3   OH227017   0.322   4.870   7.224 -0.2274  0.3450 -0.0719
  941TIP3    H127018   0.338   4.788   7.179 -0.4754  0.6943 -0.8197
  941TIP3    H227019   0.344   4.853   7.315  0.7980 -0.2267 -0.4136
  942TIP3   OH227020   7.285   6.257   3.195 -0.5574 -0.4257  0.7411
  942TIP3    H127021   7.378   6.274   3.211 -0.9417  0.9827  1.6424
  942TIP3    H227022   7.278   6.162   3.195  1.2095 -0.6253 -1.4120
  943TIP3   OH227023   1.361   6.578   0.429 -0.1317  0.3180 -0.4194
  943TIP3    H127024   1.271   6.575   0.395 -0.6532 -0.7105  0.9721
  943TIP3    H227025   1.387   6.486   0.438 -0.2178  0.4892  2.3479
  944TIP3   OH227026   3.143   7.290   9.180  0.1507 -0.3368 -0.1987
  944TIP3    H127027   3.141   7.207   9.228  0.0861  0.6485  1.5895
  944TIP3    H227028   3.198   7.272   9.103 -1.0159 -2.3927 -0.6245
  945TIP3   OH227029   6.127   5.403   8.687 -0.0451 -0.0220  0.1732
  945TIP3    H127030   6.176   5.327   8.655 -0.3199 -0.6236  1.1337
  945TIP3    H227031   6.192   5.459   8.728  0.0352 -0.1786  0.2615
  946TIP3   OH227032   2.500   1.789   7.223  0.0190  0.1245  0.3614
  946TIP3    H127033   2.513   1.858   7.157 -0.4550 -0.7989 -0.7381
  946TIP3    H227034   2.582   1.787   7.272  0.6504  0.3815 -0.6552
  947TIP3   OH227035   4.702   1.391   6.746 -0.2049  0.1314  0.2884
  947TIP3    H127036   4.650   1.311   6.751  1.1626 -0.7333  3.1768
  947TIP3    H227037   4.665   1.448   6.813 -0.5414  1.5546 -1.0682
  948TIP3   OH227038   4.360   4.735   8.818  0.3117 -0.3200 -0.3181
  948TIP3    H127039   4.384   4.695   8.735  0.2573  1.5184 -1.2866
  948TIP3    H227040   4.444   4.761   8.857  0.3467 -1.2900  0.2940
  949TIP3   OH227041   4.305   0.536   7.786  0.5630  0.4719 -0.2715
  949TIP3    H127042   4.387   0.485   7.783 -0.2947 -0.9414 -2.2834
  949TIP3    H227043   4.316   0.602   7.717  0.0328  0.2823 -0.5428
  950TIP3   OH227044   6.126   1.958   6.486  0.1247  0.4759  0.3658
  950TIP3    H127045   6.082   1.950   6.570  0.1187  1.4215  0.4596
  950TIP3    H227046   6.216   1.982   6.508  0.3199 -0.0113  0.1225
  951TIP3   OH227047   5.294   0.199   1.085  0.0597  0.0428  0.0865
  951TIP3    H127048   5.205   0.194   1.050  0.4344 -0.7799 -0.7957
  951TIP3    H227049   5.312   0.111   1.118  0.4245  0.2963  0.5770
  952TIP3   OH227050   5.830   4.234   1.700  0.0463  0.2474  0.2478
  952TIP3    H127051   5.750   4.192   1.668  0.1656  0.2203 -0.0141
  952TIP3    H227052   5.899   4.204   1.641  0.3349 -0.0867  0.7420
  953TIP3   OH227053   6.710   6.221   8.072 -0.7243  0.2035  0.0979
  953TIP3    H127054   6.683   6.219   8.164  0.5442  0.5009  0.4955
  953TIP3    H227055   6.631   6.246   8.024 -1.8691 -1.6285  0.9168
  954TIP3   OH227056   6.822   1.476   2.255  0.1366  0.6150  0.1833
  954TIP3    H127057   6.755   1.543   2.274 -0.5330 -0.0050  0.0285
  954TIP3    H227058   6.905   1.521   2.270 -0.3118  1.4186  0.3135
  955TIP3   OH227059   6.458   2.758   7.043 -0.4935 -0.0473 -0.1219
  955TIP3    H127060   6.500   2.788   7.124 -1.1972 -1.9576  1.0096
  955TIP3    H227061   6.528   2.761   6.977  0.1544  1.3193  0.5756
  956TIP3   OH227062   0.840   0.236   6.621  0.7176  0.1419 -0.1212
  956TIP3    H127063   0.778   0.166   6.644  0.6432  0.1810 -0.2037
  956TIP3    H227064   0.925   0.202   6.649  0.8201 -0.4001 -1.0389
  957TIP3   OH227065   3.506   4.715   2.194 -0.4352  0.5670 -0.5735
  957TIP3    H127066   3.585   4.698   2.143  1.2070  0.8304  1.7085
  957TIP3    H227067   3.459   4.782   2.145  1.0314  0.7972 -1.7369
  958TIP3   OH227068   5.754   5.044   8.948 -0.5182  0.1039  0.1461
  958TIP3    H127069   5.682   5.004   8.997 -0.5783 -0.7161 -0.5785
  958TIP3    H227070   5.725   5.134   8.933  0.3376  1.0114  3.2307
  959TIP3   OH227071   4.774   0.855   2.445  0.1021  0.4830  0.0301
  959TIP3    H127072   4.759   0.919   2.515 -0.8989  0.1441  0.1296
  959TIP3    H227073   4.771   0.770   2.489 -0.6788  0.2599 -0.4424
  960TIP3   OH227074   5.913   5.218   8.739  0.4524  0.1331 -0.6754
  960TIP3    H127075   5.970   5.292   8.722  1.2784 -0.0400  1.0598
  960TIP3    H227076   5.950   5.177   8.818 -1.1276 -0.9447 -0.4448
  961TIP3   OH227077   1.151   5.604   7.503  0.2405  0.4050  0.6531
  961TIP3    H127078   1.148   5.517   7.543  0.0497 -0.0106 -0.2368
  961TIP3    H227079   1.139   5.664   7.576 -2.2884 -0.3840  0.9756
  962TIP3   OH227080   0.104   0.343   0.083  0.2148 -0.3601 -0.2968
  962TIP3    H127081   0.101   0.350   0.178 -0.8505 -0.6367 -0.2954
  962TIP3    H227082   0.137   0.255   0.066  0.7960 -0.1658 -0.1934
  963TIP3   OH227083   0.503   5.283   0.967  0.9345  0.2191  0.1626
  963TIP3    H127084   0.448   5.254   1.040  0.4953 -0.6034 -0.4797
  963TIP3    H227085   0.570   5.337   1.008  1.3103 -1.0598  1.3320
  964TIP3   OH227086   5.169   2.924   8.463  0.1511 -0.0100  0.5837
  964TIP3    H127087   5.120   2.862   8.408  0.4284  0.0638  0.2518
  964TIP3    H227088   5.119   2.928   8.545 -1.0769  1.0068 -0.1937
  965TIP3   OH227089   2.211   4.859   9.371  0.4196 -0.1867  0.9974
  965TIP3    H127090   2.138   4.920   9.379  0.3492  0.0417 -1.0427
  965TIP3    H227091   2.288   4.914   9.357  0.4622 -0.5038 -0.1429
  966TIP3   OH227092   7.079   4.153   8.187  0.1850  0.0560 -0.0202
  966TIP3    H127093   7.025   4.100   8.246 -1.3994  1.2185 -0.3595
  966TIP3    H227094   7.152   4.095   8.164 -1.0675 -1.7345  0.2199
  967TIP3   OH227095   6.742   4.456   2.070 -0.1179  0.0846  0.4124
  967TIP3    H127096   6.754   4.363   2.089 -0.5496  0.4606  2.8513
  967TIP3    H227097   6.722   4.459   1.977 -2.1675 -2.4955  0.6387
  968TIP3   OH227098   2.399   1.884   7.875  0.2127 -0.2244  0.1664
  968TIP3    H127099   2.408   1.901   7.781  0.9089 -0.8803  0.1014
  968TIP3    H227100   2.486   1.856   7.903  0.4514  1.6107  1.3807
  969TIP3   OH227101   0.550   6.189   7.607  0.4712 -0.3839 -0.2150
  969TIP3    H127102   0.463   6.167   7.574  0.4116 -1.9914  0.8843
  969TIP3    H227103   0.606   6.120   7.573  1.3282  0.5758 -0.8144
  970TIP3   OH227104   6.869   7.218   1.617 -0.3929  0.3857 -0.5655
  970TIP3    H127105   6.799   7.157   1.595 -0.9150  1.6227 -2.7440
  970TIP3    H227106   6.938   7.164   1.654 -1.6818 -1.1663 -0.3261
  971TIP3   OH227107   0.559   5.875   1.233  0.3563  0.1423  0.5930
  971TIP3    H127108   0.624   5.937   1.201  1.8287 -1.1169  1.0389
  971TIP3    H227109   0.593   5.789   1.209 -2.7192 -0.5436 -2.1158
  972TIP3   OH227110   6.710   4.934   9.352  0.0967 -0.0298 -0.0042
  972TIP3    H127111   6.743   4.848   9.376 -0.9128 -0.2461  0.6855
  972TIP3    H227112   6.615   4.923   9.349 -0.0341  1.0171 -0.0925
  973TIP3   OH227113   2.031   0.109   6.790  0.0916 -0.6313  0.3942
  973TIP3    H127114   2.079   0.050   6.849 -0.3528 -1.0628  0.3315
  973TIP3    H227115   2.078   0.192   6.796  0.3539 -0.8124  0.9705
  974TIP3   OH227116   3.494   0.924   9.018  0.2756 -0.0615 -0.1112
  974TIP3    H127117   3.557   0.921   9.091  0.6500 -1.1992 -0.4616
  974TIP3    H227118   3.434   0.851   9.036 -0.1774  0.2249 -0.4595
  975TIP3   OH227119   3.137   5.920   1.112  0.2368  0.3737 -0.0904
  975TIP3    H127120   3.184   6.003   1.119  1.2833 -0.2262  0.3021
  975TIP3    H227121   3.068   5.926   1.178 -0.7029  1.5457 -1.1439
  976TIP3   OH227122   2.968   0.958   1.159 -0.6315  0.6183  0.3117
  976TIP3    H127123   3.024   0.901   1.106  1.4754  3.1693 -0.4373
  976TIP3    H227124   2.943   0.904   1.234  2.3107 -0.9126  0.3476
  977TIP3   OH227125   7.203   6.725   1.285  0.2656  0.1022 -0.1095
  977TIP3    H127126   7.259   6.655   1.251 -1.5764 -1.2067 -0.6072
  977TIP3    H227127   7.205   6.792   1.217  0.0346 -0.6011 -0.8213
  978TIP3   OH227128   0.048   0.498   1.011 -0.5085 -0.7634  0.5128
  978TIP3    H127129   0.051   0.423   0.952 -0.0154 -0.3311 -0.0247
  978TIP3    H227130   0.043   0.460   1.098 -1.1870 -1.4095  0.1968
  979TIP3   OH227131   0.509   2.682   7.660  0.3337 -0.3353  0.0782
  979TIP3    H127132   0.516   2.594   7.623 -0.0374 -1.2767  2.1015
  979TIP3    H227133   0.416   2.703   7.654  0.3271 -0.3421  0.1552
  980TIP3   OH227134   4.883   7.352   7.746  0.9978  0.2403  0.7708
  980TIP3    H127135   4.945   7.281   7.735 -0.4566 -0.8259 -1.1773
  980TIP3    H227136   4.921   7.425   7.697  1.9669  0.4829  1.8497
  981TIP3   OH227137   2.382   0.926   1.728 -0.0779  0.2391  0.5796
  981TIP3    H127138   2.461   0.953   1.775  0.1517 -0.5779  0.6816
  981TIP3    H227139   2.415   0.870   1.657 -0.6028 -0.7621  1.0951
  982TIP3   OH227140   2.527   4.653   7.318  0.0629 -0.2515  0.1715
  982TIP3    H127141   2.613   4.612   7.308  1.9463  3.0940  0.8376
  982TIP3    H227142   2.495   4.663   7.228  1.2270  0.0314 -0.2305
  983TIP3   OH227143   0.744   2.904   8.218  0.1485  0.0812 -0.1689
  983TIP3    H127144   0.752   2.924   8.311  0.9834 -1.4375  0.1144
  983TIP3    H227145   0.660   2.857   8.211  0.3157 -0.2295 -0.0988
  984TIP3   OH227146   6.234   4.263   7.914 -0.1099 -0.7033  0.1278
  984TIP3    H127147   6.260   4.173   7.934 -1.2628 -1.1630 -0.3742
  984TIP3    H227148   6.205   4.259   7.823 -0.5822  0.0819  0.2397
  985TIP3   OH227149   2.987   4.969   0.392 -0.0274  0.0496  0.6339
  985TIP3    H127150   2.922   5.006   0.452  0.4723  1.6619  0.2191
  985TIP3    H227151   2.943   4.966   0.307  0.0021 -0.0894  0.6242
  986TIP3   OH227152   3.701   4.710   6.744 -0.2840 -0.8735 -0.0485
  986TIP3    H127153   3.735   4.625   6.718  1.5261 -0.0703 -0.4749
  986TIP3    H227154   3.778   4.768   6.742 -1.2491  0.5313  1.2771
  987TIP3   OH227155   6.931   1.655   8.374 -0.1158  0.1232 -0.3586
  987TIP3    H127156   6.970   1.568   8.366 -0.4224 -0.1920  1.2475
  987TIP3    H227157   6.841   1.644   8.344 -0.6957 -0.5848  1.4800
  988TIP3   OH227158   7.103   0.382   7.677  0.9175 -0.6172 -0.2626
  988TIP3    H127159   7.135   0.377   7.767  0.6058 -1.6828 -0.1912
  988TIP3    H227160   7.037   0.451   7.678 -1.0768 -2.3987  1.0009
  989TIP3   OH227161   4.471   3.473   2.086  0.3607  0.2237  0.3137
  989TIP3    H127162   4.543   3.487   2.147 -0.4084  0.4034  1.2011
  989TIP3    H227163   4.502   3.510   2.004  1.5187 -0.2715  0.5083
  990TIP3   OH227164   1.074   0.468   7.108 -0.0319  0.0421  0.2039
  990TIP3    H127165   1.131   0.514   7.171  0.7843 -1.0291  0.2883
  990TIP3    H227166   1.097   0.506   7.023  0.5943 -0.1576  0.2757
  991TIP3   OH227167   6.347   4.972   1.181 -0.3744 -0.0140 -0.1637
  991TIP3    H127168   6.293   4.896   1.203  1.7295 -1.4999  0.2067
  991TIP3    H227169   6.373   5.008   1.266 -0.7345  0.6441 -0.3317
  992TIP3   OH227170   1.370   2.046   8.195 -0.2851 -0.0938 -0.5579
  992TIP3    H127171   1.422   1.970   8.169  1.2391  0.8958 -0.5034
  992TIP3    H227172   1.393   2.061   8.287  0.2558  1.0687 -0.8723
  993TIP3   OH227173   3.204   5.374   7.672  0.3106 -0.2591 -0.0514
  993TIP3    H127174   3.183   5.457   7.629  0.6122 -0.2842 -0.2476
  993TIP3    H227175   3.239   5.399   7.757  1.2540 -0.1486 -0.4633
  994TIP3   OH227176   2.940   3.101   2.001 -0.6948  0.0243 -0.3952
  994TIP3    H127177   2.965   3.093   2.093  0.9581  1.5976 -0.6430
  994TIP3    H227178   2.978   3.025   1.958 -2.2391 -1.2094  0.3084
  995TIP3   OH227179   5.808   2.589   8.670 -0.1351  0.2266 -0.2623
  995TIP3    H127180   5.724   2.551   8.645 -0.3036  0.6970 -0.4321
  995TIP3    H227181   5.785   2.675   8.705  0.0151 -0.6678  2.2131
  996TIP3   OH227182   2.825   1.514   9.563 -0.3388 -0.7881 -0.0553
  996TIP3    H127183   2.746   1.537   9.613 -0.7452 -0.5999 -0.7710
  996TIP3    H227184   2.840   1.422   9.584  0.0418 -0.4793  1.1332
  997TIP3   OH227185   5.810   6.041   7.966  0.0088 -0.1681  0.5817
  997TIP3    H127186   5.777   5.972   7.909 -1.9081  0.0057  1.4288
  997TIP3    H227187   5.791   6.122   7.918 -0.8656 -0.0626  1.1051
  998TIP3   OH227188   4.355   5.356   7.218 -0.2987 -0.0944 -0.1415
  998TIP3    H127189   4.402   5.399   7.290 -0.1536  2.8136 -1.8328
  998TIP3    H227190   4.351   5.422   7.149 -1.9889 -2.1654 -2.1757
  999TIP3   OH227191   1.370   5.120   7.379  0.0392 -0.2038 -0.4015
  999TIP3    H127192   1.384   5.028   7.403 -0.8021 -0.3694 -0.4956
  999TIP3    H227193   1.427   5.135   7.304 -0.6297 -0.9824 -1.0892
 1000TIP3   OH227194   2.640   4.112   7.916 -0.1481  0.2514  0.0116
 1000TIP3    H127195   2.548   4.135   7.927 -0.4870 -0.6750 -0.7386
 1000TIP3    H227196   2.666   4.157   7.835  0.2121  0.9159  0.4850
 1001TIP3   OH227197   1.013   6.481   7.830  0.0171  0.4034 -0.4677
 1001TIP3    H127198   0.954   6.441   7.894  1.8605 -1.1891  0.3398
 1001TIP3    H227199   1.003   6.575   7.843 -1.2616  0.1435  0.6193
 1002TIP3   OH227200   0.264   6.350   9.117  0.0232 -0.1457 -0.2940
 1002TIP3    H127201   0.320   6.420   9.150 -0.1369 -0.6647  1.1498
 1002TIP3    H227202   0.176   6.375   9.144 -0.3170  0.0654 -1.5147
 1003TIP3   OH227203   5.359   0.061   7.934 -0.0410  0.0100  0.2615
 1003TIP3    H127204   5.390   0.046   7.845  0.6154 -0.4695  0.5598
 1003TIP3    H227205   5.384   0.152   7.953  2.4480 -0.7292  0.9537
 1004TIP3   OH227206   1.414   0.944   9.400  0.4333  0.2015  0.3767
 1004TIP3    H127207   1.456   1.005   9.339 -1.0394  0.2570 -0.6641
 1004TIP3    H227208   1.486   0.895   9.439  1.6212  2.1467  0.7676
 1005TIP3   OH227209   0.749   6.482   1.630  0.2021  0.0712 -0.5792
 1005TIP3    H127210   0.774   6.391   1.642  0.1464  0.1790  0.4239
 1005TIP3    H227211   0.653   6.483   1.634  0.2512  0.4347  1.6204
 1006TIP3   OH227212   0.706   5.009   7.408  0.1984  0.2653 -0.0963
 1006TIP3    H127213   0.781   5.053   7.448  1.4129 -0.9138 -0.9643
 1006TIP3    H227214   0.647   4.990   7.481  0.5742  1.5216  0.5561
 1007TIP3   OH227215   0.026   3.130   2.342  0.0262  0.1179  0.4031
 1007TIP3    H127216   0.114   3.093   2.348  0.8374  2.0182  1.3396
 1007TIP3    H227217  -0.032   3.060   2.372  1.1016 -1.4725 -1.0683
 1008TIP3   OH227218   4.449   4.075   1.644  0.1873 -0.1752 -0.0812
 1008TIP3    H127219   4.478   4.118   1.725 -0.2823 -0.5760  0.3020
 1008TIP3    H227220   4.389   4.138   1.605  1.9422  0.9035 -1.1603
 1009TIP3   OH227221   2.945   5.965   7.464  0.7183 -0.2017  0.3400
 1009TIP3    H127222   2.876   5.921   7.513  2.9201 -1.5331  2.4544
 1009TIP3    H227223   3.024   5.913   7.480  2.5659  2.0599 -0.7119
 1010TIP3   OH227224   0.878   3.778   7.112 -0.0824  0.8667 -0.1930
 1010TIP3    H127225   0.819   3.788   7.037 -1.6772 -0.9815  0.7386
 1010TIP3    H227226   0.940   3.710   7.084  1.7143  2.7583 -1.1456
 1011TIP3   OH227227   5.355   5.923   9.029  0.0394 -0.3128  0.2387
 1011TIP3    H127228   5.274   5.906   9.078  0.3786 -0.7715  0.6530
 1011TIP3    H227229   5.326   5.970   8.951 -0.8599 -1.9722 -0.4941
 1012TIP3   OH227230   0.126   0.344   8.834  0.5067 -0.2030 -0.1175
 1012TIP3    H127231   0.160   0.433   8.842 -1.3400  0.4845  0.5280
 1012TIP3    H227232   0.147   0.303   8.917 -1.5865  0.7505  0.9501
 1013TIP3   OH227233   4.565   4.787   2.477  0.5367 -0.0047  0.0402
 1013TIP3    H127234   4.497   4.830   2.529  0.1099 -0.6389  0.0218
 1013TIP3    H227235   4.612   4.733   2.541 -1.6128 -2.8460 -0.5461
 1014TIP3   OH227236   6.011   1.015   1.323 -0.2544 -0.0652 -0.0140
 1014TIP3    H127237   6.051   0.944   1.272 -0.5135 -0.5146  0.4029
 1014TIP3    H227238   6.016   0.985   1.414 -0.8540  0.2125  0.1168
 1015TIP3   OH227239   0.487   6.412   0.801 -0.0120  0.5422  0.3338
 1015TIP3    H127240   0.449   6.347   0.860  1.8268  1.8825  3.2244
 1015TIP3    H227241   0.582   6.398   0.807  0.3268  2.1237 -0.6712
 1016TIP3   OH227242   5.053   2.487   6.759 -0.6453 -0.4347 -0.7171
 1016TIP3    H127243   5.124   2.424   6.757  0.8430  1.1497 -0.6526
 1016TIP3    H227244   5.092   2.566   6.796 -2.2331  0.7448 -1.4144
 1017TIP3   OH227245   6.346   1.860   1.159 -0.1263  0.3619  0.0180
 1017TIP3    H127246   6.406   1.934   1.167 -0.2231  0.2835  1.7511
 1017TIP3    H227247   6.349   1.837   1.066  3.5039 -0.4498  0.1839
 1018TIP3   OH227248   7.049   4.784   7.742 -0.3149  0.4353 -0.4115
 1018TIP3    H127249   7.009   4.714   7.792  1.1719  0.9733  1.6967
 1018TIP3    H227250   7.067   4.853   7.807  2.3153  0.9065 -1.4932
 1019TIP3   OH227251   6.069   1.182   6.628 -0.3693 -0.7047 -0.8802
 1019TIP3    H127252   6.049   1.264   6.673  0.2984 -0.2627 -1.3785
 1019TIP3    H227253   6.074   1.205   6.536  2.1663 -0.8074 -0.8339
 1020TIP3   OH227254   0.497   1.928   7.235  0.3836 -0.0359  0.5209
 1020TIP3    H127255   0.410   1.917   7.275  0.0661 -0.9001 -0.3477
 1020TIP3    H227256   0.508   2.023   7.228  0.5197  0.1639  2.7351
 1021TIP3   OH227257   4.849   4.473   8.980  0.5633  0.5827  0.0489
 1021TIP3    H127258   4.756   4.459   8.963  0.7513  0.8752 -1.4235
 1021TIP3    H227259   4.887   4.386   8.980  0.4189  0.5159 -0.3119
 1022TIP3   OH227260   5.912   3.050   7.316 -0.0215  0.6768 -0.1520
 1022TIP3    H127261   5.840   2.993   7.288 -0.0512  0.6228  0.0328
 1022TIP3    H227262   5.870   3.121   7.364  0.0545  0.6111  0.0115
 1023TIP3   OH227263   5.333   0.013   0.298 -0.5309 -0.5039  1.0518
 1023TIP3    H127264   5.396   0.077   0.263 -0.3574 -1.7087 -1.0026
 1023TIP3    H227265   5.294   0.057   0.373  1.7624  0.8283  1.5616
 1024TIP3   OH227266   5.263   3.094   7.126 -0.5036  0.4670 -0.2034
 1024TIP3    H127267   5.302   3.047   7.053  0.0002  1.2900 -0.4765
 1024TIP3    H227268   5.298   3.183   7.119 -0.6632  0.6272  0.8731
 1025TIP3   OH227269   5.854   5.312   0.625  0.2861 -0.5605 -0.3769
 1025TIP3    H127270   5.795   5.272   0.561 -0.5350 -0.9383  0.5827
 1025TIP3    H227271   5.846   5.257   0.702 -0.6016  1.2249  0.8747
 1026TIP3   OH227272   0.798   3.496   8.898  0.6320  0.6972 -0.3085
 1026TIP3    H127273   0.892   3.502   8.916  0.6386 -0.6702  0.2360
 1026TIP3    H227274   0.787   3.539   8.813  1.8203  0.4821 -0.5893
 1027TIP3   OH227275   1.681   5.635   7.875 -0.2214 -0.4785 -0.0240
 1027TIP3    H127276   1.615   5.615   7.808  0.3606  1.7009 -1.3336
 1027TIP3    H227277   1.652   5.586   7.952 -3.4760  0.5013 -0.4685
 1028TIP3   OH227278   6.456   6.398   8.101  0.5594 -0.0755 -0.2615
 1028TIP3    H127279   6.415   6.387   8.187 -0.0581  1.1519 -0.3760
 1028TIP3    H227280   6.413   6.333   8.045 -0.5781  0.5493 -0.1466
 1029TIP3   OH227281   2.679   6.557   2.695 -0.0970 -0.4050 -0.0580
 1029TIP3    H127282   2.745   6.548   2.764 -0.2775 -0.9728  0.0417
 1029TIP3    H227283   2.709   6.496   2.626 -1.6015 -2.2388  0.8300
 1030TIP3   OH227284   6.691   3.776   0.259  0.1634  0.0546  0.0888
 1030TIP3    H127285   6.637   3.699   0.242  1.5037 -0.5125 -1.9482
 1030TIP3    H227286   6.774   3.740   0.290  0.2282  0.7906  0.8044
 1031TIP3   OH227287   2.066   4.087   7.586 -0.3511 -0.1028  0.2574
 1031TIP3    H127288   2.139   4.088   7.524 -0.8201 -0.6099 -0.3036
 1031TIP3    H227289   1.992   4.121   7.537 -0.5502  0.1901  0.7605
 1032TIP3   OH227290   6.632   3.477   2.114 -0.0290  0.1616 -0.3938
 1032TIP3    H127291   6.702   3.413   2.114 -2.1600 -2.3342 -0.7111
 1032TIP3    H227292   6.643   3.524   2.031  0.1289 -1.5987 -1.4286
 1033TIP3   OH227293   2.937   4.286   0.939 -0.0770  0.0180 -0.2571
 1033TIP3    H127294   3.008   4.243   0.987 -1.4533 -0.4317  1.4834
 1033TIP3    H227295   2.916   4.227   0.868 -0.5202 -1.2150  0.8570
 1034TIP3   OH227296   6.792   4.453   8.234 -0.3675 -0.3218 -0.1083
 1034TIP3    H127297   6.846   4.416   8.164 -0.5704 -0.4933 -0.1763
 1034TIP3    H227298   6.761   4.536   8.199  0.6004  0.2263  0.2818
 1035TIP3   OH227299   4.440   3.427   6.825 -0.2934 -0.1073 -0.2365
 1035TIP3    H127300   4.502   3.412   6.896  0.4698  0.4270 -0.7864
 1035TIP3    H227301   4.354   3.411   6.865  0.1952 -1.0559  0.4762
 1036TIP3   OH227302   2.316   1.817   8.144  0.0701  0.3406  0.0404
 1036TIP3    H127303   2.244   1.867   8.182 -1.0986 -1.4389  0.2725
 1036TIP3    H227304   2.316   1.842   8.051 -1.1372  0.0599 -0.0517
 1037TIP3   OH227305   2.023   2.428   9.021 -0.3578  0.2476 -0.2378
 1037TIP3    H127306   1.991   2.434   8.931  0.3868 -0.4704 -0.5748
 1037TIP3    H227307   2.096   2.365   9.015  1.3988  2.1287  0.3931
 1038TIP3   OH227308   1.922   2.840   8.084  0.5559 -0.1669 -0.4643
 1038TIP3    H127309   1.959   2.835   8.172 -2.3018  1.5558  0.9636
 1038TIP3    H227310   1.912   2.749   8.057 -0.1058 -0.8014  1.7311
 1039TIP3   OH227311   6.813   3.918   9.545 -0.1874  0.6209  0.0181
 1039TIP3    H127312   6.747   3.934   9.613 -0.1271  0.9706 -0.0035
 1039TIP3    H227313   6.787   3.976   9.473  0.1739  0.7998  0.0310
 1040TIP3   OH227314   1.980   0.195   2.242 -0.7887  0.0654  0.1248
 1040TIP3    H127315   1.899   0.192   2.295  0.2832  0.5761  1.8924
 1040TIP3    H227316   2.049   0.213   2.306  0.9682 -1.9556 -1.0808
 1041TIP3   OH227317   6.060   0.172   7.487  0.0536 -0.5224 -0.8189
 1041TIP3    H127318   5.967   0.149   7.485 -0.3687  1.1250 -1.5661
 1041TIP3    H227319   6.098   0.112   7.551 -1.2446 -2.1960 -1.5359
 1042TIP3   OH227320   6.812   5.401   0.687  0.0111  0.0568 -0.0848
 1042TIP3    H127321   6.723   5.432   0.674  0.2040  0.9724  0.6669
 1042TIP3    H227322   6.848   5.457   0.756  1.8030  1.0120 -1.6850
 1043TIP3   OH227323   3.595   3.647   8.245  1.2769  0.2554 -0.3120
 1043TIP3    H127324   3.683   3.620   8.271  1.0619 -2.2116 -1.8521
 1043TIP3    H227325   3.545   3.645   8.326  1.9792 -1.2587  0.1190
 1044TIP3   OH227326   0.884   6.938   8.104  0.4549  0.1902  0.1657
 1044TIP3    H127327   0.958   6.937   8.043  2.0201  2.3060  1.8880
 1044TIP3    H227328   0.819   6.994   8.063 -0.3592 -1.7753 -1.4159
 1045TIP3   OH227329   6.655   3.203   1.147 -0.4412  0.0637  0.0045
 1045TIP3    H127330   6.661   3.120   1.195 -0.5069  1.0661  1.8093
 1045TIP3    H227331   6.584   3.251   1.190  1.1348  2.0124  0.5660
 1046TIP3   OH227332   6.361   6.722   6.751 -0.0972 -0.4074 -0.0224
 1046TIP3    H127333   6.444   6.710   6.796  0.2293  0.2940 -0.4174
 1046TIP3    H227334   6.342   6.816   6.759 -0.3141 -0.3699 -0.8439
 1047TIP3   OH227335   1.795   0.699   2.042  0.3103 -0.5067 -0.5457
 1047TIP3    H127336   1.746   0.647   1.979 -0.1961 -0.7328  0.0249
 1047TIP3    H227337   1.880   0.713   2.000 -0.3978  0.3242 -1.7746
 1048TIP3   OH227338   0.488   1.293   9.125  0.4119 -0.2362  0.3903
 1048TIP3    H127339   0.504   1.290   9.219 -0.2081 -2.3283  0.4869
 1048TIP3    H227340   0.514   1.381   9.098 -1.5176  1.2153  2.9016
 1049TIP3   OH227341   2.409   4.051   9.558 -0.2255 -0.2229  0.1008
 1049TIP3    H127342   2.451   4.028   9.475  0.2075  2.1556 -0.4288
 1049TIP3    H227343   2.474   4.106   9.603 -1.5214  0.8698  0.7045
 1050TIP3   OH227344   1.069   2.755   1.069  0.0117 -0.4908 -0.4796
 1050TIP3    H127345   1.072   2.669   1.027 -1.4831 -1.4802  1.2871
 1050TIP3    H227346   1.040   2.737   1.159  2.5220  1.5746  0.8627
 1051TIP3   OH227347   0.259   4.867   1.950  0.1847  0.2720  0.8610
 1051TIP3    H127348   0.349   4.863   1.982  0.2973 -1.8981  0.4567
 1051TIP3    H227349   0.207   4.891   2.026  1.2673  4.2110  0.5637
 1052TIP3   OH227350   5.027   1.134   1.098  0.1547 -0.1283  0.2262
 1052TIP3    H127351   4.990   1.222   1.085  1.6470  0.4602 -0.2327
 1052TIP3    H227352   5.103   1.148   1.154 -0.0991 -1.2687  0.8896
 1053TIP3   OH227353   6.378   2.983   0.513  0.8696  1.0736  0.1466
 1053TIP3    H127354   6.358   3.006   0.603  0.5185  0.9527  0.0993
 1053TIP3    H227355   6.360   2.889   0.507  3.0961  0.5474  0.5747
 1054TIP3   OH227356   1.009   5.742   1.778 -0.4700  0.2235  0.1349
 1054TIP3    H127357   0.981   5.651   1.775  0.2095 -0.1146  2.3759
 1054TIP3    H227358   0.933   5.789   1.814 -0.1993  0.2481  0.6787
 1055TIP3   OH227359   4.941   1.601   8.287  0.6973 -0.1965  0.3323
 1055TIP3    H127360   4.961   1.563   8.202 -1.2182 -1.4155  0.3593
 1055TIP3    H227361   4.981   1.541   8.350 -0.6134 -1.1412  0.3199
 1056TIP3   OH227362   4.869   0.079   0.080  0.4766 -0.0414 -0.6057
 1056TIP3    H127363   4.805   0.138   0.041 -0.0292 -0.0804  0.1362
 1056TIP3    H227364   4.888   0.118   0.166 -1.4378 -1.9700  0.8244
 1057TIP3   OH227365   7.314   6.436   2.955  0.5910 -0.3193 -0.2487
 1057TIP3    H127366   7.276   6.524   2.961  1.8010  0.2003  0.2246
 1057TIP3    H227367   7.312   6.403   3.044  1.8325 -0.0025 -0.0801
 1058TIP3   OH227368   6.273   6.821   0.228  0.1836 -0.6846  0.3711
 1058TIP3    H127369   6.194   6.773   0.252 -0.4927 -0.2445 -0.9271
 1058TIP3    H227370   6.247   6.913   0.227  1.2854 -0.2982  2.0944
 1059TIP3   OH227371   3.227   1.461   2.123 -0.4727  0.0911  0.1071
 1059TIP3    H127372   3.304   1.502   2.163 -1.4301  1.4651  0.6082
 1059TIP3    H227373   3.250   1.368   2.117  1.8489  0.6884 -1.2623
 1060TIP3   OH227374   0.273   0.799   2.916  0.2208 -0.2487  0.5516
 1060TIP3    H127375   0.310   0.728   2.862  1.2812 -0.5659  1.6482
 1060TIP3    H227376   0.346   0.827   2.971 -0.5043  0.9350  0.9400
 1061TIP3   OH227377   6.430   7.136   0.286  0.0341 -0.6789 -0.0200
 1061TIP3    H127378   6.386   7.183   0.356 -0.3043  1.3868 -1.5410
 1061TIP3    H227379   6.523   7.141   0.309  0.0644  1.2695 -0.4073
 1062TIP3   OH227380   6.723   5.422   7.213 -0.4217 -0.2049 -0.3267
 1062TIP3    H127381   6.661   5.355   7.185 -0.3605 -0.4067  0.0145
 1062TIP3    H227382   6.731   5.480   7.137 -0.1698 -0.8022 -0.7715
 1063TIP3   OH227383   2.826   0.363   1.990  0.1646 -0.3120  0.2723
 1063TIP3    H127384   2.818   0.306   2.066 -1.4151 -2.1935 -1.2004
 1063TIP3    H227385   2.894   0.324   1.937 -1.1522 -1.1076 -0.9043
 1064TIP3   OH227386   7.336   6.006   2.983 -0.5004  0.3877 -0.0561
 1064TIP3    H127387   7.423   6.041   2.960  1.1960 -2.5725  1.3479
 1064TIP3    H227388   7.329   6.021   3.077 -1.1556 -0.1789 -0.0142
 1065TIP3   OH227389   3.367   1.390   7.002 -0.1031 -0.3588  0.0804
 1065TIP3    H127390   3.426   1.383   7.078  0.5632 -3.7377 -0.5557
 1065TIP3    H227391   3.403   1.461   6.950  0.8829  0.4282  1.7349
 1066TIP3   OH227392   2.150   4.038   7.125  0.2569 -0.2642 -0.1082
 1066TIP3    H127393   2.146   4.130   7.098  0.1748  0.3244  1.7795
 1066TIP3    H227394   2.221   4.001   7.073  0.8881  1.1053 -0.2569
 1067TIP3   OH227395   6.820   7.331   0.304  0.3015 -0.0142 -0.6778
 1067TIP3    H127396   6.764   7.386   0.358  1.9499  0.2085  0.9005
 1067TIP3    H227397   6.781   7.243   0.313 -0.4177  0.3072 -0.5146
 1068TIP3   OH227398   3.354   5.784   1.370  0.0254 -0.3328  0.2373
 1068TIP3    H127399   3.412   5.742   1.434  1.2349 -0.6661 -1.0274
 1068TIP3    H227400   3.282   5.722   1.359  1.1654 -1.5455 -0.6835
 1069TIP3   OH227401   2.631   4.000   2.309 -0.1444 -0.0159  0.4171
 1069TIP3    H127402   2.564   4.016   2.243 -0.4436  1.4160  1.0099
 1069TIP3    H227403   2.673   3.918   2.283 -0.0564  0.6473 -1.7082
 1070TIP3   OH227404   6.590   1.384   1.417  0.5872 -0.2035 -0.3599
 1070TIP3    H127405   6.675   1.339   1.412  0.7547 -0.0379  0.6344
 1070TIP3    H227406   6.583   1.410   1.509 -0.0116  0.8216 -0.6796
 1071TIP3   OH227407   0.525   4.332   0.517  0.4154 -0.2693 -0.6016
 1071TIP3    H127408   0.533   4.237   0.518 -1.4623 -0.4918  1.3986
 1071TIP3    H227409   0.443   4.348   0.471 -0.0087  0.2598  0.3057
 1072TIP3   OH227410   7.047   7.053   2.321 -0.1387 -0.2445 -0.6364
 1072TIP3    H127411   7.054   7.127   2.381  0.6899 -0.1318 -0.8657
 1072TIP3    H227412   7.031   6.977   2.377  1.9647 -0.3602 -0.1290
 1073TIP3   OH227413   0.918   1.161   1.452  0.1737  0.1435 -0.6857
 1073TIP3    H127414   0.893   1.079   1.409  0.3676  0.9055 -2.3045
 1073TIP3    H227415   0.960   1.212   1.384  0.6432  1.3503  0.4684
 1074TIP3   OH227416   1.451   4.549   2.162 -0.0980 -0.2379 -0.8589
 1074TIP3    H127417   1.474   4.595   2.243  1.0710 -0.8066 -0.8375
 1074TIP3    H227418   1.535   4.536   2.117 -0.3080 -2.6513 -0.6943
 1075TIP3   OH227419   0.229   0.306   8.417  0.1607 -0.0557 -0.0373
 1075TIP3    H127420   0.250   0.356   8.338 -0.1567  1.0236  0.5455
 1075TIP3    H227421   0.305   0.319   8.474 -0.4877  0.9121  0.6503
 1076TIP3   OH227422   5.889   5.571   7.496  0.0555 -0.2894  0.0440
 1076TIP3    H127423   5.862   5.504   7.433 -0.6288  0.2736 -0.2661
 1076TIP3    H227424   5.814   5.630   7.503  1.2310  1.4014 -0.9750
 1077TIP3   OH227425   1.942   6.420   7.516 -0.3614  0.2906  0.2401
 1077TIP3    H127426   1.920   6.405   7.608  2.7980 -0.8049  0.9594
 1077TIP3    H227427   2.035   6.396   7.509 -0.6617 -0.4749 -3.4374
 1078TIP3   OH227428   4.740   4.315   0.685 -0.1244  0.4600 -0.2360
 1078TIP3    H127429   4.658   4.360   0.709  0.1482  0.2934  1.0876
 1078TIP3    H227430   4.809   4.376   0.711  0.2834 -0.9083  2.2612
 1079TIP3   OH227431   0.236   0.827   8.098 -0.3493  0.2820 -0.0290
 1079TIP3    H127432   0.247   0.920   8.116  0.1768  0.2270 -0.0599
 1079TIP3    H227433   0.218   0.787   8.183  1.6534  0.0919  0.3577
 1080TIP3   OH227434   6.539   5.209   6.873 -0.0639 -0.5026  0.3350
 1080TIP3    H127435   6.548   5.229   6.966  1.6426 -0.2125  0.1380
 1080TIP3    H227436   6.511   5.118   6.870 -0.4291 -0.4220  1.1323
 1081TIP3   OH227437   3.182   0.933   7.024  0.0411 -0.3322 -0.2896
 1081TIP3    H127438   3.264   0.883   7.022  0.5591  0.5006 -1.9152
 1081TIP3    H227439   3.188   0.986   7.103  1.9145  0.9582 -1.2076
 1082TIP3   OH227440   0.500   6.840   7.377 -0.6815  0.4803  0.0432
 1082TIP3    H127441   0.412   6.825   7.344 -1.4270  1.5038  1.4279
 1082TIP3    H227442   0.537   6.907   7.319 -0.5506 -0.4256 -0.9375
 1083TIP3   OH227443   7.265   1.675   1.050  0.0967  0.2902  0.4823
 1083TIP3    H127444   7.230   1.588   1.033  0.5789  0.0575  0.6722
 1083TIP3    H227445   7.269   1.716   0.964 -0.7801  0.3814  0.4697
 1084TIP3   OH227446   2.242   4.890   0.605 -0.1536  0.0373 -0.2293
 1084TIP3    H127447   2.149   4.910   0.617 -0.0675  0.9896 -1.0078
 1084TIP3    H227448   2.244   4.838   0.525 -0.2031 -1.7583  0.8912
 1085TIP3   OH227449   1.127   2.743   7.589  0.2373 -0.3839 -0.2539
 1085TIP3    H127450   1.203   2.789   7.626 -1.4356  0.7256  2.0910
 1085TIP3    H227451   1.111   2.787   7.505  1.3500  0.2919 -0.1411
 1086TIP3   OH227452   3.786   0.054   7.567 -0.4272  1.0314 -0.1527
 1086TIP3    H127453   3.814   0.073   7.657 -1.7670 -0.8011  0.7194
 1086TIP3    H227454   3.855  -0.002   7.532 -0.9828 -0.1981  0.6143
 1087TIP3   OH227455   1.022   5.765   9.174 -0.0526  0.4557 -0.2873
 1087TIP3    H127456   1.107   5.743   9.138  0.3972  0.8463  0.5141
 1087TIP3    H227457   1.018   5.719   9.258  0.0896  1.7727  0.4767
 1088TIP3   OH227458   2.434   1.905   0.237  0.6925  0.0931  0.1320
 1088TIP3    H127459   2.416   1.885   0.329 -1.3051 -1.1879 -0.4700
 1088TIP3    H227460   2.353   1.947   0.206  1.0749 -0.1277 -1.2054
 1089TIP3   OH227461   1.902   0.352   2.034 -0.3386  0.5164 -0.1225
 1089TIP3    H127462   1.924   0.267   2.074 -3.2144 -0.8482 -1.1220
 1089TIP3    H227463   1.874   0.406   2.108 -1.2114 -0.4164  0.2641
 1090TIP3   OH227464   7.120   6.936   7.698  0.6999  0.0626 -0.2443
 1090TIP3    H127465   7.133   7.027   7.670  0.3165 -0.1276 -1.0630
 1090TIP3    H227466   7.171   6.929   7.779  0.3900  1.1254  0.0671
 1091TIP3   OH227467   1.377   2.238   0.418  0.4148  0.0624  0.1757
 1091TIP3    H127468   1.358   2.331   0.406  0.5486  0.1588  0.7022
 1091TIP3    H227469   1.291   2.196   0.423  0.3536  0.2376  0.5610
 1092TIP3   OH227470   3.740   1.494   8.297 -0.0679  0.5495  0.9334
 1092TIP3    H127471   3.835   1.486   8.309  0.3400  0.9310 -1.6037
 1092TIP3    H227472   3.703   1.443   8.369  2.0058  1.6316  2.9130
 1093TIP3   OH227473   0.525   1.926   0.919 -0.3070 -0.1128  0.3117
 1093TIP3    H127474   0.518   2.020   0.934  0.9943  0.0807 -0.1434
 1093TIP3    H227475   0.602   1.899   0.968  0.6561 -0.5100 -1.3218
 1094TIP3   OH227476   2.056   6.734   7.623 -0.0903  0.3118  0.2741
 1094TIP3    H127477   2.055   6.705   7.714  0.4378 -2.0924 -0.4202
 1094TIP3    H227478   2.131   6.793   7.618  0.3406 -0.1284  1.2455
 1095TIP3   OH227479   4.970   4.036   1.878 -0.1177  0.0499  0.4029
 1095TIP3    H127480   4.933   4.012   1.963  1.3225 -0.2104  0.9897
 1095TIP3    H227481   5.030   4.108   1.897  2.4593 -1.8716  0.1667
 1096TIP3   OH227482   0.344   5.404   7.662  0.2630 -0.4774  0.5765
 1096TIP3    H127483   0.408   5.463   7.622 -0.9617  1.4594  1.3570
 1096TIP3    H227484   0.271   5.403   7.600  0.0407 -0.7071  0.8422
 1097TIP3   OH227485   7.296   0.969   7.707 -0.6970 -0.4922 -0.2333
 1097TIP3    H127486   7.318   0.879   7.682 -2.5199 -0.5633 -1.8809
 1097TIP3    H227487   7.325   1.022   7.633  0.8926  0.4002  0.9830
 1098TIP3   OH227488   4.084   3.894   8.179  0.1411 -0.1439 -0.2886
 1098TIP3    H127489   4.177   3.873   8.186  0.4558  1.2195 -0.0588
 1098TIP3    H227490   4.040   3.809   8.178  1.3046 -0.7998  0.8532
 1099TIP3   OH227491   6.440   4.285   7.403 -0.4756  0.3177 -0.1862
 1099TIP3    H127492   6.418   4.257   7.492 -0.4454  1.1007  0.0698
 1099TIP3    H227493   6.536   4.277   7.398 -0.3301  1.6536  0.3305
 1100TIP3   OH227494   6.092   4.446   7.321 -0.1157 -0.1487 -0.8846
 1100TIP3    H127495   6.166   4.506   7.322 -0.0003 -0.2780  0.4912
 1100TIP3    H227496   6.031   4.482   7.386  0.8893 -2.5832  1.6202
 1101TIP3   OH227497   3.008   4.504   1.160 -0.1599  0.4019  0.3089
 1101TIP3    H127498   3.103   4.492   1.160 -0.1648  0.3317 -0.3012
 1101TIP3    H227499   2.975   4.439   1.098 -0.5810  0.6106  0.3046
 1102TIP3   OH227500   1.778   3.552   0.821 -0.1376 -0.6153  0.3413
 1102TIP3    H127501   1.788   3.534   0.915 -0.2043  0.1331  0.5005
 1102TIP3    H227502   1.686   3.573   0.810 -0.2356 -1.1820  0.0115
 1103TIP3   OH227503   1.107   3.043   9.006  0.0806 -0.2383 -0.2070
 1103TIP3    H127504   1.075   2.999   9.085 -1.4446 -0.0894 -0.7103
 1103TIP3    H227505   1.165   2.980   8.964 -0.8733 -1.1741 -0.1325
 1104TIP3   OH227506   1.713   6.415   1.166  0.1332 -0.5381 -0.1459
 1104TIP3    H127507   1.782   6.422   1.100  0.1933 -0.7113 -0.1014
 1104TIP3    H227508   1.701   6.505   1.197  0.6509 -0.5740  0.1672
 1105TIP3   OH227509   1.027   2.936   1.766  0.1866 -0.4816 -0.4540
 1105TIP3    H127510   1.048   2.914   1.857 -1.1432  1.3907  0.3693
 1105TIP3    H227511   1.095   2.893   1.715  0.5945 -2.1372  1.3617
 1106TIP3   OH227512   2.057   7.315   7.864  0.3134 -0.4697  0.1621
 1106TIP3    H127513   1.988   7.255   7.838  1.7374 -1.7905 -0.7406
 1106TIP3    H227514   2.086   7.356   7.782  1.3100 -0.7464  0.3624
 1107TIP3   OH227515   2.336   2.162   0.621 -0.0986  0.1325  0.0428
 1107TIP3    H127516   2.275   2.090   0.640 -0.4306  0.2617 -0.5039
 1107TIP3    H227517   2.398   2.160   0.693  0.1640 -0.9931 -0.1959
 1108TIP3   OH227518   1.659   2.187   8.834 -0.2119  0.1191  0.1483
 1108TIP3    H127519   1.644   2.268   8.882 -1.6253  0.4831 -0.8429
 1108TIP3    H227520   1.574   2.144   8.832  0.3654 -1.0667  0.0489
 1109TIP3   OH227521   4.438   3.081   0.029 -0.1314 -0.3102 -0.1407
 1109TIP3    H127522   4.369   3.069   0.094 -2.0166  0.2354 -1.9169
 1109TIP3    H227523   4.411   3.158  -0.021  2.2250  0.4200 -0.4165
 1110TIP3   OH227524   1.822   3.024   3.134 -0.0829 -0.2847 -0.1302
 1110TIP3    H127525   1.813   2.939   3.091 -0.6450 -0.6243  0.6375
 1110TIP3    H227526   1.888   3.009   3.202  0.6721  0.2013 -0.7489
 1111TIP3   OH227527   4.399   2.538   7.778  0.3334  0.4845 -0.4963
 1111TIP3    H127528   4.334   2.599   7.742 -1.3661 -0.8585  0.1373
 1111TIP3    H227529   4.368   2.522   7.868  0.7833 -1.2090 -0.6149
 1112TIP3   OH227530   1.632   6.362   7.449 -0.6506 -0.0100  0.8364
 1112TIP3    H127531   1.645   6.305   7.525  0.5023 -0.7276  0.1370
 1112TIP3    H227532   1.695   6.330   7.385 -2.4081 -0.1840 -0.8803
 1113TIP3   OH227533   7.236   2.624   8.306  0.8630  0.2808  0.5289
 1113TIP3    H127534   7.255   2.659   8.219  0.2204  1.0600  0.6927
 1113TIP3    H227535   7.320   2.625   8.352  0.9724  1.0125  0.3162
 1114TIP3   OH227536   5.379   6.740   9.233 -0.2375 -0.7520 -0.1243
 1114TIP3    H127537   5.390   6.705   9.321  2.3142  0.3762  0.0877
 1114TIP3    H227538   5.289   6.773   9.231  0.0346  0.3722  2.5154
 1115TIP3   OH227539   2.599   2.939   0.767 -0.3161  0.2775 -0.0232
 1115TIP3    H127540   2.650   2.869   0.809 -1.9516 -2.2722 -2.0558
 1115TIP3    H227541   2.662   2.983   0.711  0.2473 -1.1955 -0.5952
 1116TIP3   OH227542   6.275   0.730   8.656 -0.5538  0.4463 -0.5493
 1116TIP3    H127543   6.191   0.691   8.633  0.2266 -0.3635 -2.1591
 1116TIP3    H227544   6.283   0.806   8.597 -0.1847  0.5564 -0.3614
 1117TIP3   OH227545   7.197   1.037   9.044  0.2170  0.2952 -0.0145
 1117TIP3    H127546   7.199   1.126   9.077 -0.6041  0.5438 -0.6179
 1117TIP3    H227547   7.187   0.982   9.122  0.2426  0.7558  0.3112
 1118TIP3   OH227548   2.150   4.577   0.044 -0.2130  0.0843 -0.1432
 1118TIP3    H127549   2.244   4.599   0.050 -0.0196  0.1940 -2.6595
 1118TIP3    H227550   2.106   4.662   0.049 -0.0711  0.1793 -0.4575
 1119TIP3   OH227551   1.299   5.144   1.924 -0.1738  0.7008 -0.6360
 1119TIP3    H127552   1.235   5.141   1.853  0.6221 -0.3832 -1.3463
 1119TIP3    H227553   1.342   5.058   1.921  0.2831  0.8481  0.7861
 1120TIP3   OH227554   6.150   3.560   7.188  0.6103  0.2664 -0.2606
 1120TIP3    H127555   6.198   3.536   7.109  1.8403 -0.9999  0.7943
 1120TIP3    H227556   6.063   3.585   7.158  0.8083 -0.9064 -1.9492
 1121TIP3   OH227557   3.189   5.685   2.472 -0.6552 -0.4738  0.1572
 1121TIP3    H127558   3.102   5.678   2.432 -0.0348 -0.3126 -1.2955
 1121TIP3    H227559   3.172   5.698   2.565 -2.1626 -1.9514  0.1465
 1122TIP3   OH227560   6.308   5.957   1.525  0.1277  0.1194  0.4084
 1122TIP3    H127561   6.234   6.003   1.487 -0.7599 -0.6316  1.1916
 1122TIP3    H227562   6.319   5.879   1.471  0.5818  0.4002  0.0843
 1123TIP3   OH227563   5.019   6.694   2.050 -0.3102  0.5395  0.1256
 1123TIP3    H127564   5.103   6.735   2.030  0.4340 -0.7317  0.5315
 1123TIP3    H227565   5.024   6.674   2.143 -0.4801 -0.8110 -0.1332
 1124TIP3   OH227566   3.636   3.237   8.220 -0.3146 -0.0667 -0.2922
 1124TIP3    H127567   3.540   3.239   8.219 -0.3377 -0.5072  0.1654
 1124TIP3    H227568   3.657   3.144   8.217  0.0577 -0.0548  1.1601
 1125TIP3   OH227569   6.651   1.755   8.588 -0.3632  0.9337 -0.2852
 1125TIP3    H127570   6.710   1.783   8.518  0.7357 -0.5765 -0.0357
 1125TIP3    H227571   6.570   1.732   8.543  1.7056 -4.6909 -2.1162
 1126TIP3   OH227572   3.410   6.461   1.171 -0.1755 -0.3935 -0.6769
 1126TIP3    H127573   3.426   6.549   1.137 -0.9792 -0.1699 -0.4855
 1126TIP3    H227574   3.493   6.437   1.212 -0.7754  1.4574  1.8719
 1127TIP3   OH227575   1.343   5.197   6.203 -0.2932  0.0958  0.2679
 1127TIP3    H127576   1.323   5.240   6.286 -1.0932 -0.6229  0.4679
 1127TIP3    H227577   1.321   5.105   6.217 -2.0675  0.2106 -1.2115
 1128TIP3   OH227578   2.825   3.977   1.136  0.1409  0.0725 -0.3036
 1128TIP3    H127579   2.787   4.009   1.055  1.1895 -0.5629 -1.0824
 1128TIP3    H227580   2.849   3.886   1.117  0.4962 -0.0597  0.6869
 1129TIP3   OH227581   6.547   0.838   8.112  0.4814 -0.4820  0.0082
 1129TIP3    H127582   6.588   0.760   8.074  0.2277 -1.3893  1.5096
 1129TIP3    H227583   6.474   0.804   8.164  0.5122  0.7236  0.8912
 1130TIP3   OH227584   3.539   7.414   1.238  0.3298 -0.2867 -0.3361
 1130TIP3    H127585   3.517   7.436   1.147  2.2092  1.2047 -0.4812
 1130TIP3    H227586   3.512   7.491   1.288  0.5019 -0.5612  0.1821
 1131TIP3   OH227587   7.418   0.200   1.116 -0.0340  0.1444 -0.1221
 1131TIP3    H127588   7.419   0.211   1.212 -1.6037  0.3858 -0.1153
 1131TIP3    H227589   7.326   0.183   1.095  0.4272 -0.7599 -1.5118
 1132TIP3   OH227590   0.948   6.715   9.229 -0.7877 -0.2153  0.3849
 1132TIP3    H127591   0.951   6.665   9.311 -2.6493 -0.1544  0.5450
 1132TIP3    H227592   1.022   6.683   9.178  0.0614 -0.6758  1.8575
 1133TIP3   OH227593   5.705   1.029   7.063 -0.4454 -0.0091  0.8567
 1133TIP3    H127594   5.610   1.040   7.055 -0.4439 -0.4398  0.0882
 1133TIP3    H227595   5.725   0.953   7.008  0.4108  0.3811  0.6091
 1134TIP3   OH227596   0.955   3.380   0.774 -0.3716 -0.4884  0.3035
 1134TIP3    H127597   0.940   3.473   0.787  0.6494 -0.2436 -0.1542
 1134TIP3    H227598   1.030   3.359   0.830  0.1610 -0.7611 -0.4899
 1135TIP3   OH227599   3.445   5.331   9.631  0.1974  0.2449 -0.7464
 1135TIP3    H127600   3.466   5.253   9.681  0.1290 -0.0848 -1.2309
 1135TIP3    H227601   3.528   5.358   9.591  0.1049  0.0823 -1.0522
 1136TIP3   OH227602   2.409   1.490   1.009 -0.3780  0.6238  0.3148
 1136TIP3    H127603   2.403   1.544   1.088 -0.3687 -0.2806  0.9483
 1136TIP3    H227604   2.469   1.538   0.953  1.2643  0.2996  1.6981
 1137TIP3   OH227605   1.072   3.320   8.946 -0.3401 -0.2933 -0.3450
 1137TIP3    H127606   1.108   3.233   8.967  1.2624  0.0105 -1.5501
 1137TIP3    H227607   1.051   3.314   8.853 -1.7808  0.1320 -0.0626
 1138TIP3   OH227608   0.421   4.887   1.286 -0.3168  0.4647 -0.1961
 1138TIP3    H127609   0.411   4.929   1.200 -0.2378  2.2347  0.6057
 1138TIP3    H227610   0.414   4.960   1.348 -2.1156 -0.9815  1.4026
 1139TIP3   OH227611   3.965   3.100   6.998  0.3234  0.4257  0.0231
 1139TIP3    H127612   3.933   3.065   7.081 -0.5606 -0.1346 -0.5394
 1139TIP3    H227613   3.966   3.195   7.011 -2.3511  0.5350 -0.1741
 1140TIP3   OH227614   2.111   4.503   2.318  0.1758  0.4421  0.1174
 1140TIP3    H127615   2.172   4.569   2.353  1.0566  0.6228 -1.6710
 1140TIP3    H227616   2.068   4.547   2.245 -1.1326 -0.1543  0.5038
 1141TIP3   OH227617   5.744   0.399   8.151 -0.0580  0.2277  0.0165
 1141TIP3    H127618   5.704   0.351   8.224  0.3720  1.3322  1.0038
 1141TIP3    H227619   5.764   0.331   8.086  1.2575 -1.0804  1.6841
 1142TIP3   OH227620   0.665   3.865   1.008  0.8842  0.4434 -0.8945
 1142TIP3    H127621   0.601   3.903   1.068  1.5999 -2.1235  1.7105
 1142TIP3    H227622   0.742   3.921   1.017  1.3461 -0.4673  1.5408
 1143TIP3   OH227623   0.109   2.174   7.888 -0.2103 -0.0718 -0.0283
 1143TIP3    H127624   0.108   2.257   7.935 -0.0829 -0.3923  0.5422
 1143TIP3    H227625   0.172   2.120   7.935 -1.4135 -1.0289  0.5240
 1144TIP3   OH227626   5.656   3.155   1.804 -0.3326 -0.3009 -0.2680
 1144TIP3    H127627   5.653   3.101   1.883 -0.8182  0.7749  0.4828
 1144TIP3    H227628   5.575   3.135   1.758  0.2621 -1.4265 -0.8484
 1145TIP3   OH227629   4.464   5.988   8.578 -0.3283 -0.5824 -0.3827
 1145TIP3    H127630   4.409   5.968   8.502 -0.3042  0.7519 -0.7755
 1145TIP3    H227631   4.458   5.910   8.633 -0.8544 -1.3262 -1.4522
 1146TIP3   OH227632   3.029   1.048   9.225 -0.2012 -0.5584 -0.0754
 1146TIP3    H127633   3.070   1.046   9.311  2.6489 -1.4809 -1.3235
 1146TIP3    H227634   3.082   1.109   9.174 -1.1196 -0.8875 -1.4971
 1147TIP3   OH227635   4.843   4.385   7.413 -0.1365  0.0054 -0.0515
 1147TIP3    H127636   4.859   4.292   7.400  1.3617  0.3989 -1.4048
 1147TIP3    H227637   4.900   4.410   7.487 -1.6153 -0.3961  1.2689
 1148TIP3   OH227638   3.822   6.773   7.452 -0.3508 -0.0700  0.5038
 1148TIP3    H127639   3.767   6.782   7.374 -1.5193 -1.4093  1.1300
 1148TIP3    H227640   3.902   6.730   7.419 -0.2211  0.6682 -0.1813
 1149TIP3   OH227641   6.264   6.830   0.791 -0.1404  0.3210  0.2165
 1149TIP3    H127642   6.222   6.848   0.707  1.8253  1.7433 -0.5320
 1149TIP3    H227643   6.357   6.838   0.773  0.3520  0.0362  2.4174
 1150TIP3   OH227644   1.179   6.338   1.682  0.3685 -0.4050  0.2519
 1150TIP3    H127645   1.185   6.428   1.712  1.9912 -0.5451  0.4052
 1150TIP3    H227646   1.160   6.345   1.589  1.1134  0.1129  0.1319
 1151TIP3   OH227647   4.927   5.828   1.491 -0.1282  0.0884  0.2328
 1151TIP3    H127648   5.015   5.865   1.493  0.0046 -0.2411  1.0544
 1151TIP3    H227649   4.923   5.777   1.410  0.6595 -0.4153  0.5038
 1152TIP3   OH227650   2.812   3.795   2.289  0.3337 -0.0912 -0.4811
 1152TIP3    H127651   2.888   3.853   2.292  0.0807  0.2062  0.3613
 1152TIP3    H227652   2.795   3.772   2.380  0.5878 -1.7186 -0.8122
 1153TIP3   OH227653   6.753   3.427   8.562 -0.0928  0.2893 -0.3698
 1153TIP3    H127654   6.664   3.405   8.536  0.0873 -1.5218  0.4010
 1153TIP3    H227655   6.743   3.479   8.642 -0.4613 -0.3931  0.0388
 1154TIP3   OH227656   1.141   2.105   0.149 -0.6716  0.0583  0.4900
 1154TIP3    H127657   1.204   2.092   0.219 -0.1597  2.5059  0.5664
 1154TIP3    H227658   1.189   2.084   0.069  0.3937  2.1032  0.5316
 1155TIP3   OH227659   2.115   1.323   9.431  0.0825  0.7760  0.1640
 1155TIP3    H127660   2.038   1.315   9.488  0.6005 -1.6787  0.6257
 1155TIP3    H227661   2.085   1.291   9.346  0.7590 -1.1238  0.5838
 1156TIP3   OH227662   4.084   4.324   0.301  0.6166 -0.1729 -0.1175
 1156TIP3    H127663   4.155   4.343   0.362  0.7404  0.5591 -0.4741
 1156TIP3    H227664   4.076   4.229   0.301 -0.8249 -0.1685  2.6789
 1157TIP3   OH227665   3.524   4.007   7.968 -0.6349  0.4533  0.4236
 1157TIP3    H127666   3.615   4.004   7.939 -0.3337  0.6717  1.3136
 1157TIP3    H227667   3.523   4.071   8.039 -1.6972  1.2756 -0.2820
 1158TIP3   OH227668   6.783   1.643   0.762 -0.4606  0.4059  0.5733
 1158TIP3    H127669   6.780   1.663   0.855 -0.0448  3.2796  0.0619
 1158TIP3    H227670   6.869   1.672   0.733 -1.1869  1.1265 -0.9844
 1159TIP3   OH227671   2.244   3.045   2.447  0.0890 -0.2873  0.2614
 1159TIP3    H127672   2.307   3.116   2.432 -1.2896  1.1753  1.1225
 1159TIP3    H227673   2.188   3.045   2.370 -2.0432  1.9419  1.6589
 1160TIP3   OH227674   7.042   3.467   8.148 -0.1829 -0.2264  0.3367
 1160TIP3    H127675   7.101   3.433   8.215 -0.3335  0.0413  0.6077
 1160TIP3    H227676   6.962   3.489   8.196  0.7522  2.8984  0.6736
 1161TIP3   OH227677   3.033   3.685   6.948  0.4151 -0.0923 -0.1476
 1161TIP3    H127678   3.020   3.681   7.042  2.0406 -0.1127  0.1049
 1161TIP3    H227679   2.957   3.734   6.915 -0.4607 -0.5886  1.0818
 1162TIP3   OH227680   7.197   3.980   1.051  0.0668  0.4640  0.0818
 1162TIP3    H127681   7.208   4.008   1.142  1.9724  3.4304 -0.9388
 1162TIP3    H227682   7.283   3.992   1.011 -0.9761  0.3111 -2.3958
 1163TIP3   OH227683   2.797   5.290   0.772 -0.3348 -0.2823 -0.2699
 1163TIP3    H127684   2.779   5.230   0.700  1.7994  0.0581 -1.1740
 1163TIP3    H227685   2.838   5.366   0.730 -0.8493  0.8096  1.1058
 1164TIP3   OH227686   4.289   6.853   8.378 -0.3824 -0.1813 -0.5953
 1164TIP3    H127687   4.340   6.841   8.458  0.1928  3.7346 -0.2078
 1164TIP3    H227688   4.200   6.827   8.403  0.2044 -1.2190  0.5515
 1165TIP3   OH227689   5.773   6.993   9.084  0.2359 -0.4110 -0.3544
 1165TIP3    H127690   5.686   6.974   9.118  0.0538  0.3968 -0.3438
 1165TIP3    H227691   5.832   6.938   9.136 -0.3184 -1.4397 -0.7925
 1166TIP3   OH227692   6.925   3.756   1.167 -0.6519 -0.1544 -0.2804
 1166TIP3    H127693   7.017   3.729   1.168 -0.2977  0.6746 -2.6029
 1166TIP3    H227694   6.922   3.825   1.101 -2.4264  1.9382  1.8402
 1167TIP3   OH227695   5.416   1.687   0.040  0.3087  0.1709 -0.3298
 1167TIP3    H127696   5.470   1.688   0.119  1.0474  3.1969 -0.7698
 1167TIP3    H227697   5.478   1.684  -0.032 -0.3378 -1.6304 -0.8764
 1168TIP3   OH227698   3.885   0.235   8.757 -0.3347 -0.3097  0.1448
 1168TIP3    H127699   3.832   0.310   8.730 -0.4174 -0.1869  0.6451
 1168TIP3    H227700   3.952   0.272   8.814 -0.1354 -0.5632  0.0790
 1169TIP3   OH227701   2.537   1.093   1.388  0.1048 -0.2288 -0.2638
 1169TIP3    H127702   2.500   1.005   1.395 -0.3815  0.0191  0.4112
 1169TIP3    H227703   2.631   1.080   1.401 -0.0617 -0.5529  0.6971
 1170TIP3   OH227704   1.654   4.372   8.462 -0.4197 -0.2366 -0.2323
 1170TIP3    H127705   1.561   4.375   8.440 -0.8323  0.1318  1.4320
 1170TIP3    H227706   1.664   4.436   8.532  1.1800  0.0266 -0.6688
 1171TIP3   OH227707   1.053   7.044   9.311 -0.8156 -0.1289  0.1187
 1171TIP3    H127708   0.977   6.993   9.340 -1.9343  0.2894 -1.9283
 1171TIP3    H227709   1.054   7.033   9.216  0.0230  2.1395 -0.1789
 1172TIP3   OH227710   0.981   1.061   8.442  0.2174  0.2045 -0.4246
 1172TIP3    H127711   0.966   1.060   8.536  1.1953  0.1344 -0.2582
 1172TIP3    H227712   1.064   1.106   8.431 -0.5176  1.4011 -1.3659
 1173TIP3   OH227713   4.770   5.441   1.118  0.1755  0.7414 -0.3341
 1173TIP3    H127714   4.755   5.381   1.190  0.6124 -0.2354 -1.0380
 1173TIP3    H227715   4.685   5.482   1.102 -0.1057  0.3729  0.1972
 1174TIP3   OH227716   2.568   1.981   1.193 -0.0986  0.3081 -0.2155
 1174TIP3    H127717   2.542   1.917   1.128 -0.4515  0.6120 -0.3754
 1174TIP3    H227718   2.628   2.040   1.146  1.0123 -0.4744  0.1876
 1175TIP3   OH227719   3.902   6.090   6.895 -0.2353 -0.0995 -0.0108
 1175TIP3    H127720   3.860   6.153   6.836  0.3329  0.5650  0.2848
 1175TIP3    H227721   3.990   6.124   6.910 -0.3314 -0.2942  1.1533
 1176TIP3   OH227722   3.946   7.044   7.266  0.2437 -0.5908 -0.2923
 1176TIP3    H127723   3.963   7.131   7.231 -1.6546  0.1920  0.5872
 1176TIP3    H227724   3.916   6.993   7.191 -0.2806  0.0188 -0.5046
 1177TIP3   OH227725   7.111   1.614   7.453 -0.4163 -0.0112 -0.4258
 1177TIP3    H127726   7.139   1.697   7.493 -0.0836 -0.2213 -0.2173
 1177TIP3    H227727   7.021   1.601   7.484  0.1991 -0.7207  1.1599
 1178TIP3   OH227728   6.517   0.929   7.495  0.2640  0.0696 -0.6895
 1178TIP3    H127729   6.582   0.923   7.425 -0.7780  1.8808 -1.9224
 1178TIP3    H227730   6.559   0.983   7.562  0.7912 -0.5768 -0.4878
 1179TIP3   OH227731   0.904   3.842   7.789  0.5129  0.2924 -0.5386
 1179TIP3    H127732   0.980   3.802   7.748  1.0818  0.6034  0.1891
 1179TIP3    H227733   0.829   3.799   7.747  0.9711  1.9324 -3.2799
 1180TIP3   OH227734   4.649   6.954   7.478 -0.5699 -0.3091  0.1107
 1180TIP3    H127735   4.554   6.945   7.471 -1.1047  3.4944  0.3515
 1180TIP3    H227736   4.679   6.953   7.387 -1.0565  0.0641 -0.0584
 1181TIP3   OH227737   1.607   6.480   7.783 -0.0624  0.4519 -0.1947
 1181TIP3    H127738   1.571   6.393   7.765  0.6723  0.0345  0.3026
 1181TIP3    H227739   1.702   6.469   7.776  0.4453  0.0230  4.4336
 1182TIP3   OH227740   6.773   2.606   8.286  0.5182 -0.1567 -0.0217
 1182TIP3    H127741   6.712   2.636   8.353  1.0948 -2.1657  1.5169
 1182TIP3    H227742   6.853   2.583   8.334  2.6824  2.6046 -1.9811
 1183TIP3   OH227743   2.789   6.498   1.488  0.8586 -0.1315  0.2129
 1183TIP3    H127744   2.789   6.452   1.405 -1.9255 -1.3818  0.8205
 1183TIP3    H227745   2.772   6.430   1.554 -4.3575  1.5808  1.0728
 1184TIP3   OH227746   4.386   0.670   1.947  0.4448 -0.0581  0.1273
 1184TIP3    H127747   4.467   0.683   1.897  0.6803 -1.5808  0.0817
 1184TIP3    H227748   4.397   0.585   1.989 -1.0723 -0.2192  0.2536
 1185TIP3   OH227749   0.878   2.733   9.390 -0.0681  0.4935 -0.1548
 1185TIP3    H127750   0.967   2.699   9.393 -0.3531 -0.2255  0.1922
 1185TIP3    H227751   0.825   2.668   9.435 -0.8604  0.6407 -0.8473
 1186TIP3   OH227752   4.780   3.313   3.134  0.7922  0.2299 -0.3130
 1186TIP3    H127753   4.687   3.292   3.140  1.1659 -1.0394  1.9334
 1186TIP3    H227754   4.786   3.402   3.170  0.2829  1.0094 -2.0451
 1187TIP3   OH227755   2.594   0.107   1.632 -0.2264 -0.2396  0.6931
 1187TIP3    H127756   2.657   0.111   1.559 -0.7894  0.3153  0.2181
 1187TIP3    H227757   2.647   0.084   1.708  0.4069 -0.6661  0.1377
 1188TIP3   OH227758   0.114   0.446   0.361 -0.7676  0.0082 -0.1395
 1188TIP3    H127759   0.110   0.533   0.320 -1.9434  0.2775  0.4967
 1188TIP3    H227760   0.172   0.458   0.436 -1.6104  0.4784  0.4488
 1189TIP3   OH227761   2.843   5.844   0.948 -0.4060 -1.1143  0.1895
 1189TIP3    H127762   2.801   5.926   0.973 -0.3436 -1.2422  0.7367
 1189TIP3    H227763   2.923   5.841   1.000 -0.2453 -1.3705 -0.0676
 1190TIP3   OH227764   1.703   5.865   0.898  0.3281 -0.2747 -0.0163
 1190TIP3    H127765   1.650   5.809   0.955  2.6055 -2.2651  0.2780
 1190TIP3    H227766   1.665   5.952   0.910 -0.9692 -1.0672  2.4873
 1191TIP3   OH227767   1.524   0.798   2.043 -0.3936  0.0465 -0.1361
 1191TIP3    H127768   1.474   0.742   2.103  0.8205  0.0130  0.9051
 1191TIP3    H227769   1.612   0.759   2.043  0.4369  1.8209  0.4600
 1192TIP3   OH227770   5.758   1.724   8.056 -0.4620 -0.2483  0.2289
 1192TIP3    H127771   5.771   1.799   7.997  0.5035 -1.0778 -0.6558
 1192TIP3    H227772   5.790   1.755   8.141  0.3929  0.1953 -0.2417
 1193TIP3   OH227773   6.783   5.616   7.046  0.1436  0.2688  0.4249
 1193TIP3    H127774   6.824   5.698   7.072  0.5744  0.1919  0.0033
 1193TIP3    H227775   6.784   5.617   6.950 -0.2440 -0.0333  0.4135
 1194TIP3   OH227776   5.761   3.910   1.722 -0.1688 -0.3616 -0.1401
 1194TIP3    H127777   5.732   3.827   1.684 -2.3345  0.0713  0.4315
 1194TIP3    H227778   5.717   3.977   1.669 -2.5653  0.2740  2.4202
 1195TIP3   OH227779   5.178   0.843   0.011  0.2066 -0.5944  0.3136
 1195TIP3    H127780   5.117   0.917   0.011  0.0496 -0.7236  0.6954
 1195TIP3    H227781   5.235   0.860  -0.064 -1.1079 -1.1402 -0.8453
 1196TIP3   OH227782   6.369   7.159   2.186  0.3656 -0.1087  0.2500
 1196TIP3    H127783   6.432   7.087   2.179  1.3350  0.7386 -0.0975
 1196TIP3    H227784   6.421   7.237   2.168 -0.8242  0.6152 -0.1315
 1197TIP3   OH227785   1.261   0.524   0.392  0.0421 -0.3449 -0.0804
 1197TIP3    H127786   1.257   0.614   0.424 -0.7448 -0.1840 -0.5977
 1197TIP3    H227787   1.352   0.498   0.404  0.0871  0.2094  0.9030
 1198TIP3   OH227788   2.731   0.491   7.080 -0.1357  0.1641  0.3294
 1198TIP3    H127789   2.735   0.558   7.012 -0.8607 -0.1480 -0.0314
 1198TIP3    H227790   2.699   0.413   7.035  0.8776 -0.4822  0.7050
 1199TIP3   OH227791   3.450   6.999   8.692 -0.0857 -0.3061 -0.9097
 1199TIP3    H127792   3.436   7.068   8.756  0.9490 -0.6348 -0.2905
 1199TIP3    H227793   3.435   7.041   8.607  0.8635  0.7816 -0.5677
 1200TIP3   OH227794   4.215   5.717   7.982  0.6124 -0.5229  0.0606
 1200TIP3    H127795   4.149   5.649   7.969 -0.0274  0.2343 -0.7665
 1200TIP3    H227796   4.172   5.798   7.956  1.5455  0.1344  0.4863
 1201TIP3   OH227797   2.313   0.011   8.867  0.0760  0.1061  0.5230
 1201TIP3    H127798   2.334  -0.066   8.815 -1.4141  0.0901 -0.1169
 1201TIP3    H227799   2.217   0.011   8.871  0.0752  1.5613  1.0663
 1202TIP3   OH227800   4.902   4.265   9.447  0.7879 -0.0065 -0.1085
 1202TIP3    H127801   4.876   4.347   9.406  2.7257 -0.2867 -2.0762
 1202TIP3    H227802   4.823   4.235   9.492  0.4028  3.6365  2.0716
 1203TIP3   OH227803   5.781   5.216   0.289  0.3362  0.2427 -0.1204
 1203TIP3    H127804   5.714   5.208   0.357 -0.7343 -1.8142 -1.3314
 1203TIP3    H227805   5.732   5.238   0.210  0.9122 -1.9401 -1.1708
 1204TIP3   OH227806   6.167   1.219   8.666 -0.1434 -0.1556 -0.4079
 1204TIP3    H127807   6.193   1.141   8.617 -0.2874 -0.6639  0.3133
 1204TIP3    H227808   6.166   1.191   8.757  0.9928  1.0098 -0.0067
 1205TIP3   OH227809   6.054   6.592   0.435  0.2992  0.1143  0.0496
 1205TIP3    H127810   5.988   6.528   0.462 -0.0940 -0.0865 -1.3138
 1205TIP3    H227811   6.138   6.549   0.454  0.0535  0.0134  0.9720
 1206TIP3   OH227812   3.172   3.548   2.332 -0.1394  0.1962  0.0976
 1206TIP3    H127813   3.128   3.588   2.257 -0.9208  0.7551  0.8376
 1206TIP3    H227814   3.134   3.460   2.337 -0.6981  0.4468  0.3340
 1207TIP3   OH227815   0.329   1.121   8.530 -0.1469  0.0770 -0.5806
 1207TIP3    H127816   0.412   1.126   8.577  0.0765 -0.2431 -0.9378
 1207TIP3    H227817   0.263   1.138   8.597  0.2916  2.5119 -0.6747
 1208TIP3   OH227818   3.903   6.318   2.732  0.6515  0.3017 -0.0593
 1208TIP3    H127819   3.928   6.377   2.803  1.0499 -1.2192  1.1085
 1208TIP3    H227820   3.808   6.311   2.740  0.7418 -0.2370  0.6463
 1209TIP3   OH227821   5.289   5.075   8.681  0.5472  0.0627  0.3532
 1209TIP3    H127822   5.195   5.066   8.668  0.0696  1.7655  2.0487
 1209TIP3    H227823   5.312   5.004   8.741  0.3302 -0.3240 -0.0212
 1210TIP3   OH227824   2.520   2.586   2.017  0.0136  0.0591 -0.2597
 1210TIP3    H127825   2.566   2.509   2.050 -0.8716 -1.3270 -2.0455
 1210TIP3    H227826   2.455   2.606   2.084  0.0667 -0.9314  0.1065
 1211TIP3   OH227827   0.729   4.809   1.216  0.4668  0.3121  0.1376
 1211TIP3    H127828   0.721   4.726   1.169  1.9453  1.2263 -1.8421
 1211TIP3    H227829   0.690   4.874   1.158 -0.0569  1.1311  1.3589
 1212TIP3   OH227830   7.391   7.184   2.227 -0.1259 -0.0317  0.0282
 1212TIP3    H127831   7.474   7.138   2.213  0.1394  0.0848  1.1253
 1212TIP3    H227832   7.325   7.121   2.199  0.2219 -1.1958  1.6946
 1213TIP3   OH227833   6.594   5.632   7.544 -0.1837 -0.2911  0.2155
 1213TIP3    H127834   6.637   5.679   7.472 -1.1454  0.2104 -0.0483
 1213TIP3    H227835   6.626   5.676   7.623  0.1592 -0.2360  0.0506
 1214TIP3   OH227836   6.582   3.784   7.348 -0.1983  0.0544  0.4354
 1214TIP3    H127837   6.638   3.710   7.376  0.2841  0.3381  0.2401
 1214TIP3    H227838   6.644   3.852   7.323 -0.6238  0.1352 -0.4562
 1215TIP3   OH227839   5.942   6.410   7.213  0.3515  0.1281  0.5648
 1215TIP3    H127840   5.988   6.446   7.137 -0.9737 -0.1141 -0.3810
 1215TIP3    H227841   5.867   6.469   7.225 -0.0530 -0.4747  1.0046
 1216TIP3   OH227842   5.277   2.952   1.551 -0.4536 -0.4928 -0.1948
 1216TIP3    H127843   5.186   2.925   1.561 -0.5585  0.0417  0.3515
 1216TIP3    H227844   5.272   3.045   1.527 -0.0375 -0.1628  0.9440
 1217TIP3   OH227845   1.279   1.904   1.646  0.1905  0.1127 -0.0282
 1217TIP3    H127846   1.342   1.921   1.717  0.8886  2.3120 -1.0829
 1217TIP3    H227847   1.316   1.830   1.599  0.2654 -0.7037  1.2771
 1218TIP3   OH227848   6.095   4.608   8.164  0.1658  0.6629  0.0217
 1218TIP3    H127849   6.177   4.593   8.211 -0.7732 -0.8394  1.3268
 1218TIP3    H227850   6.074   4.700   8.182  0.5302  0.5004  1.4614
 1219TIP3   OH227851   5.370   6.283   1.424 -0.1148  0.0322  0.3422
 1219TIP3    H127852   5.411   6.369   1.422  0.0852 -0.0380  1.0718
 1219TIP3    H227853   5.444   6.222   1.429 -0.1240 -0.3395 -2.4751
 1220TIP3   OH227854   7.191   3.817   0.678 -0.1143  0.0923  0.3240
 1220TIP3    H127855   7.285   3.832   0.679 -0.0170 -0.4649  0.0835
 1220TIP3    H227856   7.162   3.847   0.592 -0.4891  2.0808  1.0794
 1221TIP3   OH227857   1.889   6.360   7.772  0.2113 -0.2148  0.2140
 1221TIP3    H127858   1.882   6.268   7.798  2.9299 -1.0303 -1.5106
 1221TIP3    H227859   1.910   6.406   7.853 -2.4986 -0.7936  1.3582
 1222TIP3   OH227860   1.380   2.981   7.811  0.1358 -0.3391  0.1432
 1222TIP3    H127861   1.414   2.897   7.841  0.7678 -0.0739  0.1716
 1222TIP3    H227862   1.291   2.985   7.847  0.7708 -0.1591  1.7736
 1223TIP3   OH227863   4.240   6.359   2.081  0.0706 -0.3288  0.3480
 1223TIP3    H127864   4.224   6.409   2.001  1.2852 -0.7282 -0.1688
 1223TIP3    H227865   4.250   6.425   2.149 -1.4347  0.0065  0.2905
 1224TIP3   OH227866   1.945   0.936   1.218  0.2810 -0.2292  0.2280
 1224TIP3    H127867   1.872   0.998   1.219 -0.4808 -1.0901  0.6195
 1224TIP3    H227868   1.997   0.960   1.142 -0.8486 -0.0596 -0.5143
 1225TIP3   OH227869   2.564   5.498   7.474  0.0284 -0.1185  0.1103
 1225TIP3    H127870   2.566   5.481   7.568 -0.7090 -0.4375  0.0810
 1225TIP3    H227871   2.475   5.529   7.458  0.6178  1.4570 -0.2394
 1226TIP3   OH227872   7.250   3.315   8.641 -0.3885 -0.1546  0.4868
 1226TIP3    H127873   7.298   3.251   8.589 -2.0237 -0.1523 -1.1541
 1226TIP3    H227874   7.160   3.308   8.610 -1.0015  1.5114  1.7223
 1227TIP3   OH227875   4.838   4.043   8.261 -0.1994 -0.0554 -0.1835
 1227TIP3    H127876   4.894   3.991   8.319  0.8198 -0.1856 -1.2342
 1227TIP3    H227877   4.779   3.980   8.220  0.8710 -0.4086 -1.2705
 1228TIP3   OH227878   7.135   5.371   9.550  0.7399  0.1487 -0.2236
 1228TIP3    H127879   7.146   5.405   9.461  0.5904 -0.5543 -0.5113
 1228TIP3    H227880   7.041   5.365   9.562  0.7673 -0.2056 -0.1880
 1229TIP3   OH227881   4.855   1.308   8.827  0.0526  0.1517 -0.2819
 1229TIP3    H127882   4.900   1.367   8.887  2.1752 -2.3301  0.7724
 1229TIP3    H227883   4.767   1.344   8.818  0.5936  2.2399  1.9708
 1230TIP3   OH227884   5.725   2.878   8.032 -0.2428 -0.1284  0.2249
 1230TIP3    H127885   5.693   2.821   7.963  0.0391 -0.1252  0.0929
 1230TIP3    H227886   5.663   2.865   8.104 -0.3228 -0.4089  0.1053
 1231TIP3   OH227887   2.832   2.725   7.789 -0.1440  0.3769  0.4606
 1231TIP3    H127888   2.840   2.802   7.845 -1.0400  2.0273 -1.5295
 1231TIP3    H227889   2.779   2.663   7.839 -1.7608  2.1656  1.0710
 1232TIP3   OH227890   4.355   1.455   0.713 -0.3136 -0.0218 -0.0002
 1232TIP3    H127891   4.293   1.528   0.708 -1.2866 -0.8560 -0.4370
 1232TIP3    H227892   4.342   1.417   0.799  0.0639  0.1936  0.1568
 1233TIP3   OH227893   5.109   1.135   8.503  0.6035 -0.1906 -0.0195
 1233TIP3    H127894   5.021   1.109   8.532  0.3820  0.1725 -0.3650
 1233TIP3    H227895   5.145   1.183   8.577  1.1214 -1.6843  0.7378
 1234TIP3   OH227896   4.091   3.236   7.274 -0.1222  0.3393 -0.1267
 1234TIP3    H127897   4.128   3.262   7.358 -0.6224 -3.0250  1.2881
 1234TIP3    H227898   4.013   3.289   7.264  0.9146  2.0653  0.5933
 1235TIP3   OH227899   1.906   0.903   9.519 -0.5380 -0.8389 -0.2207
 1235TIP3    H127900   1.907   0.998   9.523  1.3072 -0.6596 -2.4212
 1235TIP3    H227901   1.952   0.875   9.598 -2.8233 -0.0727  1.4737
 1236TIP3   OH227902   1.291   0.412   0.754 -0.4041 -0.2805  0.3519
 1236TIP3    H127903   1.214   0.465   0.735  0.3224  0.3150 -1.0059
 1236TIP3    H227904   1.256   0.323   0.766 -1.1870 -0.2524 -1.4617
 1237TIP3   OH227905   4.958   1.927   0.147  0.6654 -0.3549 -0.7189
 1237TIP3    H127906   5.021   1.916   0.218  1.1896 -0.9482 -1.2555
 1237TIP3    H227907   4.938   1.838   0.118  0.2012 -0.1384 -1.0957
 1238TIP3   OH227908   1.733   3.303   7.695 -0.3081  0.4266  0.2324
 1238TIP3    H127909   1.801   3.243   7.665 -0.8974 -0.9996  1.6076
 1238TIP3    H227910   1.651   3.259   7.673 -0.9374  2.6048 -2.4249
 1239TIP3   OH227911   5.339   2.614   8.830  0.2824  0.3430 -0.1168
 1239TIP3    H127912   5.403   2.603   8.760 -0.1553  1.3694 -0.6933
 1239TIP3    H227913   5.264   2.561   8.803  0.4239  0.1029 -0.0357
 1240TIP3   OH227914   6.260   0.822   1.645 -0.0228 -0.0986 -0.1884
 1240TIP3    H127915   6.274   0.853   1.555  0.0659 -2.0321 -0.8905
 1240TIP3    H227916   6.237   0.729   1.635  0.0231 -0.3692  1.8029
 1241TIP3   OH227917   4.923   5.358   6.663  0.0371  0.1916 -0.2203
 1241TIP3    H127918   5.010   5.360   6.625  0.0040 -0.2714 -0.3238
 1241TIP3    H227919   4.937   5.376   6.756  0.2758 -0.1784 -0.1829
 1242TIP3   OH227920   2.101   3.015   6.371  0.1816  0.3207  0.0829
 1242TIP3    H127921   2.139   2.962   6.440 -0.1653 -0.0294  0.0087
 1242TIP3    H227922   2.175   3.063   6.333  0.7293 -1.1750 -0.7967
 1243TIP3   OH227923   1.120   7.322   6.876  0.3352  0.1842 -0.0863
 1243TIP3    H127924   1.202   7.303   6.921  0.4464 -0.0806 -0.3954
 1243TIP3    H227925   1.134   7.409   6.839  0.5564  0.0547 -0.3129
 1244TIP3   OH227926   2.259   3.072   6.791  0.1378 -0.0134 -0.0306
 1244TIP3    H127927   2.244   3.163   6.764 -1.1313 -0.4376 -0.8758
 1244TIP3    H227928   2.322   3.038   6.727 -0.6362 -0.1762 -0.7307
 1245TIP3   OH227929   2.069   4.596   1.098 -0.2540 -0.0566  0.4002
 1245TIP3    H127930   2.040   4.531   1.033  0.3132 -1.2653  1.3077
 1245TIP3    H227931   2.127   4.546   1.156  0.5520  1.3901  0.8734
 1246TIP3   OH227932   6.040   5.093   2.502  0.2855  0.2044 -0.6232
 1246TIP3    H127933   6.121   5.045   2.521  1.1864  1.5934 -0.8506
 1246TIP3    H227934   6.052   5.178   2.545 -0.4447  0.9555 -1.8550
 1247TIP3   OH227935   0.912   5.488   1.767  0.7875  0.4805 -1.1591
 1247TIP3    H127936   0.862   5.429   1.824  0.0225  1.0555 -1.2266
 1247TIP3    H227937   0.951   5.429   1.702  2.7764 -0.3617  0.6805
 1248TIP3   OH227938   2.929   0.488   8.794 -0.4730 -0.2292 -0.4262
 1248TIP3    H127939   2.952   0.429   8.722 -0.6249 -1.3398  0.4078
 1248TIP3    H227940   2.878   0.433   8.854  0.3985  0.4375  0.9482
 1249TIP3   OH227941   4.830   0.629   8.743  0.3493  0.1387 -0.1227
 1249TIP3    H127942   4.907   0.685   8.739 -0.1362  0.8170 -0.1553
 1249TIP3    H227943   4.758   0.688   8.765 -0.1418 -0.5054  0.0420
 1250TIP3   OH227944   5.586   3.889   0.981  0.0482 -0.2878  0.1429
 1250TIP3    H127945   5.679   3.867   0.973  0.1383  0.0329  0.2849
 1250TIP3    H227946   5.585   3.969   1.034 -0.2375  0.3213 -0.7670
 1251TIP3   OH227947   6.883   1.723   8.923 -0.0501  0.4352 -0.2200
 1251TIP3    H127948   6.880   1.813   8.892 -0.7302  1.1915  1.9047
 1251TIP3    H227949   6.875   1.670   8.843 -1.2238  2.2388 -1.3691
 1252TIP3   OH227950   1.517   1.126   9.223  0.1550  0.1095 -0.0999
 1252TIP3    H127951   1.449   1.122   9.155  0.3454 -1.6329 -0.2272
 1252TIP3    H227952   1.597   1.095   9.179  0.7375  0.8570  0.4040
 1253TIP3   OH227953   6.754   3.455   6.722 -0.1810  0.4601 -0.0730
 1253TIP3    H127954   6.776   3.532   6.670 -0.4902  0.8406  0.3446
 1253TIP3    H227955   6.712   3.395   6.661 -0.4366  0.8525 -0.2869
 1254TIP3   OH227956   5.750   3.234   9.251  0.5464  0.1676  0.1397
 1254TIP3    H127957   5.674   3.282   9.220  0.0887 -0.6417 -0.0243
 1254TIP3    H227958   5.724   3.201   9.337  0.0237 -1.6072 -0.6546
 1255TIP3   OH227959   6.513   4.280   9.360  0.2114  0.1050 -0.0569
 1255TIP3    H127960   6.450   4.267   9.431 -0.6897  1.2193 -0.6144
 1255TIP3    H227961   6.569   4.351   9.390  0.3751 -0.0068 -0.0994
 1256TIP3   OH227962   3.645   4.265   7.706 -0.0890 -0.7219 -1.1399
 1256TIP3    H127963   3.613   4.331   7.644  2.0965  2.3031  0.6805
 1256TIP3    H227964   3.616   4.297   7.791  0.8495 -2.2901 -0.1859
 1257TIP3   OH227965   0.656   5.723   2.979 -0.3793  0.0608 -0.6945
 1257TIP3    H127966   0.717   5.660   2.942 -1.3276 -0.5697 -1.1971
 1257TIP3    H227967   0.616   5.765   2.903  1.5514  2.6344 -0.4319
 1258TIP3   OH227968   2.841   3.588   1.451  0.3892 -0.0632 -0.3442
 1258TIP3    H127969   2.886   3.645   1.389 -1.5661  1.3146 -0.6045
 1258TIP3    H227970   2.781   3.536   1.397  0.3865 -0.5911  0.1559
 1259TIP3   OH227971   0.277   3.864   7.495  0.0082  0.1616  0.2693
 1259TIP3    H127972   0.253   3.820   7.576  2.5500 -0.6503  0.6818
 1259TIP3    H227973   0.194   3.883   7.452 -1.3700 -0.3733  2.5278
 1260TIP3   OH227974   1.633   3.800   1.029 -0.0748  0.0877 -0.5101
 1260TIP3    H127975   1.696   3.731   1.052  0.5218  0.9576  0.5925
 1260TIP3    H227976   1.681   3.858   0.970  0.1603  0.7248  0.2917
 1261TIP3   OH227977   2.775   0.240   0.214  0.2262 -0.5368  0.5202
 1261TIP3    H127978   2.767   0.310   0.149  0.8188 -0.7353  0.2225
 1261TIP3    H227979   2.768   0.159   0.163 -0.7315 -0.7002  0.9001
 1262TIP3   OH227980   1.450   4.596   0.527 -0.5175 -0.4236 -0.0830
 1262TIP3    H127981   1.442   4.516   0.579 -0.6185  0.7733  1.8481
 1262TIP3    H227982   1.538   4.628   0.547 -0.5404  0.0383 -0.7118
 1263TIP3   OH227983   7.214   0.659   2.379  0.4655  0.1507 -0.0524
 1263TIP3    H127984   7.165   0.726   2.330 -2.3240 -1.1644  0.7371
 1263TIP3    H227985   7.187   0.672   2.470  3.2947  0.6665  0.7898
 1264TIP3   OH227986   4.141   7.227   0.297 -0.1669  0.8903  0.3669
 1264TIP3    H127987   4.069   7.288   0.282  0.3689  1.1772 -1.1846
 1264TIP3    H227988   4.186   7.261   0.375 -1.4254  0.9416  1.0956
 1265TIP3   OH227989   1.916   0.292   9.535 -0.3438 -0.0563  0.6947
 1265TIP3    H127990   1.982   0.344   9.581  0.4805 -0.7049  0.2772
 1265TIP3    H227991   1.956   0.270   9.451 -0.9531 -0.7591  0.5725
 1266TIP3   OH227992   5.216   5.880   1.381 -0.2376  0.8111  0.1423
 1266TIP3    H127993   5.288   5.818   1.387  0.1563  0.9150 -2.4234
 1266TIP3    H227994   5.244   5.955   1.435  1.0859  0.4162  0.0243
 1267TIP3   OH227995   3.087   1.798   8.610 -0.0137  0.6232  0.0726
 1267TIP3    H127996   3.141   1.842   8.675 -1.7125  0.2534  1.8287
 1267TIP3    H227997   3.046   1.725   8.657  0.4058 -1.0620 -1.9849
 1268TIP3   OH227998   7.422   0.946   0.020 -0.3785  0.7330 -0.1895
 1268TIP3    H127999   7.462   0.884   0.081  0.0505  1.2297  0.0413
 1268TIP3    H228000   7.386   1.014   0.076 -1.2883  0.4524 -0.4128
 1269TIP3   OH228001   3.859   1.181   1.084 -0.6504  0.7409  0.0627
 1269TIP3    H128002   3.863   1.087   1.100  1.1775  0.9734  1.2773
 1269TIP3    H228003   3.846   1.188   0.989  1.7448 -0.7897 -0.4739
 1270TIP3   OH228004   2.303   1.538   9.256  0.3634 -0.0206 -0.8738
 1270TIP3    H128005   2.372   1.543   9.322  0.7852 -0.1878 -1.2903
 1270TIP3    H228006   2.246   1.467   9.285 -1.7388  2.3887  1.4094
 1271TIP3   OH228007   4.544   4.203   1.877 -0.1929 -0.2125  0.0647
 1271TIP3    H128008   4.566   4.114   1.906 -0.5100 -0.0395  0.8617
 1271TIP3    H228009   4.628   4.247   1.867 -0.0401 -0.5588 -0.2183
 1272TIP3   OH228010   4.953   3.686   2.375 -0.5136  0.4907  0.1606
 1272TIP3    H128011   4.867   3.711   2.343 -0.3936 -0.2509 -0.7917
 1272TIP3    H228012   4.973   3.749   2.444 -0.9766  1.8448 -0.9164
 1273TIP3   OH228013   3.108   4.303   7.621 -0.4841 -0.0300  0.2715
 1273TIP3    H128014   3.039   4.368   7.610 -0.9808 -0.2863  1.6405
 1273TIP3    H228015   3.061   4.222   7.641  0.1320 -0.7864 -1.1880
 1274TIP3   OH228016   2.397   4.743   7.578 -0.5129 -0.4589 -0.5950
 1274TIP3    H128017   2.460   4.708   7.515  0.1538 -1.6211  0.6859
 1274TIP3    H228018   2.450   4.793   7.640 -1.0824  0.1014 -0.5475
 1275TIP3   OH228019   7.274   4.908   0.642 -0.7520 -0.6100  0.5349
 1275TIP3    H128020   7.200   4.943   0.692 -0.2514  2.6750 -0.7556
 1275TIP3    H228021   7.348   4.965   0.667  0.6322 -1.9249 -0.4078
 1276TIP3   OH228022   0.617   2.523   8.720  0.1607  0.0271  0.5535
 1276TIP3    H128023   0.524   2.522   8.699  0.1483 -0.2815  0.6185
 1276TIP3    H228024   0.658   2.572   8.649 -0.2651  1.6994  1.4080
 1277TIP3   OH228025   1.068   4.328   7.636 -0.8368 -0.3347 -0.9380
 1277TIP3    H128026   1.133   4.338   7.706  0.5914 -0.4341 -2.2156
 1277TIP3    H228027   0.988   4.300   7.682  0.2814 -1.2062  0.5697
 1278TIP3   OH228028   5.729   0.116   0.494 -0.1186 -0.0542  0.0675
 1278TIP3    H128029   5.776   0.197   0.511 -0.4200 -0.1236  1.2700
 1278TIP3    H228030   5.645   0.127   0.537 -0.4585 -0.7150 -0.4036
 1279TIP3   OH228031   7.326   6.092   8.664 -0.7024 -0.5883 -0.8466
 1279TIP3    H128032   7.384   6.151   8.714 -1.9865  0.1264 -0.1601
 1279TIP3    H228033   7.238   6.123   8.684 -1.3549 -1.9783 -1.4809
 1280TIP3   OH228034   6.198   1.601   0.639  0.1105 -0.2173 -0.0358
 1280TIP3    H128035   6.144   1.677   0.659  0.0232 -0.3883  0.3864
 1280TIP3    H228036   6.254   1.629   0.566 -0.0954  0.1666 -0.0440
 1281TIP3   OH228037   4.168   4.986   2.318 -0.0870 -0.5444 -0.2781
 1281TIP3    H128038   4.190   4.895   2.298  1.5118  0.2151 -2.2556
 1281TIP3    H228039   4.156   4.987   2.413  0.9188 -2.5923 -0.0704
 1282TIP3   OH228040   6.031   2.101   7.368  0.0587  0.2448  0.7201
 1282TIP3    H128041   6.013   2.109   7.274  0.9264  1.5928  0.6331
 1282TIP3    H228042   6.024   2.008   7.386  0.1585 -0.0758 -0.7459
 1283TIP3   OH228043   2.595   7.071   7.422 -0.2266  0.6670  0.2506
 1283TIP3    H128044   2.589   7.060   7.328  0.5782  3.7017 -0.2742
 1283TIP3    H228045   2.628   7.161   7.434 -0.9334  0.6408  3.4206
 1284TIP3   OH228046   6.419   6.223   1.818 -0.5814  0.2055  0.1010
 1284TIP3    H128047   6.341   6.184   1.859 -1.8615 -0.3957 -2.6507
 1284TIP3    H228048   6.489   6.161   1.835 -1.7229 -1.4574 -0.9386
 1285TIP3   OH228049   3.656   3.077   0.530  0.0042  0.3231  0.1312
 1285TIP3    H128050   3.584   3.100   0.471 -0.0741  0.2591  0.2007
 1285TIP3    H228051   3.612   3.045   0.609  0.1041 -1.0160 -0.3240
 1286TIP3   OH228052   3.016   4.509   9.405  0.1161  0.0783  0.1808
 1286TIP3    H128053   2.939   4.458   9.432 -1.6819  2.6236  0.2298
 1286TIP3    H228054   3.090   4.464   9.446 -1.4526 -1.7758  1.1728
 1287TIP3   OH228055   6.566   2.069   0.253  0.1661 -0.1563  0.4320
 1287TIP3    H128056   6.576   1.988   0.204 -2.2270 -2.2712  3.1061
 1287TIP3    H228057   6.655   2.096   0.274  1.0199 -2.2780 -0.2136
 1288TIP3   OH228058   6.002   2.392   7.430 -0.6535  0.3076  0.3734
 1288TIP3    H128059   5.924   2.336   7.429 -0.8224  0.4287 -2.5376
 1288TIP3    H228060   6.076   2.331   7.427 -0.7116  0.2145  0.8078
 1289TIP3   OH228061   1.203   5.215   6.560  0.4484 -0.0990  0.6658
 1289TIP3    H128062   1.204   5.293   6.504 -1.0131 -1.4099 -1.3347
 1289TIP3    H228063   1.295   5.198   6.579  1.0087  0.5328 -1.2460
 1290TIP3   OH228064   5.839   1.625   1.541 -0.3175 -0.2053 -0.6005
 1290TIP3    H128065   5.771   1.686   1.569 -0.9723 -1.4115  0.5273
 1290TIP3    H228066   5.918   1.654   1.587 -0.8946 -0.8784  0.8507
 1291TIP3   OH228067   7.263   0.845   0.888  0.3597 -0.4237  0.2712
 1291TIP3    H128068   7.350   0.841   0.848 -0.3888 -0.0861 -1.4832
 1291TIP3    H228069   7.225   0.758   0.873  0.0253 -0.2598  0.1571
 1292TIP3   OH228070   3.838   3.666   8.498 -0.4880 -0.0212 -0.0896
 1292TIP3    H128071   3.781   3.660   8.574  1.1690  1.4383  1.3702
 1292TIP3    H228072   3.839   3.760   8.476  0.8349 -0.0896 -0.4481
 1293TIP3   OH228073   6.244   2.600   0.337 -0.2832 -0.2759 -0.0392
 1293TIP3    H128074   6.224   2.687   0.303  1.7127 -0.1407 -0.9915
 1293TIP3    H228075   6.161   2.552   0.330 -1.4033  1.4883  0.4304
 1294TIP3   OH228076   2.153   3.312   0.649  0.3746  0.1019  0.4146
 1294TIP3    H128077   2.064   3.297   0.683  0.7589 -0.9253  0.9974
 1294TIP3    H228078   2.161   3.407   0.648 -1.2850  0.2820 -1.1198
 1295TIP3   OH228079   4.390   4.860   8.370 -0.1749 -0.0924  0.3267
 1295TIP3    H128080   4.370   4.902   8.287  0.4711 -2.2096 -0.9577
 1295TIP3    H228081   4.325   4.791   8.379  0.3460 -0.5007  1.1071
 1296TIP3   OH228082   3.980   2.346   8.460 -0.2923  0.1605 -0.3496
 1296TIP3    H128083   4.057   2.314   8.505 -0.0635  1.1816 -0.0027
 1296TIP3    H228084   3.965   2.281   8.390  1.5700  0.5523 -1.1769
 1297TIP3   OH228085   3.888   4.566   7.630 -0.6388  0.1897  0.0074
 1297TIP3    H128086   3.971   4.532   7.663 -0.5372 -0.2455 -0.7004
 1297TIP3    H228087   3.823   4.536   7.694 -0.5230 -1.1602 -0.4841
 1298TIP3   OH228088   2.098   0.266   7.811  0.3008  0.2092  0.5630
 1298TIP3    H128089   2.142   0.351   7.802 -0.9573  0.7335 -1.4895
 1298TIP3    H228090   2.019   0.285   7.862  0.5536  0.0628  1.0051
 1299TIP3   OH228091   5.488   0.049   2.279 -0.1968 -0.4716  0.4346
 1299TIP3    H128092   5.553   0.082   2.341  1.1524 -1.8876 -0.1649
 1299TIP3    H228093   5.461  -0.036   2.314 -1.1585 -0.2509  0.2601
 1300TIP3   OH228094   3.934   2.720   1.384 -0.1189 -0.2370 -0.6407
 1300TIP3    H128095   3.914   2.659   1.313 -2.6803  0.4251 -0.5721
 1300TIP3    H228096   3.861   2.782   1.384  1.2255  1.4325  0.8065
 1301TIP3   OH228097   5.053   0.976   1.621 -0.0472  0.5007 -0.1144
 1301TIP3    H128098   5.107   0.996   1.697  0.3173  0.6946 -0.4232
 1301TIP3    H228099   5.075   1.043   1.557  0.4888 -0.3197 -0.8120
 1302TIP3   OH228100   6.462   6.786   0.427  0.5644  0.1718  0.0969
 1302TIP3    H128101   6.398   6.853   0.451  2.1359  1.2181  1.6054
 1302TIP3    H228102   6.442   6.765   0.336 -1.5963  0.8002  0.3821
 1303TIP3   OH228103   3.402   4.548   0.127  0.0004  0.4286  0.1318
 1303TIP3    H128104   3.350   4.539   0.047  0.5399 -0.9427 -0.1000
 1303TIP3    H228105   3.358   4.616   0.178 -0.7534  0.8231 -1.0146
 1304TIP3   OH228106   6.089   5.346   2.397 -0.1167 -0.1670 -0.0058
 1304TIP3    H128107   6.056   5.409   2.333  2.7576 -0.8467 -2.4045
 1304TIP3    H228108   6.171   5.385   2.427  0.3974 -1.5678  0.4565
 1305TIP3   OH228109   1.417   4.422   0.876  0.5674  0.7795 -0.0835
 1305TIP3    H128110   1.503   4.381   0.888  0.5465  1.1578  1.6754
 1305TIP3    H228111   1.414   4.444   0.783  2.1425  0.2528 -0.2989
 1306TIP3   OH228112   0.288   4.946   1.687 -0.2611 -0.2163 -0.7347
 1306TIP3    H128113   0.252   5.027   1.723  1.9973  0.3096  0.5944
 1306TIP3    H228114   0.277   4.882   1.757 -0.5280 -0.5982 -1.1269
 1307TIP3   OH228115   3.201   4.968   0.089 -0.0849 -0.0050  0.3038
 1307TIP3    H128116   3.185   5.062   0.095  2.5714  0.7418 -2.1331
 1307TIP3    H228117   3.166   4.943   0.004  0.0713 -1.0572  0.5325
 1308TIP3   OH228118   2.027   6.368   0.707  0.2226 -0.1324  0.2233
 1308TIP3    H128119   2.056   6.332   0.623 -0.9573 -0.7423  0.0553
 1308TIP3    H228120   1.951   6.315   0.731  0.7176 -0.1638  1.8362
 1309TIP3   OH228121   5.382   5.424   7.461  0.1519 -0.7057 -0.1263
 1309TIP3    H128122   5.416   5.405   7.374  1.5135 -0.8056  0.3961
 1309TIP3    H228123   5.460   5.438   7.515 -0.6648 -0.2868  1.0022
 1310TIP3   OH228124   0.941   5.404   0.392 -0.4027  0.4784  0.4259
 1310TIP3    H128125   0.892   5.485   0.406 -0.8393  0.1712  0.7204
 1310TIP3    H228126   0.929   5.384   0.299 -0.2887  0.7534  0.3510
 1311TIP3   OH228127   5.099   6.086   0.710  0.7533 -0.1520 -0.1892
 1311TIP3    H128128   5.064   6.064   0.796 -0.5699 -0.1293 -0.7023
 1311TIP3    H228129   5.061   6.171   0.689  0.5355 -0.4541 -1.0669
 1312TIP3   OH228130   4.306   0.629   1.220 -0.2894  0.5732 -0.0290
 1312TIP3    H128131   4.343   0.561   1.163 -0.3153  0.1493  0.4573
 1312TIP3    H228132   4.334   0.711   1.180  2.3254  0.3001  1.0056
 1313TIP3   OH228133   0.139   3.343   1.168  0.6168  0.3167  0.3432
 1313TIP3    H128134   0.205   3.337   1.099  0.6042  0.5196  0.3132
 1313TIP3    H228135   0.130   3.254   1.201  0.4305  0.1720 -0.0965
 1314TIP3   OH228136   4.493   2.080   0.552  0.2955 -0.2685 -0.0595
 1314TIP3    H128137   4.459   1.994   0.529 -2.0145 -0.2375  2.7038
 1314TIP3    H228138   4.551   2.064   0.627  1.4427  0.4010 -0.7787
 1315TIP3   OH228139   4.052   0.748   1.037  0.0486 -0.0618 -0.2778
 1315TIP3    H128140   4.115   0.727   0.968  0.1884 -0.7283  0.0440
 1315TIP3    H228141   4.073   0.838   1.062  0.4111 -0.0364 -0.6553
 1316TIP3   OH228142   2.672   3.970   0.405 -0.1504  0.3908  0.0457
 1316TIP3    H128143   2.592   4.015   0.430 -0.9490 -1.5472  1.2493
 1316TIP3    H228144   2.692   3.914   0.480  1.7033 -0.0047 -0.6875
 1317TIP3   OH228145   2.819   4.698   0.512 -0.5150  0.0971  0.2545
 1317TIP3    H128146   2.727   4.713   0.488 -0.1057  1.4148 -0.6675
 1317TIP3    H228147   2.836   4.762   0.581 -0.4665 -0.6343  0.9316
 1318TIP3   OH228148   3.675   1.528   9.154  0.5876 -0.0990  0.7291
 1318TIP3    H128149   3.644   1.565   9.237 -1.7434 -2.4892  1.0650
 1318TIP3    H228150   3.712   1.443   9.179  3.5576  0.7862 -0.2856
 1319TIP3   OH228151   3.903   1.292   7.331 -0.0331  0.0038 -0.4925
 1319TIP3    H128152   3.942   1.269   7.246 -0.3401 -0.2937 -0.5533
 1319TIP3    H228153   3.843   1.364   7.311 -0.5073 -0.4278 -0.6132
 1320TIP3   OH228154   5.010   2.438   9.452 -0.1531 -0.2641  0.5498
 1320TIP3    H128155   5.030   2.508   9.390 -1.6927 -0.2577  0.0197
 1320TIP3    H228156   5.078   2.373   9.437  2.1209  1.6212  1.9650
 1321TIP3   OH228157   0.365   1.774   2.078 -0.1162  0.1382 -0.9276
 1321TIP3    H128158   0.446   1.723   2.086 -0.4935 -0.2425  0.9070
 1321TIP3    H228159   0.324   1.768   2.165 -1.0673  2.0739 -1.1775
 1322TIP3   OH228160   2.253   2.550   0.409 -0.8155  0.3724 -0.0842
 1322TIP3    H128161   2.187   2.489   0.375 -1.4752  0.0511  1.6176
 1322TIP3    H228162   2.332   2.531   0.360 -1.1745 -1.4521 -0.0283
 1323TIP3   OH228163   1.122   5.218   9.422 -0.2011 -0.3491  0.7943
 1323TIP3    H128164   1.181   5.293   9.417  0.3267 -0.7591  0.7529
 1323TIP3    H228165   1.137   5.182   9.510 -0.8861 -0.0609  1.0345
 1324TIP3   OH228166   5.016   2.119   2.353  0.3711  0.6196  0.0687
 1324TIP3    H128167   5.045   2.070   2.276 -1.6149  2.5903 -2.1002
 1324TIP3    H228168   5.041   2.063   2.427  0.8791 -2.2126 -2.0296
 1325TIP3   OH228169   6.708   1.716   1.528  0.0323 -0.0136 -0.3309
 1325TIP3    H128170   6.684   1.752   1.443  1.8704  0.7235 -0.5779
 1325TIP3    H228171   6.632   1.734   1.584 -0.6907  0.6085 -1.4821
 1326TIP3   OH228172   3.868   6.984   1.220  0.4257  0.2942 -0.3010
 1326TIP3    H128173   3.889   6.940   1.138 -2.2859 -2.0359  0.1228
 1326TIP3    H228174   3.789   7.034   1.201  0.2503  0.4094  0.6926
 1327TIP3   OH228175   2.147   7.117   0.929 -0.4386  0.3181 -0.6290
 1327TIP3    H128176   2.197   7.173   0.870 -0.5639  1.6850  0.5036
 1327TIP3    H228177   2.102   7.178   0.988  1.1319 -0.9405  2.0758
 1328TIP3   OH228178   2.564   6.548   0.433  0.2612 -0.0706 -0.1379
 1328TIP3    H128179   2.624   6.524   0.503  1.1039 -0.8013 -1.0922
 1328TIP3    H228180   2.478   6.520   0.465  0.9807 -3.0440 -0.5370
 1329TIP3   OH228181   0.225   4.211   1.521 -0.0769  0.3062 -0.4589
 1329TIP3    H128182   0.271   4.294   1.511  0.3879  0.3391  1.4733
 1329TIP3    H228183   0.277   4.148   1.472  1.4754  0.5525  0.8042
 1330TIP3   OH228184   3.033   5.867   1.940 -0.2067  0.1887  0.3942
 1330TIP3    H128185   3.076   5.939   1.894  3.3229 -1.9477 -0.0202
 1330TIP3    H228186   3.058   5.878   2.031 -1.5389  0.6753  0.7189
 1331TIP3   OH228187   5.225   5.311   9.518 -0.2115 -0.5587  0.2510
 1331TIP3    H128188   5.274   5.229   9.504 -0.3829 -0.5998 -0.1228
 1331TIP3    H228189   5.136   5.290   9.491 -0.6184 -0.7053  1.6515
 1332TIP3   OH228190   0.331   0.129   9.391  0.2322  0.2107 -0.1631
 1332TIP3    H128191   0.349   0.185   9.466 -1.3340 -0.2310  0.5654
 1332TIP3    H228192   0.369   0.177   9.317 -0.3080  1.8417  0.5524
 1333TIP3   OH228193   1.143   4.574   0.013 -0.1322  0.5282 -0.1911
 1333TIP3    H128194   1.144   4.482   0.041  0.5597  0.9403  1.2086
 1333TIP3    H228195   1.064   4.582  -0.040  0.2787 -1.0957 -1.1362
 1334TIP3   OH228196   6.986   0.610   2.021 -0.6728 -0.4882  0.0738
 1334TIP3    H128197   7.077   0.635   2.003 -0.2335 -0.4487  2.1866
 1334TIP3    H228198   6.939   0.693   2.027 -1.0354 -0.5215 -1.6778
 1335TIP3   OH228199   7.074   3.667   2.001 -0.5357 -0.3617  0.0565
 1335TIP3    H128200   7.026   3.708   1.929 -0.5538  0.6290  0.6153
 1335TIP3    H228201   7.093   3.739   2.062  0.7245 -0.9160  0.3632
 1336TIP3   OH228202   3.107   3.339   1.599  0.2977  0.2681  0.0180
 1336TIP3    H128203   3.057   3.389   1.663 -0.9070 -1.3113  0.3686
 1336TIP3    H228204   3.048   3.269   1.572  0.5718  1.1097 -3.1967
 1337TIP3   OH228205   1.923   3.259   0.817 -0.7235  0.6018  0.2604
 1337TIP3    H128206   1.850   3.320   0.806 -1.4842  0.1904  2.5194
 1337TIP3    H228207   1.884   3.173   0.801 -0.3949  0.4797  0.1152
 1338TIP3   OH228208   3.928   1.890   7.329  0.0535 -0.1734  0.4581
 1338TIP3    H128209   3.943   1.941   7.409  1.2541 -0.0408  0.1774
 1338TIP3    H228210   3.852   1.835   7.349 -0.2298  0.5150  1.3612
 1339TIP3   OH228211   6.599   2.676   8.529  0.3180  0.5047  0.1262
 1339TIP3    H128212   6.618   2.761   8.569 -0.6357  1.5626 -1.5512
 1339TIP3    H228213   6.547   2.697   8.451 -0.3162 -1.6600 -0.1006
 1340TIP3   OH228214   1.916   3.572   9.069 -0.7085  0.4117  0.1415
 1340TIP3    H128215   1.912   3.555   9.163 -0.8484  0.0367  0.0713
 1340TIP3    H228216   1.836   3.620   9.049  0.0099  1.7735  0.4609
 1341TIP3   OH228217   7.150   1.672   6.673 -0.2679 -0.3711 -0.0880
 1341TIP3    H128218   7.219   1.612   6.701  0.8167  1.1393  0.6485
 1341TIP3    H228219   7.070   1.621   6.678  0.5090 -1.5424  1.2758
 1342TIP3   OH228220   4.509   4.354   8.024  0.1588  0.6822 -0.1977
 1342TIP3    H128221   4.507   4.449   8.033  0.5852  0.6454  0.3424
 1342TIP3    H228222   4.591   4.328   8.066  0.6888  0.1956 -1.4716
 1343TIP3   OH228223   6.386   6.526   7.461 -0.0663  0.3408 -0.2813
 1343TIP3    H128224   6.348   6.614   7.459  0.5952  0.6570  0.4178
 1343TIP3    H228225   6.443   6.523   7.384  0.4351  0.7763  0.0673
 1344TIP3   OH228226   3.363   1.212   0.020 -0.5981 -0.1012 -0.5349
 1344TIP3    H128227   3.386   1.281  -0.042  0.9396  0.7679  0.8986
 1344TIP3    H228228   3.428   1.144   0.004 -3.0749 -2.0938 -3.0620
 1345TIP3   OH228229   0.665   3.301   1.489  0.0779  0.3409 -0.3597
 1345TIP3    H128230   0.714   3.223   1.462  0.6860  0.4415  0.4196
 1345TIP3    H228231   0.671   3.300   1.585 -2.3216 -0.2291 -0.1373
 1346TIP3   OH228232   3.519   2.106   1.553  0.3265 -0.3405  0.5191
 1346TIP3    H128233   3.434   2.131   1.588 -0.1958 -0.8597 -0.3419
 1346TIP3    H228234   3.499   2.051   1.477  1.4242 -0.2373  0.1302
 1347TIP3   OH228235   7.063   4.520   1.182 -0.3319  0.4425  0.0140
 1347TIP3    H128236   6.987   4.562   1.142  0.1497  0.7755 -0.5673
 1347TIP3    H228237   7.077   4.441   1.131  0.4547  1.0128 -0.6627
 1348TIP3   OH228238   1.448   3.803   9.022  0.1812 -0.4021  0.1027
 1348TIP3    H128239   1.434   3.766   8.935 -1.8000 -0.2121  0.2883
 1348TIP3    H228240   1.407   3.890   9.018 -0.8593 -0.7889  1.4730
 1349TIP3   OH228241   6.349   5.089   0.943  0.2820 -0.0181 -0.0112
 1349TIP3    H128242   6.350   5.052   1.031  0.2388  1.9983  0.8904
 1349TIP3    H228243   6.328   5.015   0.886  0.4152 -1.3945  1.6435
 1350TIP3   OH228244   1.559   2.585   1.750  0.2167 -0.0453  0.5484
 1350TIP3    H128245   1.568   2.492   1.770 -0.4506 -0.2422 -0.0115
 1350TIP3    H228246   1.645   2.623   1.769  0.9408 -1.0365 -0.6666
 1351TIP3   OH228247   1.590   0.155   7.675 -0.5588  0.5158 -0.0062
 1351TIP3    H128248   1.608   0.249   7.672 -0.2919  0.5190  1.3315
 1351TIP3    H228249   1.660   0.116   7.622  0.5440  0.9348  1.0833
 1352TIP3   OH228250   5.524   4.712   8.049 -0.2451  0.1895  0.0462
 1352TIP3    H128251   5.476   4.794   8.035 -1.4682 -0.4935  0.1268
 1352TIP3    H228252   5.456   4.645   8.055  0.6251 -0.6139  1.6898
 1353TIP3   OH228253   5.538   6.423   8.543  0.6232 -0.2452 -0.0081
 1353TIP3    H128254   5.620   6.378   8.522  0.9387 -1.4159  3.1516
 1353TIP3    H228255   5.565   6.500   8.594 -0.2038  0.2564 -0.2991
 1354TIP3   OH228256   5.413   2.835   9.663  0.0315  0.3053 -0.3080
 1354TIP3    H128257   5.484   2.843   9.599  1.5020 -1.4049  1.0069
 1354TIP3    H228258   5.343   2.790   9.615  0.9161 -0.5216 -0.8629
 1355TIP3   OH228259   4.794   5.689   2.305 -0.1469  0.0930 -0.0172
 1355TIP3    H128260   4.700   5.698   2.318  0.0031 -0.9299  2.2632
 1355TIP3    H228261   4.807   5.701   2.211 -2.6457 -0.6688 -0.5226
 1356TIP3   OH228262   3.257   2.101   0.609 -0.3815 -0.5899 -0.0755
 1356TIP3    H128263   3.296   2.184   0.581  1.2035 -1.3615 -0.2646
 1356TIP3    H228264   3.318   2.034   0.577 -1.2291 -1.7903  0.7399
 1357TIP3   OH228265   4.619   3.363   8.342  0.1549  0.4152  0.1296
 1357TIP3    H128266   4.584   3.339   8.256  2.1993  0.3389 -0.7675
 1357TIP3    H228267   4.550   3.342   8.404 -1.6075  1.0083 -1.5500
 1358TIP3   OH228268   5.624   0.869   9.261 -0.0576 -0.1030  0.1050
 1358TIP3    H128269   5.629   0.776   9.240 -0.3769 -0.4951  1.6845
 1358TIP3    H228270   5.714   0.899   9.265  0.2445 -1.1216  2.7555
 1359TIP3   OH228271   5.863   7.280   1.688  0.0767  0.4499  0.6240
 1359TIP3    H128272   5.892   7.238   1.769 -0.0974 -1.2525 -0.1507
 1359TIP3    H228273   5.777   7.318   1.710 -0.9623 -1.8133  0.7469
 1360TIP3   OH228274   7.362   4.933   1.411  0.6053 -0.0187  0.3875
 1360TIP3    H128275   7.390   4.860   1.465  0.9758  0.1150  0.3740
 1360TIP3    H228276   7.376   4.903   1.321  2.0064  0.5564  0.3944
 1361TIP3   OH228277   0.538   2.724   2.410  0.4841 -0.3775 -0.6272
 1361TIP3    H128278   0.486   2.775   2.473  1.6683 -0.5978  0.5880
 1361TIP3    H228279   0.554   2.784   2.338  0.5835  0.4800  0.0933
 1362TIP3   OH228280   2.561   4.522   0.212 -0.2984  0.0004 -0.3727
 1362TIP3    H128281   2.498   4.483   0.274 -2.0788  0.6938 -1.6734
 1362TIP3    H228282   2.536   4.614   0.208  0.0701  0.0496 -1.7950
 1363TIP3   OH228283   2.203   1.931   7.282 -0.0132 -0.8415 -0.1450
 1363TIP3    H128284   2.222   1.870   7.210 -0.4525  0.3178 -1.2966
 1363TIP3    H228285   2.289   1.964   7.308  0.0630 -0.3357 -1.0081
 1364TIP3   OH228286   6.326   3.064   0.768 -0.1355  0.2912 -0.1411
 1364TIP3    H128287   6.408   3.112   0.782 -0.8180  1.4072  0.1554
 1364TIP3    H228288   6.340   2.980   0.812  0.1803  1.1871  1.5688
 1365TIP3   OH228289   4.456   2.675   0.901  0.1781  0.7335  0.3747
 1365TIP3    H128290   4.462   2.677   0.806  0.2055 -0.6573  0.3237
 1365TIP3    H228291   4.410   2.593   0.921 -1.3197  1.7978  1.4998
 1366TIP3   OH228292   1.717   3.153   1.130 -0.2367  0.0848  0.0653
 1366TIP3    H128293   1.661   3.097   1.182 -0.6821  0.6706  0.2229
 1366TIP3    H228294   1.657   3.207   1.079  0.1886 -0.1119 -0.6622
 1367TIP3   OH228295   5.386   5.645   1.356  0.0902  0.4600  0.0557
 1367TIP3    H128296   5.458   5.683   1.306 -2.2684  1.1369 -3.1297
 1367TIP3    H228297   5.371   5.560   1.317 -0.8292  0.3076  0.7051
 1368TIP3   OH228298   3.174   7.338   2.405 -0.3986  0.1546  0.0226
 1368TIP3    H128299   3.192   7.345   2.499  0.7017 -1.2127 -0.0622
 1368TIP3    H228300   3.259   7.320   2.365 -1.2713 -2.3521 -0.8908
 1369TIP3   OH228301   0.109   5.263   1.278  0.2556  0.4360 -0.1482
 1369TIP3    H128302   0.074   5.216   1.202  0.3751  1.6183 -0.9702
 1369TIP3    H228303   0.031   5.298   1.322  0.2506  1.3808 -0.8525
 1370TIP3   OH228304   3.527   7.238   1.472 -0.7915 -0.2170 -0.0064
 1370TIP3    H128305   3.560   7.305   1.413  0.0072 -0.4240  0.1988
 1370TIP3    H228306   3.604   7.189   1.500 -1.3435 -1.1629 -0.0700
 1371TIP3   OH228307   2.482   7.237   2.361  0.1417  0.1510  0.5943
 1371TIP3    H128308   2.525   7.287   2.430  1.7551 -0.5069  0.0970
 1371TIP3    H228309   2.462   7.152   2.402  0.0073  0.1801  0.5917
 1372TIP3   OH228310   4.022   6.723   0.502 -0.0909 -0.2428  0.0035
 1372TIP3    H128311   4.060   6.776   0.572  0.8167 -0.0507 -0.6135
 1372TIP3    H228312   4.028   6.779   0.424 -1.4273 -0.3071 -0.1712
 1373TIP3   OH228313   2.486   7.313   0.990  0.1988 -0.2411 -0.1876
 1373TIP3    H128314   2.504   7.225   1.023 -0.3891  0.1626  1.2684
 1373TIP3    H228315   2.573   7.351   0.973  0.4481 -1.6908 -2.5795
 1374TIP3   OH228316   0.710   7.061   0.517 -0.8284  0.0441  0.0897
 1374TIP3    H128317   0.719   6.999   0.444 -0.1592  0.5697 -0.2932
 1374TIP3    H228318   0.772   7.030   0.583 -1.5304 -0.5084  0.5043
 1375TIP3   OH228319   1.019   4.634   0.532 -0.1547  0.3047  0.3601
 1375TIP3    H128320   0.998   4.548   0.495  0.7103 -0.5551  1.7823
 1375TIP3    H228321   1.058   4.682   0.459  0.3221 -0.8933 -0.2129
 1376TIP3   OH228322   4.903   2.485   3.018  0.0305  0.1023  0.0057
 1376TIP3    H128323   4.850   2.564   3.006 -0.4815 -0.1024  0.8279
 1376TIP3    H228324   4.991   2.518   3.037 -0.1634  0.4752  0.2806
 1377TIP3   OH228325   4.640   0.837   8.750  0.0957 -0.1620  0.0671
 1377TIP3    H128326   4.628   0.907   8.814  0.6141 -0.5955  0.6528
 1377TIP3    H228327   4.573   0.853   8.684 -0.7289  0.0570  0.9346
 1378TIP3   OH228328   3.832   2.239   9.132  0.0197 -0.5486  0.4788
 1378TIP3    H128329   3.903   2.295   9.101  1.6055 -2.5966  0.1668
 1378TIP3    H228330   3.755   2.295   9.131  1.0433  0.9985 -2.0270
 1379TIP3   OH228331   2.428   5.040   0.236  0.3125  0.0363  0.4433
 1379TIP3    H128332   2.348   5.092   0.237 -0.9281 -1.7679 -0.3072
 1379TIP3    H228333   2.463   5.049   0.325  0.2574  2.2068  0.3195
 1380TIP3   OH228334   6.102   0.292   8.929 -0.4636  0.7552  0.4635
 1380TIP3    H128335   6.029   0.292   8.868  0.1281 -0.1810 -0.2501
 1380TIP3    H228336   6.061   0.292   9.016 -1.2982  1.0687  0.0719
 1381TIP3   OH228337   7.355   6.558   1.925  0.0026  0.1173  0.3568
 1381TIP3    H128338   7.275   6.605   1.899 -0.7950 -1.3534  0.0308
 1381TIP3    H228339   7.421   6.587   1.863 -0.3468  1.1021  0.4192
 1382TIP3   OH228340   2.424   4.084   2.148 -0.0707 -0.1678  0.0481
 1382TIP3    H128341   2.386   4.169   2.171 -1.9063 -0.7149 -0.7777
 1382TIP3    H228342   2.410   4.077   2.053  2.2873 -0.3641 -0.3456
 1383TIP3   OH228343   4.344   6.649   8.156  0.6426  0.4891 -0.9193
 1383TIP3    H128344   4.324   6.740   8.178  0.6213  0.6250 -1.4867
 1383TIP3    H228345   4.303   6.635   8.070  0.9847  0.0678 -1.0194
 1384TIP3   OH228346   5.765   6.073   7.371 -0.8216 -0.0595 -0.1020
 1384TIP3    H128347   5.821   6.047   7.444  1.3047  0.0468 -1.6102
 1384TIP3    H228348   5.686   6.107   7.413  0.7101  0.9757  2.1936
 1385TIP3   OH228349   0.562   6.857   0.947  0.0933 -0.0000  0.9544
 1385TIP3    H128350   0.560   6.833   0.854  0.5886 -1.0213  1.1898
 1385TIP3    H228351   0.473   6.885   0.967  0.2639  1.4219 -0.1171
 1386TIP3   OH228352   2.806   4.500   7.358  0.6493  0.1917  0.5380
 1386TIP3    H128353   2.805   4.442   7.434  0.8920  0.5428  0.8144
 1386TIP3    H228354   2.794   4.442   7.283  1.8246 -0.3314  0.7356
 1387TIP3   OH228355   6.908   3.358   1.720  0.3076  0.4907  0.1376
 1387TIP3    H128356   6.872   3.396   1.640  0.9975  0.0915 -0.3721
 1387TIP3    H228357   6.902   3.264   1.707  1.7512  0.3976 -0.0845
 1388TIP3   OH228358   7.272   1.864   7.455  0.3711  0.2828 -0.5367
 1388TIP3    H128359   7.353   1.828   7.419 -0.1741 -2.2415  0.5112
 1388TIP3    H228360   7.296   1.898   7.541  0.6534  1.3317 -1.0179
 1389TIP3   OH228361   2.176   1.125   2.571  0.0692 -0.2517 -0.1027
 1389TIP3    H128362   2.096   1.134   2.622  0.8308  0.4697  1.0140
 1389TIP3    H228363   2.206   1.216   2.559  0.0012 -0.4149 -1.7015
 1390TIP3   OH228364   2.404   2.849   7.437  0.2412  0.8580  0.0552
 1390TIP3    H128365   2.416   2.938   7.404 -0.7749  1.9242  2.3012
 1390TIP3    H228366   2.324   2.854   7.489  0.7880 -1.0785  1.1742
 1391TIP3   OH228367   2.403   1.794   9.177 -0.4809  0.1751  0.1231
 1391TIP3    H128368   2.309   1.802   9.158  0.3418  1.6159 -4.5697
 1391TIP3    H228369   2.427   1.709   9.141 -0.0375 -0.6665  2.2561
 1392TIP3   OH228370   5.625   1.708   8.642  0.9747 -0.4896  0.4091
 1392TIP3    H128371   5.696   1.771   8.658  0.9451 -0.4597  0.4236
 1392TIP3    H228372   5.647   1.669   8.557  1.2654 -0.8272  0.6348
 1393TIP3   OH228373   2.707   3.888   7.497 -0.6737  0.0445 -0.2809
 1393TIP3    H128374   2.775   3.841   7.544 -1.0952 -1.1928 -0.8554
 1393TIP3    H228375   2.639   3.904   7.562  0.7262  2.6168  0.6739
 1394TIP3   OH228376   5.749   1.835   0.468 -0.6512  0.8004  0.5349
 1394TIP3    H128377   5.758   1.828   0.563  0.8757  0.5997  0.3984
 1394TIP3    H228378   5.838   1.829   0.435 -1.2363 -0.0336 -0.9863
 1395TIP3   OH228379   1.982   1.260   8.601  0.0587  0.4274  0.2183
 1395TIP3    H128380   1.975   1.293   8.511 -1.3069  1.2192  0.5838
 1395TIP3    H228381   2.069   1.286   8.629  0.0528  1.2425 -0.4728
 1396TIP3   OH228382   6.707   2.818   0.957  0.0441  0.0666  0.0903
 1396TIP3    H128383   6.716   2.844   0.866 -0.5213 -0.5576 -0.1537
 1396TIP3    H228384   6.630   2.761   0.958 -0.5147  0.8041  1.1180
 1397TIP3   OH228385   6.568   7.160   8.340  0.4134  0.1259  0.1740
 1397TIP3    H128386   6.476   7.183   8.354  0.7512  0.9588  1.1123
 1397TIP3    H228387   6.580   7.168   8.245 -0.2790  0.7877  0.1351
 1398TIP3   OH228388   4.150   6.472   0.497  0.0129  0.5355 -0.1166
 1398TIP3    H128389   4.120   6.562   0.487 -1.4311 -0.0603 -1.8896
 1398TIP3    H228390   4.095   6.422   0.436  1.6886 -1.3442 -0.1905
 1399TIP3   OH228391   2.358   4.904   2.546 -0.0874  0.2229 -0.3602
 1399TIP3    H128392   2.313   4.822   2.564  1.2215 -0.5457 -0.4848
 1399TIP3    H228393   2.449   4.879   2.533  0.1959  1.6054 -1.1928
 1400TIP3   OH228394   4.782   6.259   9.510 -0.3540  0.1371 -0.0688
 1400TIP3    H128395   4.793   6.179   9.459 -1.0272 -0.1474  0.2205
 1400TIP3    H228396   4.802   6.330   9.448  1.7363 -0.2667  0.0733
 1401TIP3   OH228397   1.442   5.113   6.685  0.0470 -0.2425 -0.6277
 1401TIP3    H128398   1.525   5.072   6.709 -0.8213 -1.7400 -0.0547
 1401TIP3    H228399   1.462   5.207   6.681  1.9363 -0.6099 -1.2585
 1402TIP3   OH228400   4.343   7.351   0.881 -0.7153  0.2474 -0.0521
 1402TIP3    H128401   4.318   7.314   0.967  0.1631 -0.0996  0.0647
 1402TIP3    H228402   4.356   7.444   0.898  1.7846 -0.1603  0.7841
 1403TIP3   OH228403   1.266   5.495   2.671 -0.3501 -0.0430  0.2569
 1403TIP3    H128404   1.274   5.570   2.612  0.7474  1.0951  1.7756
 1403TIP3    H228405   1.183   5.509   2.717 -0.2830  0.0894  0.3377
 1404TIP3   OH228406   2.739   6.253   7.300  0.2732  0.1476 -0.1332
 1404TIP3    H128407   2.664   6.250   7.241 -0.0468  1.1109  0.2014
 1404TIP3    H228408   2.808   6.296   7.250  0.6388 -0.7971 -0.4637
 1405TIP3   OH228409   5.755   5.248   2.091 -0.4276  0.0619  0.3273
 1405TIP3    H128410   5.690   5.180   2.077  1.8192 -2.0154 -0.8131
 1405TIP3    H228411   5.797   5.224   2.174 -1.4054  1.7166  1.3646
 1406TIP3   OH228412   0.674   4.749   7.276 -0.9897  0.0549  0.1943
 1406TIP3    H128413   0.752   4.784   7.232 -1.0894  0.7730  0.5781
 1406TIP3    H228414   0.680   4.781   7.366  0.4172 -3.2694  1.4624
 1407TIP3   OH228415   3.248   4.904   6.648  0.0178 -0.0596 -0.3284
 1407TIP3    H128416   3.332   4.928   6.608  0.8714  0.6486  1.7347
 1407TIP3    H228417   3.188   4.974   6.624  0.9865  1.2920  0.9872
 1408TIP3   OH228418   5.519   1.090   9.429 -0.4593  0.1863  0.6390
 1408TIP3    H128419   5.504   1.047   9.344 -0.7411 -1.3014  1.4127
 1408TIP3    H228420   5.534   1.182   9.406  0.0256 -0.2709 -1.0756
 1409TIP3   OH228421   6.008   5.292   8.305  0.1383 -0.3387  0.7369
 1409TIP3    H128422   5.941   5.358   8.287 -0.3588 -0.9471  0.2501
 1409TIP3    H228423   5.964   5.230   8.363 -0.0982 -1.2894 -0.3952
 1410TIP3   OH228424   6.029   6.296   0.059  0.6311 -0.4170  0.1797
 1410TIP3    H128425   6.071   6.272   0.141 -1.2791 -0.4849  1.1808
 1410TIP3    H228426   6.000   6.212   0.021 -2.0900 -0.1571  1.4919
 1411TIP3   OH228427   0.476   0.621   0.980 -0.1589 -0.6296  0.0523
 1411TIP3    H128428   0.454   0.698   0.928  1.6708  0.3505  0.6172
 1411TIP3    H228429   0.473   0.548   0.918 -0.3633  0.1402 -0.8645
 1412TIP3   OH228430   4.465   0.358   1.330 -0.5163 -0.3459  0.4139
 1412TIP3    H128431   4.553   0.396   1.340 -0.2771 -0.5287 -0.8153
 1412TIP3    H228432   4.409   0.413   1.384  0.2069  0.3567  0.4702
 1413TIP3   OH228433   6.253   1.546   1.634  0.6135  0.1920  0.7481
 1413TIP3    H128434   6.260   1.550   1.729  1.0499  1.2772  0.6926
 1413TIP3    H228435   6.319   1.483   1.607 -0.1173 -0.8062  1.2052
 1414TIP3   OH228436   5.916   3.062   8.081  0.4453  0.2707 -0.2850
 1414TIP3    H128437   5.847   3.007   8.043  0.3406 -0.3303  0.7503
 1414TIP3    H228438   5.982   3.069   8.012 -1.1575  1.8381 -1.7388
 1415TIP3   OH228439   4.198   0.396   8.733 -0.3940 -0.0498 -0.3770
 1415TIP3    H128440   4.265   0.394   8.800 -2.0738 -0.4541  1.3710
 1415TIP3    H228441   4.173   0.304   8.720 -0.2262  0.0348 -1.4444
 1416TIP3   OH228442   0.694   3.881   0.699 -0.3156  0.3559 -0.1121
 1416TIP3    H128443   0.649   3.874   0.784 -0.3075  0.8550 -0.0679
 1416TIP3    H228444   0.712   3.790   0.675 -1.2099  0.1562 -0.0556
 1417TIP3   OH228445   1.173   1.406   0.049  0.0337  0.5960 -0.0865
 1417TIP3    H128446   1.150   1.497   0.032  2.3846  1.4647  0.9251
 1417TIP3    H228447   1.125   1.383   0.128  1.6325  2.0244  1.4059
 1418TIP3   OH228448   7.341   6.843   7.886 -0.0825  0.1009 -0.4103
 1418TIP3    H128449   7.393   6.896   7.825  1.1365  1.3018  1.5680
 1418TIP3    H228450   7.403   6.778   7.920 -0.7923 -0.6670 -0.5522
 1419TIP3   OH228451   3.858   0.902   0.335 -0.1470 -0.3252 -0.2481
 1419TIP3    H128452   3.911   0.828   0.363  1.2990  0.0528 -1.8471
 1419TIP3    H228453   3.837   0.885   0.243 -1.0597  0.5484 -0.2271
 1420TIP3   OH228454   6.892   2.031   1.632 -0.8006 -0.3800  1.0428
 1420TIP3    H128455   6.910   1.999   1.544 -0.2734  1.0559  0.6009
 1420TIP3    H228456   6.938   1.971   1.690  1.2280  0.2510  0.1876
 1421TIP3   OH228457   1.163   5.511   2.077  0.5507 -0.7638  0.3755
 1421TIP3    H128458   1.218   5.526   2.154  1.6500 -0.4942 -0.4374
 1421TIP3    H228459   1.225   5.495   2.006 -0.2246  2.7122 -1.2987
 1422TIP3   OH228460   4.202   4.826   7.082 -0.1004  0.2703 -0.5241
 1422TIP3    H128461   4.141   4.757   7.057 -0.7523  0.6400 -0.0242
 1422TIP3    H228462   4.190   4.835   7.177  1.7395 -0.5777 -0.1808
 1423TIP3   OH228463   1.199   3.524   7.197 -0.5883 -0.1408  0.7129
 1423TIP3    H128464   1.150   3.458   7.246 -0.5467 -0.0767  0.8388
 1423TIP3    H228465   1.138   3.551   7.128  0.0211 -1.5953 -0.4462
 1424TIP3   OH228466   6.554   0.200   2.016  0.1216 -0.3775 -0.3257
 1424TIP3    H128467   6.638   0.180   1.974 -0.0549 -1.1104 -0.3412
 1424TIP3    H228468   6.489   0.187   1.947 -0.1400 -1.2738  0.0740
 1425TIP3   OH228469   0.196   3.477   7.703 -0.5512  0.4905 -0.7455
 1425TIP3    H128470   0.196   3.570   7.725 -2.4951  0.5531 -0.7801
 1425TIP3    H228471   0.112   3.463   7.660  0.1453 -1.0896 -1.6742
 1426TIP3   OH228472   4.016   4.400   8.692 -0.4034 -0.0277  0.5715
 1426TIP3    H128473   4.034   4.313   8.725  0.3379  0.6241  1.9878
 1426TIP3    H228474   4.044   4.459   8.762 -1.7096  1.3240  0.0200
 1427TIP3   OH228475   5.561   4.833   7.509 -0.3582 -0.4231  0.5935
 1427TIP3    H128476   5.651   4.838   7.542  0.0277 -0.4179 -0.4347
 1427TIP3    H228477   5.533   4.924   7.501 -0.4179 -0.4224  0.7915
 1428TIP3   OH228478   0.359   6.844   1.854 -0.6710  0.2239 -0.0738
 1428TIP3    H128479   0.326   6.779   1.791 -1.4524  2.2204 -1.8264
 1428TIP3    H228480   0.284   6.865   1.909 -0.2420 -0.7792  0.9535
 1429TIP3   OH228481   1.243   4.000   0.692  0.4685  0.1133 -0.2553
 1429TIP3    H128482   1.295   3.998   0.772  0.9356 -2.6022 -0.5197
 1429TIP3    H228483   1.157   3.965   0.719 -1.0125  3.5216 -0.0509
 1430TIP3   OH228484   6.889   5.635   1.410  0.5967 -0.1763  0.7255
 1430TIP3    H128485   6.807   5.593   1.434  1.1020 -1.4601  0.2716
 1430TIP3    H228486   6.882   5.723   1.446 -1.1141 -0.1480  0.4107
 1431TIP3   OH228487   2.471   5.527   8.001  0.2524 -0.4313  0.4536
 1431TIP3    H128488   2.530   5.486   8.064  0.0639  0.4934  1.2682
 1431TIP3    H228489   2.397   5.556   8.054 -1.7313 -2.9137 -0.7358
 1432TIP3   OH228490   1.595   6.960   0.452  0.0768  0.1245 -0.2700
 1432TIP3    H128491   1.541   6.955   0.374 -0.2156  0.3590 -0.0873
 1432TIP3    H228492   1.622   7.052   0.457 -1.0388  0.4335  0.6422
 1433TIP3   OH228493   6.757   4.490   0.425 -0.2538  0.2388  0.4680
 1433TIP3    H128494   6.808   4.523   0.351  1.2933 -0.4700  1.1661
 1433TIP3    H228495   6.751   4.396   0.409  1.2695 -0.1540  1.8517
 1434TIP3   OH228496   7.008   4.746   9.647 -0.1413 -0.0916  0.5924
 1434TIP3    H128497   7.033   4.820   9.704  1.1169  0.0914 -0.1566
 1434TIP3    H228498   7.083   4.734   9.589 -0.4310 -1.8063  0.5190
 1435TIP3   OH228499   5.855   0.293   1.031 -0.1604  0.1142 -0.2801
 1435TIP3    H128500   5.935   0.345   1.020  0.2575 -0.5181 -0.2985
 1435TIP3    H228501   5.858   0.265   1.123 -0.3692  0.0930 -0.2798
 1436TIP3   OH228502   4.254   3.953   2.532 -0.4226 -0.1006 -0.5325
 1436TIP3    H128503   4.284   3.875   2.487 -0.6152 -0.9642  0.7804
 1436TIP3    H228504   4.190   3.921   2.596 -1.2171  1.2406 -0.6092
 1437TIP3   OH228505   1.105   3.980   2.252 -0.0729 -0.8209 -0.8560
 1437TIP3    H128506   1.147   3.899   2.222 -0.7227 -1.0798 -1.0876
 1437TIP3    H228507   1.013   3.956   2.262 -0.1147 -0.3374 -0.0718
 1438TIP3   OH228508   2.317   3.332   8.333  0.2018  0.2884  0.0577
 1438TIP3    H128509   2.299   3.338   8.240 -0.1687 -1.8411 -0.0490
 1438TIP3    H228510   2.346   3.242   8.347  3.0772  1.2953  1.5403
 1439TIP3   OH228511   5.158   3.370   8.871 -0.0317 -0.0363  0.0460
 1439TIP3    H128512   5.069   3.340   8.860 -0.1377  0.7708 -1.5252
 1439TIP3    H228513   5.149   3.454   8.917  0.0400 -0.6417  1.2093
 1440TIP3   OH228514   2.562   2.089   7.105  0.5979 -0.0762  0.0200
 1440TIP3    H128515   2.573   2.125   7.017 -1.0045 -2.1259 -1.1088
 1440TIP3    H228516   2.623   2.016   7.109  0.7509  0.0797  0.6814
 1441TIP3   OH228517   0.650   4.568   8.305  0.1431  0.0932  0.0548
 1441TIP3    H128518   0.682   4.524   8.384  1.0922  1.2987  0.3653
 1441TIP3    H228519   0.723   4.624   8.277 -0.6631  0.7001 -0.8967
 1442TIP3   OH228520   1.907   3.080   7.731  0.3622 -0.0332 -0.2516
 1442TIP3    H128521   1.967   3.062   7.803 -0.0269  0.9438  0.3294
 1442TIP3    H228522   1.964   3.089   7.654  0.8907  0.1860  0.1637
 1443TIP3   OH228523   3.091   1.464   8.534  0.4994 -0.0907  0.6552
 1443TIP3    H128524   3.149   1.439   8.605  0.8875  1.4529  0.9044
 1443TIP3    H228525   3.034   1.531   8.571  0.4496  0.4619 -0.3859
 1444TIP3   OH228526   2.184   6.638   1.142 -0.0852 -0.0610 -0.0763
 1444TIP3    H128527   2.220   6.550   1.149 -1.5726 -0.6866 -0.0602
 1444TIP3    H228528   2.249   6.686   1.089 -0.0296 -1.6048 -1.4797
 1445TIP3   OH228529   4.772   7.413   9.395  0.5106  0.0688  0.4963
 1445TIP3    H128530   4.841   7.479   9.387 -0.7773  1.2535 -2.3035
 1445TIP3    H228531   4.812   7.333   9.363  0.7797  0.6680 -0.7583
 1446TIP3   OH228532   5.313   6.338   0.768 -0.1165  0.2540 -0.2363
 1446TIP3    H128533   5.319   6.270   0.700 -1.0381  0.4437 -0.5301
 1446TIP3    H228534   5.254   6.403   0.730  0.7750  1.2413  0.0362
 1447TIP3   OH228535   2.199   5.876   8.699 -0.4574 -0.2198 -0.0108
 1447TIP3    H128536   2.291   5.879   8.725 -0.1569  0.4022 -1.0725
 1447TIP3    H228537   2.150   5.874   8.781  0.5142 -1.2427  0.5699
 1448TIP3   OH228538   3.926   3.161   8.375 -0.2784  0.5824 -0.1224
 1448TIP3    H128539   3.871   3.126   8.305  0.9616 -1.8931 -0.0068
 1448TIP3    H228540   3.891   3.122   8.455  1.2947 -0.7335 -0.0089
 1449TIP3   OH228541   0.375   2.868   2.580 -0.0726  0.0389  0.0431
 1449TIP3    H128542   0.291   2.858   2.624  1.0352 -2.5827  1.7794
 1449TIP3    H228543   0.438   2.875   2.651  1.4855 -1.1242 -1.1670
 1450TIP3   OH228544   0.697   0.632   6.332  0.1330  0.2887 -0.5493
 1450TIP3    H128545   0.696   0.555   6.389  0.4769  0.4331 -0.3458
 1450TIP3    H228546   0.672   0.599   6.246 -1.5513  0.2475 -0.0884
 1451TIP3   OH228547   3.244   6.875   1.000  0.1960 -0.5323  0.1186
 1451TIP3    H128548   3.242   6.969   0.985 -2.5338 -0.6390 -0.7880
 1451TIP3    H228549   3.163   6.856   1.047 -0.1458 -2.5773 -1.1383
 1452TIP3   OH228550   3.813   0.607   6.822 -0.3278 -0.3950  0.1453
 1452TIP3    H128551   3.743   0.620   6.886  0.2413 -1.3903  1.0017
 1452TIP3    H228552   3.768   0.596   6.738 -1.1086  0.4213  0.4412
 1453TIP3   OH228553   3.397   0.389   1.932 -0.3704  0.0468  0.3050
 1453TIP3    H128554   3.408   0.434   2.016  0.3407  0.7296 -0.1406
 1453TIP3    H228555   3.407   0.297   1.953 -2.7794 -0.0459  1.4057
 1454TIP3   OH228556   3.036   4.698   7.199 -0.0854 -0.0186  0.7761
 1454TIP3    H128557   3.089   4.628   7.237  1.3036  0.6353  0.1376
 1454TIP3    H228558   2.951   4.658   7.183  0.5967 -1.4857  0.6762
 1455TIP3   OH228559   4.910   5.361   1.404 -0.2155 -0.4157  0.3799
 1455TIP3    H128560   4.917   5.427   1.473  0.2887 -1.1793  1.0867
 1455TIP3    H228561   4.991   5.370   1.353  0.3685 -1.1786  1.1357
 1456TIP3   OH228562   5.606   3.892   7.957 -0.2344  0.2647 -0.2559
 1456TIP3    H128563   5.661   3.917   7.882 -0.6135 -0.3048 -0.7342
 1456TIP3    H228564   5.655   3.922   8.033  2.3804 -2.9579 -0.4157
 1457TIP3   OH228565   3.797   1.038   1.876 -0.0757  0.2502  0.1609
 1457TIP3    H128566   3.873   1.032   1.818 -0.5223 -0.1246 -0.3940
 1457TIP3    H228567   3.765   0.948   1.883 -1.7949  0.6687 -1.4154
 1458TIP3   OH228568   0.822   0.642   9.288 -0.2911 -0.2082  0.2876
 1458TIP3    H128569   0.879   0.671   9.360  0.5338 -0.7057 -0.1498
 1458TIP3    H228570   0.864   0.675   9.209 -0.3201 -1.0481 -0.0828
 1459TIP3   OH228571   5.050   4.008   9.387  0.4430 -0.7716 -0.3146
 1459TIP3    H128572   4.960   4.007   9.355  0.1950 -1.6887  0.3577
 1459TIP3    H228573   5.057   4.091   9.435  0.4691  0.0613 -1.7263
 1460TIP3   OH228574   1.440   1.601   1.734  0.3622  0.1590 -0.6433
 1460TIP3    H128575   1.410   1.521   1.777  0.1907  0.5054 -0.1123
 1460TIP3    H228576   1.406   1.594   1.644 -2.8996  1.3247  0.3402
 1461TIP3   OH228577   4.099   1.200   1.447  0.2920 -0.1703 -0.4882
 1461TIP3    H128578   4.086   1.106   1.433  0.0412 -0.0357 -1.1773
 1461TIP3    H228579   4.014   1.232   1.477  0.7386 -0.3991  1.1415
 1462TIP3   OH228580   3.245   6.904   2.112  0.3020  0.1980  0.1607
 1462TIP3    H128581   3.249   6.909   2.207 -2.3424  3.9185  0.2993
 1462TIP3    H228582   3.182   6.833   2.095 -0.6722  0.7596  1.3044
 1463TIP3   OH228583   5.913   6.426   8.054  0.1074 -0.5780 -0.3216
 1463TIP3    H128584   5.842   6.396   8.112  0.2668 -1.7028 -0.6851
 1463TIP3    H228585   5.966   6.484   8.110 -0.0986 -1.1372  0.4787
 1464TIP3   OH228586   0.354   3.563   1.706  0.2952  0.3668 -0.2570
 1464TIP3    H128587   0.409   3.640   1.692  2.0830 -0.8675 -0.4903
 1464TIP3    H228588   0.369   3.508   1.629 -0.3137 -0.5620  0.2595
 1465TIP3   OH228589   4.981   3.417   9.662  0.2242 -0.3068 -0.0735
 1465TIP3    H128590   4.978   3.461   9.577 -1.0538 -0.9411 -0.3755
 1465TIP3    H228591   5.069   3.435   9.695  0.1234  1.5160 -0.6779
 1466TIP3   OH228592   5.677   6.698   0.156  0.3312  0.2110  0.7361
 1466TIP3    H128593   5.761   6.661   0.184  0.0223 -1.7750 -0.6912
 1466TIP3    H228594   5.700   6.757   0.084  0.5139 -0.4871  0.2095
 1467TIP3   OH228595   6.706   5.357   6.440 -0.4863 -0.6859 -0.1260
 1467TIP3    H128596   6.702   5.349   6.536 -0.5470 -2.5513 -0.2470
 1467TIP3    H228597   6.620   5.390   6.415 -0.3855  0.0537  0.4753
 1468TIP3   OH228598   5.513   6.003   2.181  0.5198  0.1362  0.2173
 1468TIP3    H128599   5.604   5.999   2.151  0.5434  0.2256  0.2745
 1468TIP3    H228600   5.466   6.047   2.109  0.5531  0.2412  0.2601
 1469TIP3   OH228601   3.022   4.125   0.407 -0.2208  0.8491  0.0304
 1469TIP3    H128602   3.073   4.164   0.478  0.5778  0.9797 -0.6032
 1469TIP3    H228603   3.060   4.038   0.395 -1.0976  0.3800  0.5104
 1470TIP3   OH228604   3.694   7.133   2.202 -0.0047 -0.1291  0.2932
 1470TIP3    H128605   3.762   7.197   2.180  0.1140  0.4119  2.0436
 1470TIP3    H228606   3.740   7.050   2.209  0.0775 -0.1737 -0.6656
 1471TIP3   OH228607   3.597   3.708   0.588  0.0415  0.0757  0.2396
 1471TIP3    H128608   3.647   3.765   0.646 -1.1716  0.5877  0.8140
 1471TIP3    H228609   3.525   3.762   0.556  0.7073 -0.1821 -1.8265
 1472TIP3   OH228610   1.803   4.728   1.820 -0.1217  0.0191 -0.2386
 1472TIP3    H128611   1.790   4.644   1.775  0.7563  0.4347 -1.2971
 1472TIP3    H228612   1.797   4.794   1.751 -1.8046  0.9445  0.7330
 1473TIP3   OH228613   5.978   0.911   0.837  0.4120 -0.6627  0.0804
 1473TIP3    H128614   5.883   0.923   0.840  0.4860 -0.2438  0.8569
 1473TIP3    H228615   6.004   0.945   0.751 -0.1897 -1.2070 -0.3277
 1474TIP3   OH228616   4.217   5.945   2.045 -0.2873 -0.0674 -0.0297
 1474TIP3    H128617   4.303   5.904   2.046 -0.7471 -1.0802  1.7835
 1474TIP3    H228618   4.218   6.005   2.119 -1.6500 -1.3073  1.0629
 1475TIP3   OH228619   7.060   5.261   7.674  0.5058 -0.8433 -0.3896
 1475TIP3    H128620   6.977   5.306   7.657 -0.1322 -1.2223  1.4812
 1475TIP3    H228621   7.060   5.187   7.613  0.2655  0.1035 -1.5628
 1476TIP3   OH228622   0.162   5.563   1.146 -0.1237  0.0451 -0.0270
 1476TIP3    H128623   0.114   5.540   1.066  1.7723 -0.1692 -1.1599
 1476TIP3    H228624   0.222   5.490   1.160 -1.6565 -0.8297  2.7203
 1477TIP3   OH228625   2.548   5.806   8.387 -0.6046  0.3939 -0.9253
 1477TIP3    H128626   2.558   5.715   8.359 -2.3434  0.0592 -0.5532
 1477TIP3    H228627   2.459   5.811   8.421  0.9437  0.9734  3.8059
 1478TIP3   OH228628   4.985   0.392   1.425 -0.2717  0.0213  0.3194
 1478TIP3    H128629   4.953   0.425   1.509  1.8556  0.3499  1.0647
 1478TIP3    H228630   4.913   0.339   1.391 -1.0679 -0.3987  2.5079
 1479TIP3   OH228631   6.747   6.101   0.978 -0.0901 -0.1951 -0.2119
 1479TIP3    H128632   6.767   6.008   0.989 -0.7838 -0.4311 -0.9050
 1479TIP3    H228633   6.831   6.145   0.994 -0.0504 -0.8177  1.5760
 1480TIP3   OH228634   3.310   0.438   1.226 -0.0744  0.4708  0.4994
 1480TIP3    H128635   3.301   0.493   1.148  0.4620  0.9191  0.7475
 1480TIP3    H228636   3.395   0.395   1.215 -0.6176 -0.5470  0.1651
 1481TIP3   OH228637   2.662   2.270   7.343  0.0352 -0.1668 -0.1916
 1481TIP3    H128638   2.741   2.228   7.377  1.6923  1.4304 -1.8710
 1481TIP3    H228639   2.687   2.303   7.257 -2.5411  0.2517 -0.8673
 1482TIP3   OH228640   5.732   4.450   7.916 -0.0125  0.1644  0.4578
 1482TIP3    H128641   5.819   4.411   7.930 -0.3089 -1.0485 -0.7610
 1482TIP3    H228642   5.723   4.453   7.820 -0.8375  1.4077  0.5528
 1483TIP3   OH228643   4.287   1.404   1.567  0.7059 -0.2008  0.6239
 1483TIP3    H128644   4.320   1.477   1.514  0.8274  0.3816  1.4890
 1483TIP3    H228645   4.258   1.339   1.502 -0.4996  1.0957 -0.2025
 1484TIP3   OH228646   0.273   0.222   0.533 -0.8383  0.4549  0.7001
 1484TIP3    H128647   0.287   0.144   0.588 -0.3452 -0.6575 -0.9164
 1484TIP3    H228648   0.179   0.220   0.513 -0.6202 -0.4419 -0.3155
 1485TIP3   OH228649   2.594   3.897   8.692 -0.7181 -0.1198  0.8060
 1485TIP3    H128650   2.591   3.838   8.617  1.6359 -0.5837  0.9915
 1485TIP3    H228651   2.503   3.907   8.719 -1.3730 -2.0160 -0.5143
 1486TIP3   OH228652   2.968   3.865   7.977  0.1705 -0.1513  0.0887
 1486TIP3    H128653   3.021   3.785   7.983  0.6930  0.1699 -0.1427
 1486TIP3    H228654   2.939   3.868   7.886  2.3848  1.2887 -0.6585
 1487TIP3   OH228655   2.277   3.562   0.159 -0.2179 -0.1541 -0.3052
 1487TIP3    H128656   2.273   3.507   0.238  0.7595  1.5542  1.0185
 1487TIP3    H228657   2.206   3.531   0.104  0.3872 -2.8246  0.2984
 1488TIP3   OH228658   0.516   4.057   1.190 -0.1309  0.0755 -0.2012
 1488TIP3    H128659   0.458   4.133   1.192  0.3528  0.4658  1.8407
 1488TIP3    H228660   0.558   4.058   1.276  1.7181 -1.1076 -1.0461
 1489TIP3   OH228661   3.089   1.773   1.419  0.4052 -0.1827  0.2550
 1489TIP3    H128662   3.176   1.771   1.459 -0.2314 -1.1106  1.6370
 1489TIP3    H228663   3.051   1.856   1.447  0.7683  0.1512 -0.2213
 1490TIP3   OH228664   1.161   1.210   1.832  0.0087 -0.1982  0.2841
 1490TIP3    H128665   1.209   1.137   1.869 -0.3736 -1.0282 -0.7885
 1490TIP3    H228666   1.085   1.221   1.889  0.5937  0.0459  1.0323
 1491TIP3   OH228667   6.588   3.258   8.350  0.0903  0.2606 -0.6393
 1491TIP3    H128668   6.497   3.262   8.320 -0.4842  0.0037  0.9971
 1491TIP3    H228669   6.614   3.167   8.336  0.2217  0.4083 -1.4112
 1492TIP3   OH228670   6.842   5.043   0.560 -0.2131  0.0702  0.3183
 1492TIP3    H128671   6.862   5.079   0.646 -1.7118  0.3212  0.5843
 1492TIP3    H228672   6.832   4.949   0.574 -0.8028  0.1554  0.4983
 1493TIP3   OH228673   0.672   7.416   0.350 -0.3429  0.2740 -0.2254
 1493TIP3    H128674   0.619   7.337   0.363  1.0605 -0.8099 -0.7818
 1493TIP3    H228675   0.655   7.470   0.427 -2.0813 -0.1196 -0.3020
 1494TIP3   OH228676   4.417   5.570   7.445 -0.3176  0.1174 -0.1973
 1494TIP3    H128677   4.437   5.487   7.488  0.8192 -0.1535 -1.1952
 1494TIP3    H228678   4.438   5.637   7.511 -2.8514 -0.3684  1.2303
 1495TIP3   OH228679   2.640   3.194   6.936 -0.0145 -0.5610 -0.3209
 1495TIP3    H128680   2.625   3.102   6.915 -1.1917 -0.6349  0.7346
 1495TIP3    H228681   2.555   3.236   6.924  0.0772  0.0340  0.9750
 1496TIP3   OH228682   6.202   0.356   7.161 -0.5344 -0.2591 -0.2982
 1496TIP3    H128683   6.239   0.344   7.074 -1.3555 -0.3136 -0.6472
 1496TIP3    H228684   6.195   0.268   7.198  1.5088 -0.1162  0.5657
 1497TIP3   OH228685   0.571   0.764   3.205 -0.1003  0.1375 -0.2990
 1497TIP3    H128686   0.589   0.697   3.139 -0.4727  0.6960 -0.9782
 1497TIP3    H228687   0.584   0.847   3.159 -1.3061  0.5414  0.0501
 1498TIP3   OH228688   1.864   2.261   1.260  0.0176  0.1281  0.1437
 1498TIP3    H128689   1.858   2.169   1.236  2.2595 -0.2396  0.7472
 1498TIP3    H228690   1.844   2.309   1.180  1.5185 -0.9670 -0.9517
 1499TIP3   OH228691   0.121   1.423   8.712 -0.1175  0.4582  0.4351
 1499TIP3    H128692   0.088   1.499   8.760 -0.4695  0.6103 -0.0284
 1499TIP3    H228693   0.108   1.349   8.771 -0.7237  0.6105  0.4991
 1500TIP3   OH228694   6.913   6.675   2.212  0.2888 -0.2642 -0.8016
 1500TIP3    H128695   6.850   6.746   2.208  1.0165  0.4261 -0.3960
 1500TIP3    H228696   6.990   6.714   2.254  1.1315 -0.9651 -1.6499
 1501TIP3   OH228697   1.184   2.081   6.867  0.5818 -0.0537  0.5450
 1501TIP3    H128698   1.191   2.092   6.772  0.0099  3.0887  0.7546
 1501TIP3    H228699   1.135   2.000   6.878 -0.4978  0.1750 -1.9071
 1502TIP3   OH228700   0.241   3.835   0.863 -0.4039  0.0887 -0.1386
 1502TIP3    H128701   0.320   3.825   0.810 -0.7089  0.7094 -0.7358
 1502TIP3    H228702   0.263   3.797   0.948  0.7596  0.8494 -0.0786
 1503TIP3   OH228703   2.032   5.035   8.492  0.3829  0.3741  0.4957
 1503TIP3    H128704   2.028   5.020   8.586 -0.3895  3.0720  0.9809
 1503TIP3    H228705   1.942   5.021   8.461  0.6846 -0.7596  0.0697
 1504TIP3   OH228706   1.820   6.808   0.397  0.4618 -0.1491  0.2580
 1504TIP3    H128707   1.748   6.853   0.440  0.4561 -0.0429  0.1352
 1504TIP3    H228708   1.780   6.732   0.355  0.7133 -1.2794  1.9426
 1505TIP3   OH228709   7.403   2.140   6.847  0.0065 -0.0339 -0.1382
 1505TIP3    H128710   7.323   2.099   6.881 -0.5735  0.4422 -0.8974
 1505TIP3    H228711   7.396   2.131   6.752  0.3712  0.8809 -0.2646
 1506TIP3   OH228712   6.803   7.315   7.242 -0.7372  0.1688  0.0681
 1506TIP3    H128713   6.870   7.378   7.269  0.6406 -1.2654  0.2029
 1506TIP3    H228714   6.770   7.279   7.324 -1.4680  0.6458 -0.0101
 1507TIP3   OH228715   5.029   0.507   0.328  0.4321 -0.0091 -0.2896
 1507TIP3    H128716   4.952   0.544   0.285  0.1219 -0.6496 -0.2933
 1507TIP3    H228717   5.068   0.581   0.375 -3.0491 -0.5133  4.0717
 1508TIP3   OH228718   4.900   6.177   8.662 -0.3130  0.6190 -0.0071
 1508TIP3    H128719   4.911   6.082   8.665 -0.3325  0.6303  2.9207
 1508TIP3    H228720   4.841   6.192   8.588 -1.9274 -1.8419  0.6571
 1509TIP3   OH228721   1.944   4.445   0.246  0.3460  0.0887 -0.3210
 1509TIP3    H128722   2.006   4.479   0.181  1.2965  0.2511  0.6343
 1509TIP3    H228723   1.887   4.519   0.267  1.0615  0.5205  0.1849
 1510TIP3   OH228724   2.265   1.525   8.440  0.1099 -0.3187 -0.3990
 1510TIP3    H128725   2.335   1.575   8.481 -1.9494  1.1802  1.5280
 1510TIP3    H228726   2.197   1.590   8.422 -1.2832 -1.8964 -1.1119
 1511TIP3   OH228727   0.584   4.014   7.808  0.2663  0.2891  0.9304
 1511TIP3    H128728   0.490   4.019   7.794  0.4985 -0.1531 -1.1051
 1511TIP3    H228729   0.602   3.920   7.813  0.9417  0.1416 -2.0928
 1512TIP3   OH228730   1.083   4.642   6.828  0.3529 -0.0132 -0.5975
 1512TIP3    H128731   1.058   4.557   6.866  2.7281 -1.2426 -1.5930
 1512TIP3    H228732   1.012   4.662   6.767 -0.0548 -1.5309 -0.6738
 1513TIP3   OH228733   0.638   1.031   1.104 -0.0128  0.7604 -0.1071
 1513TIP3    H128734   0.553   1.042   1.146 -0.2463 -0.1547 -0.3172
 1513TIP3    H228735   0.669   0.946   1.135  0.2391  0.5059 -1.0294
 1514TIP3   OH228736   5.163   3.438   8.308 -0.3196  0.1128 -0.0732
 1514TIP3    H128737   5.147   3.497   8.382  0.8608 -0.5251  0.7268
 1514TIP3    H228738   5.206   3.492   8.242  3.2840 -0.3094  1.6925
 1515TIP3   OH228739   5.694   0.778   6.940 -0.2301 -0.1298  0.2691
 1515TIP3    H128740   5.713   0.700   6.993  1.9467 -0.0160 -0.2777
 1515TIP3    H228741   5.692   0.746   6.850  2.8462  0.6846 -0.1955
 1516TIP3   OH228742   6.815   0.181   7.603  0.5304  0.4418 -0.2779
 1516TIP3    H128743   6.732   0.134   7.598 -0.8342  2.7057 -0.7245
 1516TIP3    H228744   6.882   0.113   7.607 -1.3670 -1.4818  0.8479
 1517TIP3   OH228745   2.633   0.274   7.474  0.4416 -0.0653 -0.1750
 1517TIP3    H128746   2.644   0.263   7.380  0.0302 -0.0520 -0.2247
 1517TIP3    H228747   2.695   0.211   7.512 -0.2582 -0.9482 -0.4628
 1518TIP3   OH228748   2.747   5.790   8.941  0.2910  0.1698  0.3865
 1518TIP3    H128749   2.742   5.790   8.846  0.1312 -0.6628  0.3908
 1518TIP3    H228750   2.812   5.857   8.962  1.7132 -0.9197 -0.3914
 1519TIP3   OH228751   1.128   6.965   9.055 -0.1057  0.5195 -0.6584
 1519TIP3    H128752   1.108   6.896   8.992  1.5460 -0.6370  0.0237
 1519TIP3    H228753   1.111   7.046   9.008 -1.0588 -0.3263 -1.8386
 1520TIP3   OH228754   0.167   3.869   9.508  0.0658 -0.3534  0.0680
 1520TIP3    H128755   0.173   3.775   9.526  1.6621 -0.1508  0.8024
 1520TIP3    H228756   0.097   3.899   9.566 -0.1251 -1.0094  0.1943
 1521TIP3   OH228757   7.393   5.377   0.651  0.0515 -0.1942  0.0851
 1521TIP3    H128758   7.348   5.405   0.571  0.2166 -0.6175 -0.1617
 1521TIP3    H228759   7.324   5.371   0.716  0.2132  2.2212  0.5669
 1522TIP3   OH228760   1.551   7.125   7.239 -0.0084 -0.0856  0.1732
 1522TIP3    H128761   1.581   7.118   7.149  0.7024 -0.8127  0.4584
 1522TIP3    H228762   1.508   7.041   7.257 -0.2367  0.0945  0.4774
 1523TIP3   OH228763   1.207   6.765   1.403  0.0767  0.5313 -0.3765
 1523TIP3    H128764   1.277   6.779   1.466  0.7166 -4.5117  0.5114
 1523TIP3    H228765   1.250   6.762   1.318  0.2820  1.2081 -0.2957
 1524TIP3   OH228766   2.182   5.242   7.542  0.1173  0.1592  0.0978
 1524TIP3    H128767   2.138   5.294   7.609 -0.3375 -0.8791  0.6192
 1524TIP3    H228768   2.113   5.185   7.507  0.4742  0.3031 -0.8818
 1525TIP3   OH228769   2.638   6.663   7.904  0.0435  0.1147  0.3367
 1525TIP3    H128770   2.562   6.681   7.849  1.3123  1.2404 -1.1690
 1525TIP3    H228771   2.612   6.590   7.959 -2.1223  0.4997 -0.0927
 1526TIP3   OH228772   6.826   4.408   1.764  0.5588  0.0547 -0.1015
 1526TIP3    H128773   6.916   4.438   1.759  0.5341  0.5171  1.5876
 1526TIP3    H228774   6.776   4.470   1.710  0.8601  1.5756  1.2983
 1527TIP3   OH228775   0.323   1.095   0.865 -0.1508  0.0792  0.0439
 1527TIP3    H128776   0.259   1.136   0.922  1.3773 -0.2691  2.1344
 1527TIP3    H228777   0.382   1.166   0.840  0.1261 -0.0620  0.2826
 1528TIP3   OH228778   0.849   6.258   0.939  0.1462 -0.1720  0.0298
 1528TIP3    H128779   0.919   6.311   0.975 -0.2423  0.3695  0.0025
 1528TIP3    H228780   0.782   6.258   1.008 -0.6786  1.0196 -0.7395
 1529TIP3   OH228781   5.793   6.919   8.410  0.3936  0.6142 -0.0408
 1529TIP3    H128782   5.751   6.959   8.486  2.3379 -0.0832  1.4934
 1529TIP3    H228783   5.722   6.875   8.363 -1.1384  2.5451  0.3463
 1530TIP3   OH228784   4.073   7.415   8.167 -0.7300  0.1632  0.0696
 1530TIP3    H128785   3.988   7.458   8.160  0.0579  1.7056 -0.3698
 1530TIP3    H228786   4.118   7.437   8.086 -0.1705 -1.2879 -0.0561
 1531TIP3   OH228787   3.759   1.018   8.222 -0.1490  0.1504  0.2316
 1531TIP3    H128788   3.670   0.998   8.249  0.6568 -2.3017  1.3749
 1531TIP3    H228789   3.800   1.057   8.300  0.0314  0.4563 -0.0125
 1532TIP3   OH228790   3.556   3.804   0.095  0.0562 -0.5375  0.0142
 1532TIP3    H128791   3.651   3.814   0.103  0.2342 -1.1802 -1.0467
 1532TIP3    H228792   3.521   3.892   0.114  0.8853 -0.2012  0.0363
 1533TIP3   OH228793   5.126   1.296   2.260  0.2029  0.0942 -0.7931
 1533TIP3    H128794   5.176   1.363   2.214  1.2739 -0.8309 -1.0317
 1533TIP3    H228795   5.148   1.307   2.352 -0.7929  1.0071 -0.6500
 1534TIP3   OH228796   2.256   4.019   9.252 -0.0955 -0.6192 -0.5331
 1534TIP3    H128797   2.213   3.968   9.320  0.6731 -0.1423  0.3207
 1534TIP3    H228798   2.247   4.110   9.280  3.3640 -0.5547  0.9044
 1535TIP3   OH228799   4.432   0.042   8.167 -0.4028  0.1165  0.0317
 1535TIP3    H128800   4.420   0.135   8.148 -1.7943  0.2311  1.2909
 1535TIP3    H228801   4.351   0.016   8.211 -0.0023 -1.6776 -0.2192
 1536TIP3   OH228802   2.734   0.132   0.471 -0.0869  0.8077  0.3167
 1536TIP3    H128803   2.669   0.080   0.424 -0.6188  1.5264  0.2259
 1536TIP3    H228804   2.754   0.204   0.410  0.4643  0.8339  0.5255
 1537TIP3   OH228805   5.019   6.593   1.606 -0.2201  0.1680 -0.1910
 1537TIP3    H128806   5.062   6.556   1.683  0.2813  1.1044 -0.0114
 1537TIP3    H228807   4.936   6.627   1.639 -0.1310  0.3113 -0.1116
 1538TIP3   OH228808   2.490   1.852   0.630 -0.6694 -0.0347  0.2184
 1538TIP3    H128809   2.417   1.859   0.569 -0.9572 -1.2408  0.3936
 1538TIP3    H228810   2.561   1.901   0.588 -0.8734 -0.7973 -1.0793
 1539TIP3   OH228811   0.845   5.115   2.752  0.0300  0.0575  0.6325
 1539TIP3    H128812   0.784   5.042   2.762  0.5207 -0.2159  1.7719
 1539TIP3    H228813   0.932   5.076   2.763  0.5569  0.1835 -2.3825
 1540TIP3   OH228814   6.297   6.469   0.498  0.4177  0.1733 -0.6115
 1540TIP3    H128815   6.365   6.482   0.432  2.4638 -2.1742  0.8213
 1540TIP3    H228816   6.342   6.484   0.582 -1.5885  1.2056  0.3628
 1541TIP3   OH228817   1.479   5.620   9.335  0.1151  0.5361 -0.0774
 1541TIP3    H128818   1.430   5.617   9.417  1.5927  0.8717  0.8560
 1541TIP3    H228819   1.540   5.694   9.346  1.0505 -0.0622 -1.0554
 1542TIP3   OH228820   0.232   4.978   9.442 -0.3743 -0.3033  0.2181
 1542TIP3    H128821   0.199   5.026   9.366  1.7299  0.5260 -0.2454
 1542TIP3    H228822   0.159   4.923   9.469 -2.2710  1.7602 -0.3921
 1543TIP3   OH228823   5.979   3.629   8.453  0.1771  0.0067  0.1254
 1543TIP3    H128824   6.033   3.707   8.443 -0.6020  0.4902 -0.4816
 1543TIP3    H228825   5.940   3.615   8.366 -0.1988 -0.6773  0.3883
 1544TIP3   OH228826   7.305   0.374   1.821 -0.2110  0.3845 -0.0870
 1544TIP3    H128827   7.320   0.468   1.829  0.7284  0.3125 -0.7393
 1544TIP3    H228828   7.366   0.346   1.753 -0.9956 -0.5770 -0.4260
 1545TIP3   OH228829   5.205   3.636   7.042 -0.2704  0.4786  0.2926
 1545TIP3    H128830   5.282   3.597   7.001 -1.5560 -2.0213  0.0308
 1545TIP3    H228831   5.166   3.690   6.973 -0.4389 -0.8159 -0.6801
 1546TIP3   OH228832   0.722   4.797   9.508 -0.2225 -0.3826  0.5685
 1546TIP3    H128833   0.661   4.777   9.437  1.0913  0.3527 -0.8304
 1546TIP3    H228834   0.666   4.818   9.582 -1.6468 -1.6461 -0.0845
 1547TIP3   OH228835   2.416   3.109   1.193  0.1863  0.0726  0.3013
 1547TIP3    H128836   2.416   3.181   1.130  1.5879  1.0866  1.3663
 1547TIP3    H228837   2.351   3.048   1.161 -1.9134  2.3500 -0.0721
 1548TIP3   OH228838   1.879   4.006   7.105 -0.1823 -0.5481 -0.0384
 1548TIP3    H128839   1.854   3.924   7.063  0.3988 -0.8048  0.1150
 1548TIP3    H228840   1.970   3.994   7.130  0.1296  0.4004 -0.6397
 1549TIP3   OH228841   5.521   2.455   1.140 -0.2065  0.5719 -0.5575
 1549TIP3    H128842   5.426   2.452   1.129 -0.1884  0.2680 -0.6531
 1549TIP3    H228843   5.543   2.371   1.180  0.0068  0.6931 -0.4194
 1550TIP3   OH228844   0.704   5.269   7.002 -0.4735 -0.0256  0.5913
 1550TIP3    H128845   0.695   5.303   7.091 -1.6956 -1.1464  0.9307
 1550TIP3    H228846   0.797   5.278   6.982 -0.1524  0.1201  2.0363
 1551TIP3   OH228847   4.884   3.112   7.729  0.1443  0.1447 -0.4130
 1551TIP3    H128848   4.926   3.107   7.643  1.5702  0.0059  0.2570
 1551TIP3    H228849   4.898   3.026   7.768 -0.6702  0.1376 -0.1111
 1552TIP3   OH228850   1.117   6.768   8.654  0.0556 -0.2027  0.4813
 1552TIP3    H128851   1.115   6.718   8.572  1.3613  1.5250 -0.6949
 1552TIP3    H228852   1.209   6.767   8.681 -0.2097  0.0127  1.4297
 1553TIP3   OH228853   1.751   4.980   8.497  0.0987  0.0411 -0.0560
 1553TIP3    H128854   1.739   4.958   8.589 -1.9883  1.3118  0.0428
 1553TIP3    H228855   1.698   4.917   8.449  0.8040 -0.3266 -0.3608
 1554TIP3   OH228856   6.182   2.726   0.638  0.1122 -0.0072 -0.4336
 1554TIP3    H128857   6.090   2.702   0.627 -0.1669  0.6646  0.3206
 1554TIP3    H228858   6.229   2.642   0.635 -0.5642 -0.3921 -0.4284
 1555TIP3   OH228859   6.315   0.145   9.117 -0.5040  0.3963  0.1522
 1555TIP3    H128860   6.232   0.190   9.135 -1.1307 -1.1548  1.3543
 1555TIP3    H228861   6.290   0.071   9.060  0.2346  0.5408 -0.3754
 1556TIP3   OH228862   7.373   0.257   2.421  0.1785  0.0869 -0.2815
 1556TIP3    H128863   7.336   0.172   2.398  0.5364 -0.5930  1.5416
 1556TIP3    H228864   7.441   0.238   2.485  1.1114  1.6538 -0.7420
 1557TIP3   OH228865   0.068   4.319   1.016 -0.2667  0.4952 -0.2331
 1557TIP3    H128866   0.082   4.224   1.016 -0.0809  0.5127 -0.8322
 1557TIP3    H228867   0.046   4.339   0.925  0.8259  1.1799 -0.3654
 1558TIP3   OH228868   1.985   0.490   0.246 -0.3643 -0.3053  0.8983
 1558TIP3    H128869   1.928   0.555   0.287  0.4074  0.7215  0.3886
 1558TIP3    H228870   1.996   0.521   0.156  2.6974  0.7589  1.5167
 1559TIP3   OH228871   6.256   0.828   1.915  0.1678 -0.1073 -0.1443
 1559TIP3    H128872   6.245   0.798   1.825  0.2238 -0.4769 -0.0305
 1559TIP3    H228873   6.285   0.918   1.907 -1.7062  0.5165 -0.4881
 1560TIP3   OH228874   2.359   4.478   0.415 -0.4364  0.2271  0.7192
 1560TIP3    H128875   2.420   4.451   0.483 -0.2432 -0.0667  0.4291
 1560TIP3    H228876   2.279   4.501   0.463 -0.0551  0.7574  1.1101
 1561TIP3   OH228877   6.170   0.086   7.755  0.7989  0.0193 -0.4879
 1561TIP3    H128878   6.241   0.128   7.805  1.4447 -0.5180 -0.9436
 1561TIP3    H228879   6.168  -0.004   7.788  1.2651 -0.3555 -1.4574
 1562TIP3   OH228880   2.912   7.061   0.973 -0.7254  0.4265  0.2383
 1562TIP3    H128881   2.884   7.141   0.928  1.0989 -0.3039 -2.4045
 1562TIP3    H228882   2.963   7.093   1.048 -0.4583  1.7502 -0.4731
 1563TIP3   OH228883   6.915   3.965   9.250  0.2270  0.4619  0.1458
 1563TIP3    H128884   6.840   4.012   9.285 -1.6558 -0.8639 -1.8665
 1563TIP3    H228885   6.987   4.028   9.256 -2.0072  3.5392 -1.9066
 1564TIP3   OH228886   2.997   5.464   1.633  0.3717 -0.0976  0.5975
 1564TIP3    H128887   2.941   5.465   1.555 -1.4977  2.0555  1.8304
 1564TIP3    H228888   2.965   5.390   1.684 -1.2677  0.9284  1.1485
 1565TIP3   OH228889   4.694   0.807   9.635 -0.3424 -0.1025  0.3778
 1565TIP3    H128890   4.636   0.851   9.571 -0.1784  0.2931  0.4990
 1565TIP3    H228891   4.686   0.860   9.714  0.1455 -0.0785  0.4109
 1566TIP3   OH228892   2.535   6.815   9.174 -0.3590 -0.1411 -0.1910
 1566TIP3    H128893   2.497   6.900   9.197  1.6468  0.8219 -0.1445
 1566TIP3    H228894   2.462   6.753   9.178 -1.4562  1.1713  2.0695
 1567TIP3   OH228895   4.236   0.215   0.730  0.3140  0.2547 -0.0144
 1567TIP3    H128896   4.299   0.205   0.802 -0.0297  0.7017  0.3552
 1567TIP3    H228897   4.284   0.264   0.663  0.7884 -0.5709 -0.2960
 1568TIP3   OH228898   2.233   4.685   2.638 -0.3723  0.6658  0.0066
 1568TIP3    H128899   2.274   4.612   2.590 -0.9736  0.7870 -0.6932
 1568TIP3    H228900   2.239   4.658   2.730  1.7438  0.9071 -0.0164
 1569TIP3   OH228901   4.428   3.261   8.526  0.5390  0.2147  0.7120
 1569TIP3    H128902   4.383   3.228   8.448 -0.0583 -0.3096  1.2714
 1569TIP3    H228903   4.432   3.186   8.585  1.9879  0.3041  0.7526
 1570TIP3   OH228904   3.335   4.102   9.109 -0.1046 -0.8872  0.2645
 1570TIP3    H128905   3.387   4.022   9.112 -2.1227 -2.3296 -0.9636
 1570TIP3    H228906   3.397   4.171   9.134  1.6696 -2.8014  1.4991
 1571TIP3   OH228907   5.332   1.918   1.661  0.0427 -0.7214 -1.0709
 1571TIP3    H128908   5.385   1.935   1.584 -0.6109 -0.3559 -1.4533
 1571TIP3    H228909   5.245   1.950   1.638 -0.2841 -1.0643 -0.3640
 1572TIP3   OH228910   3.384   1.210   9.315 -0.1631  0.3201 -0.2381
 1572TIP3    H128911   3.324   1.152   9.362 -0.7205  1.0723  0.0066
 1572TIP3    H228912   3.372   1.295   9.357 -0.6746  1.0161 -1.7159
 1573TIP3   OH228913   0.624   3.828   8.949 -0.2082 -0.0998  0.0794
 1573TIP3    H128914   0.710   3.867   8.933 -0.1681 -0.0979  0.2977
 1573TIP3    H228915   0.594   3.801   8.862 -0.3755  0.7026 -0.1254
 1574TIP3   OH228916   5.192   7.192   0.242 -0.5811  0.3033  0.5266
 1574TIP3    H128917   5.229   7.280   0.250 -0.1775  0.0304  2.1551
 1574TIP3    H228918   5.186   7.177   0.148 -1.3276  2.3317  0.1936
 1575TIP3   OH228919   4.324   1.235   2.206 -0.1229 -0.0894 -0.1048
 1575TIP3    H128920   4.357   1.311   2.158 -0.4294 -1.3997 -2.5852
 1575TIP3    H228921   4.356   1.160   2.156 -1.0960 -1.5623  1.3762
 1576TIP3   OH228922   4.664   3.170   1.051  0.4281 -0.3578 -0.3845
 1576TIP3    H128923   4.706   3.084   1.045  0.7213 -0.1803 -0.9449
 1576TIP3    H228924   4.581   3.159   1.006  0.4353 -0.3704 -0.3946
 1577TIP3   OH228925   3.435   1.141   6.911 -0.0169 -0.0385  0.3721
 1577TIP3    H128926   3.397   1.222   6.942 -0.4907  0.2500 -0.8848
 1577TIP3    H228927   3.528   1.147   6.936  0.2135  1.4322 -0.7054
 1578TIP3   OH228928   5.810   3.175   1.529 -0.3943  0.3322  0.4383
 1578TIP3    H128929   5.899   3.152   1.506  0.0736  1.2483  1.2468
 1578TIP3    H228930   5.780   3.105   1.586 -0.3677 -0.2128 -0.2064
 1579TIP3   OH228931   7.039   2.587   7.959  0.3800 -0.5553 -0.2130
 1579TIP3    H128932   7.111   2.637   7.921 -0.2028  0.9256  0.5412
 1579TIP3    H228933   7.077   2.544   8.036  0.6134 -0.2642 -0.1616
 1580TIP3   OH228934   2.369   0.839   2.398 -0.1740 -0.2588  0.0604
 1580TIP3    H128935   2.296   0.845   2.460  0.2492  2.0874  0.4185
 1580TIP3    H228936   2.446   0.821   2.453  0.0751  1.0225  0.1563
 1581TIP3   OH228937   0.734   2.682   0.126 -0.3828 -0.2551  0.6355
 1581TIP3    H128938   0.821   2.683   0.164  0.2566 -0.0333 -0.7766
 1581TIP3    H228939   0.724   2.768   0.085 -0.6942 -0.7751 -0.4252
 1582TIP3   OH228940   1.886   0.968   2.470 -0.5892  0.6406  0.0627
 1582TIP3    H128941   1.881   0.895   2.532  2.2789  2.3474  2.6063
 1582TIP3    H228942   1.943   0.936   2.400 -1.4674 -0.3827 -0.1967
 1583TIP3   OH228943   5.369   3.088   2.543 -0.0816  0.3386 -0.0803
 1583TIP3    H128944   5.418   3.156   2.589  0.4049 -0.1347  0.1118
 1583TIP3    H228945   5.359   3.018   2.607  0.5416 -0.3017 -0.6516
 1584TIP3   OH228946   2.958   4.908   2.024 -0.3769  0.0625  0.6185
 1584TIP3    H128947   3.009   4.976   2.068 -0.2118 -0.3401  1.0594
 1584TIP3    H228948   3.016   4.875   1.955 -0.4335  0.3254  0.4456
 1585TIP3   OH228949   5.187   5.945   2.736  0.3295  0.8744  0.0798
 1585TIP3    H128950   5.099   5.910   2.749  1.1200 -0.8954  1.2333
 1585TIP3    H228951   5.176   6.019   2.677 -1.8261  0.2644 -0.3627
 1586TIP3   OH228952   6.326   6.373   8.361  0.1952  0.0281  0.3081
 1586TIP3    H128953   6.333   6.304   8.427 -1.0141 -0.1510  0.2843
 1586TIP3    H228954   6.306   6.452   8.411 -0.7112 -0.1056  0.1898
 1587TIP3   OH228955   0.740   7.108   7.901  0.0441 -0.0179  0.2334
 1587TIP3    H128956   0.747   7.093   7.807 -0.9759 -1.2537  0.3305
 1587TIP3    H228957   0.720   7.201   7.910 -0.1490  0.0405 -0.7783
 1588TIP3   OH228958   0.066   2.625   0.828 -0.3881  0.2057 -0.1114
 1588TIP3    H128959  -0.026   2.644   0.847 -0.1327  0.6202  0.7463
 1588TIP3    H228960   0.076   2.532   0.850 -0.6957  0.0449 -0.6200
 1589TIP3   OH228961   0.068   5.469   2.723 -0.2795  0.1428  0.4162
 1589TIP3    H128962   0.026   5.389   2.752 -0.6125  0.2552  0.2393
 1589TIP3    H228963   0.122   5.496   2.798 -1.8863  0.9563  1.3304
 1590TIP3   OH228964   3.603   1.700   7.950 -0.3630 -0.2606 -0.5842
 1590TIP3    H128965   3.641   1.612   7.943  0.1855 -0.2523  1.6231
 1590TIP3    H228966   3.525   1.697   7.895 -0.7939 -2.3926  0.0541
 1591TIP3   OH228967   6.192   5.017   1.546  0.1482 -0.4763  0.2085
 1591TIP3    H128968   6.156   5.041   1.632  0.8614 -2.5273  1.1263
 1591TIP3    H228969   6.265   4.959   1.566  1.7767  0.7532 -1.7380
 1592TIP3   OH228970   3.505   0.440   7.262 -0.5970  0.5956  0.0056
 1592TIP3    H128971   3.441   0.381   7.222 -1.9692  0.5966  2.0545
 1592TIP3    H228972   3.547   0.386   7.329  1.0224  0.8429 -0.7637
 1593TIP3   OH228973   4.571   3.462   1.309  0.4016  0.5813  0.0791
 1593TIP3    H128974   4.502   3.428   1.252  1.2411 -0.7695 -0.1789
 1593TIP3    H228975   4.637   3.393   1.310  0.5185  0.6569  2.5449
 1594TIP3   OH228976   1.698   2.170   2.498 -0.0438  1.0038  0.6191
 1594TIP3    H128977   1.740   2.251   2.525  0.5871  1.4036 -1.4062
 1594TIP3    H228978   1.605   2.191   2.498  0.0100  1.2987  1.3864
 1595TIP3   OH228979   6.715   5.265   1.771 -0.0019  0.0837  0.4530
 1595TIP3    H128980   6.719   5.302   1.683 -2.8614 -2.4858 -0.9683
 1595TIP3    H228981   6.621   5.259   1.791  0.4257 -2.2448  2.3083
 1596TIP3   OH228982   2.013   7.238   6.577 -0.0521 -0.0249 -0.1718
 1596TIP3    H128983   2.075   7.178   6.535 -0.6684  0.4579 -1.8552
 1596TIP3    H228984   1.981   7.189   6.654  0.4576 -1.3099 -0.7472
 1597TIP3   OH228985   7.160   2.902   8.470 -0.3037  0.1240  0.2432
 1597TIP3    H128986   7.156   2.881   8.563  1.0780  2.2090  0.8534
 1597TIP3    H228987   7.236   2.853   8.438  0.1094  0.5256  0.5833
 1598TIP3   OH228988   2.768   0.435   9.227  0.2231 -0.4128 -0.2073
 1598TIP3    H128989   2.744   0.499   9.295  0.7913  0.7959 -1.0913
 1598TIP3    H228990   2.819   0.369   9.273 -2.6882 -1.8247  1.2751
 1599TIP3   OH228991   5.894   1.320   8.707 -0.3852  0.1490 -0.1571
 1599TIP3    H128992   5.928   1.345   8.793 -1.1370 -0.3171  0.2916
 1599TIP3    H228993   5.965   1.271   8.666 -0.4773 -0.7861  0.7473
 1600TIP3   OH228994   2.799   7.413   1.789  0.1836  0.1914  0.0802
 1600TIP3    H128995   2.793   7.382   1.879 -1.7161  0.4698  0.1087
 1600TIP3    H228996   2.885   7.386   1.759  1.3133  1.0461  2.3220
 1601TIP3   OH228997   5.408   2.444   9.647  0.7280  0.1380 -0.3828
 1601TIP3    H128998   5.500   2.470   9.652  0.4289  1.0880  0.9712
 1601TIP3    H228999   5.397   2.382   9.720  0.2911  0.0527 -0.5204
 1602TIP3   OH229000   1.880   6.670   0.647  0.3696 -0.1778  0.1933
 1602TIP3    H129001   1.844   6.716   0.572 -1.8972  0.4547  1.5662
 1602TIP3    H229002   1.863   6.577   0.629 -5.5067  0.0907  2.1470
 1603TIP3   OH229003   0.831   3.127   2.855  0.5325  0.1389 -0.1955
 1603TIP3    H129004   0.781   3.206   2.835 -0.5332 -1.0545 -2.6673
 1603TIP3    H229005   0.772   3.073   2.907  0.4350  0.0659 -0.3809
 1604TIP3   OH229006   2.240   3.184   7.895 -0.7622 -0.0282 -0.1307
 1604TIP3    H129007   2.202   3.235   7.824  1.2491  1.4524 -0.2241
 1604TIP3    H229008   2.290   3.116   7.851 -0.3984  0.2242 -0.1101
 1605TIP3   OH229009   2.713   3.063   9.212 -0.3699  0.2016 -0.1197
 1605TIP3    H129010   2.652   2.990   9.215  0.1747 -0.2481  0.2372
 1605TIP3    H229011   2.686   3.120   9.284  0.1244 -0.4084  0.5687
 1606TIP3   OH229012   1.206   1.651   8.665  0.3943 -0.4251  0.2614
 1606TIP3    H129013   1.200   1.611   8.751 -2.1702 -0.2618  0.2329
 1606TIP3    H229014   1.163   1.589   8.606 -1.2232  1.0705 -0.2282
 1607TIP3   OH229015   1.728   2.918   2.591 -0.0777 -0.0916  0.1457
 1607TIP3    H129016   1.685   3.003   2.592 -0.9956 -0.5490  0.8153
 1607TIP3    H229017   1.821   2.938   2.601 -0.0956  0.9193 -1.4664
 1608TIP3   OH229018   3.688   2.990   7.216  0.0913 -0.2289  0.0571
 1608TIP3    H129019   3.610   3.025   7.258 -1.7956 -1.6845 -1.9885
 1608TIP3    H229020   3.667   2.990   7.122  2.3211 -1.2408 -0.5230
 1609TIP3   OH229021   3.618   2.767   8.142  0.3636  0.3501 -0.4215
 1609TIP3    H129022   3.656   2.698   8.088  0.5866  0.5098 -0.4667
 1609TIP3    H229023   3.579   2.720   8.216  2.5655  0.3306  0.7930
 1610TIP3   OH229024   1.751   4.984   0.979 -0.0044  0.3997  0.4277
 1610TIP3    H129025   1.665   4.946   1.000  0.1752  0.1970  0.8090
 1610TIP3    H229026   1.761   4.969   0.885 -0.9101  1.5016  0.1304
 1611TIP3   OH229027   3.489   5.905   8.499  0.3587 -0.4518 -0.5831
 1611TIP3    H129028   3.469   5.871   8.586  0.8429 -0.9584 -0.6651
 1611TIP3    H229029   3.509   5.827   8.447 -1.6036 -0.3382 -1.6141
 1612TIP3   OH229030   4.722   2.958   6.657  0.5304  0.3653  0.1402
 1612TIP3    H129031   4.785   2.887   6.668  0.6317  0.5887  1.1114
 1612TIP3    H229032   4.716   2.998   6.744 -0.2129  0.9664 -0.1781
 1613TIP3   OH229033   4.751   3.814   6.794  0.2356 -0.0222  0.4339
 1613TIP3    H129034   4.751   3.790   6.887 -4.0419  0.5373  0.7902
 1613TIP3    H229035   4.712   3.739   6.749  1.5923  0.0025 -0.8796
 1614TIP3   OH229036   5.378   5.695   0.057 -0.4811  0.1682 -0.6662
 1614TIP3    H129037   5.333   5.624   0.012 -1.6145  0.9778 -0.8587
 1614TIP3    H229038   5.374   5.672   0.150 -0.8010 -0.0422 -0.7320
 1615TIP3   OH229039   3.394   3.305   0.442 -0.3771  0.0808 -0.1040
 1615TIP3    H129040   3.311   3.327   0.485 -0.2557 -1.1237  0.8014
 1615TIP3    H229041   3.372   3.298   0.349 -1.2628 -0.1011  0.1108
 1616TIP3   OH229042   0.283   2.569   0.549  0.0903 -0.6774  0.4295
 1616TIP3    H129043   0.378   2.578   0.548 -0.0065  0.3186 -0.1678
 1616TIP3    H229044   0.254   2.634   0.613 -0.1839 -1.1519  0.7971
 1617TIP3   OH229045   0.631   6.136   1.863 -0.2769  0.1534  0.5026
 1617TIP3    H129046   0.549   6.110   1.821 -0.3435  0.7906  0.2318
 1617TIP3    H229047   0.624   6.101   1.952 -0.9395  0.3989  0.5518
 1618TIP3   OH229048   4.903   4.637   8.302  0.1091 -0.4903  0.0976
 1618TIP3    H129049   4.851   4.709   8.265  2.0259  0.4967 -0.8005
 1618TIP3    H229050   4.878   4.635   8.394 -0.4850  0.8972 -0.0018
 1619TIP3   OH229051   1.261   2.683   8.283 -0.0600 -0.3116 -0.0926
 1619TIP3    H129052   1.169   2.657   8.285  0.2094 -1.4873 -1.3606
 1619TIP3    H229053   1.263   2.764   8.232 -0.3921 -0.2812 -0.0553
 1620TIP3   OH229054   3.604   1.730   2.631 -0.3483  0.2404  0.0737
 1620TIP3    H129055   3.524   1.765   2.670 -0.1592  0.0187  0.6806
 1620TIP3    H229056   3.594   1.635   2.639 -0.3710  0.1888 -0.5589
 1621TIP3   OH229057   4.974   0.263   8.499 -0.4463  0.4022  0.6352
 1621TIP3    H129058   5.053   0.225   8.536 -0.5127  1.3252  1.8130
 1621TIP3    H229059   4.920   0.284   8.576 -1.5783  0.3262 -0.1147
 1622TIP3   OH229060   5.778   1.313   8.991  0.3984 -0.8678  0.5043
 1622TIP3    H129061   5.824   1.275   9.066 -2.0136 -0.5726  2.2715
 1622TIP3    H229062   5.780   1.245   8.924  0.9221 -1.9490  1.5815
 1623TIP3   OH229063   6.572   4.401   0.681  0.3307 -0.1361 -0.5650
 1623TIP3    H129064   6.587   4.382   0.589 -1.3040 -0.6328 -0.7548
 1623TIP3    H229065   6.495   4.458   0.682  0.5442  0.1557  0.4771
 1624TIP3   OH229066   0.919   4.631   8.300 -0.9182  0.2357 -1.4710
 1624TIP3    H129067   0.934   4.591   8.386 -2.4717  2.6254  0.0642
 1624TIP3    H229068   0.997   4.611   8.249 -0.9839 -3.3703 -0.4026
 1625TIP3   OH229069   1.262   3.736   7.960 -0.3018 -0.0001  0.0915
 1625TIP3    H129070   1.214   3.679   7.899 -0.6174  2.6660 -2.3626
 1625TIP3    H229071   1.263   3.687   8.042 -3.8537 -1.8502 -0.7600
 1626TIP3   OH229072   6.117   2.574   2.725  0.0657  0.2404  0.2809
 1626TIP3    H129073   6.160   2.656   2.700  0.6671 -0.4146 -0.9362
 1626TIP3    H229074   6.189   2.513   2.741 -0.3600  0.1071  1.8682
 1627TIP3   OH229075   4.337   0.254   9.294 -0.0145  0.1107  0.3367
 1627TIP3    H129076   4.357   0.162   9.273 -0.3990  0.2026 -0.4784
 1627TIP3    H229077   4.266   0.249   9.358 -0.5809 -0.1646 -0.2949
 1628TIP3   OH229078   5.154   5.399   0.138  0.0516 -0.4135  0.7883
 1628TIP3    H129079   5.101   5.468   0.100 -0.4071 -1.6504 -0.9394
 1628TIP3    H229080   5.189   5.350   0.063  1.1207 -1.5046  1.9218
 1629TIP3   OH229081   2.410   0.355   1.717  0.2073 -0.3208  0.2896
 1629TIP3    H129082   2.351   0.357   1.793  0.2815 -1.9602  0.4141
 1629TIP3    H229083   2.446   0.266   1.717  1.7505  0.2702 -0.5071
 1630TIP3   OH229084   1.099   7.382   8.523 -0.2290 -0.2077  0.2526
 1630TIP3    H129085   1.026   7.381   8.460 -0.4079  0.9290  0.4185
 1630TIP3    H229086   1.074   7.449   8.587 -0.6751 -2.2086  2.3164
 1631TIP3   OH229087   7.020   2.557   9.487 -0.6396  0.3179 -0.3636
 1631TIP3    H129088   7.064   2.553   9.572 -0.2542 -0.1778 -0.5762
 1631TIP3    H229089   7.092   2.565   9.424 -0.9886  2.5929 -0.5476
 1632TIP3   OH229090   6.751   4.068   8.609  0.0890 -0.4225  0.1766
 1632TIP3    H129091   6.814   4.043   8.542 -0.5579  0.9628 -0.9989
 1632TIP3    H229092   6.799   4.127   8.667 -0.1094  0.6645 -0.7398
 1633TIP3   OH229093   5.293   4.483   1.986 -0.1779 -0.3706 -0.5173
 1633TIP3    H129094   5.198   4.493   1.993 -0.5293 -3.0454 -0.2341
 1633TIP3    H229095   5.329   4.557   2.035 -2.0774  0.8368 -0.8432
 1634TIP3   OH229096   4.938   6.833   2.833  0.4127 -0.3139  0.2615
 1634TIP3    H129097   5.010   6.822   2.772  0.5238 -0.1190  0.3543
 1634TIP3    H229098   4.957   6.772   2.904  0.3867 -0.4005  0.1931
 1635TIP3   OH229099   5.033   4.253   0.595  0.1971  0.2045 -0.1675
 1635TIP3    H129100   4.945   4.257   0.557  0.0116 -1.1673  0.0781
 1635TIP3    H229101   5.092   4.255   0.520 -0.0379  1.0078 -0.3414
 1636TIP3   OH229102   6.445   2.291   0.129  0.0652 -0.0560 -0.1434
 1636TIP3    H129103   6.471   2.256   0.043 -0.3796 -1.3906  0.2453
 1636TIP3    H229104   6.461   2.219   0.190  2.3253  1.5084  1.2656
 1637TIP3   OH229105   1.254   7.001   0.287  0.0349 -0.4918 -0.5652
 1637TIP3    H129106   1.264   7.087   0.246  0.6288 -0.5988 -0.6566
 1637TIP3    H229107   1.344   6.969   0.297 -0.1719 -1.0105 -0.3376
 1638TIP3   OH229108   0.469   5.276   8.232  0.8515  0.2981 -0.5712
 1638TIP3    H129109   0.499   5.293   8.143 -0.8567 -0.4194 -1.3269
 1638TIP3    H229110   0.540   5.308   8.288  2.2341  0.1861 -2.1868
 1639TIP3   OH229111   6.637   3.412   9.376 -0.2695 -0.2983  0.1470
 1639TIP3    H129112   6.730   3.416   9.399 -0.4743  1.0768  0.9026
 1639TIP3    H229113   6.612   3.321   9.394  0.7808 -0.5300  0.5528
 1640TIP3   OH229114   3.034   1.612   6.904 -0.3466  0.1722 -0.5840
 1640TIP3    H129115   3.046   1.517   6.914  0.3619  0.3474  0.4932
 1640TIP3    H229116   2.949   1.629   6.945 -0.5805 -0.0221 -0.9813
 1641TIP3   OH229117   1.941   3.575   8.565 -0.6591  0.4331 -0.5151
 1641TIP3    H129118   1.966   3.483   8.575  0.1049  0.6640 -0.2072
 1641TIP3    H229119   1.852   3.580   8.600 -0.9732 -0.3181 -1.1697
 1642TIP3   OH229120   3.651   5.405   8.143  0.0049 -0.3190  0.1077
 1642TIP3    H129121   3.630   5.400   8.050  0.6852 -0.4620 -0.0474
 1642TIP3    H229122   3.652   5.314   8.173 -1.4460 -0.2082  0.5542
 1643TIP3   OH229123   6.875   3.336   9.510  0.0280 -0.2793  0.4749
 1643TIP3    H129124   6.970   3.347   9.517  0.2262  0.2052 -1.9926
 1643TIP3    H229125   6.864   3.244   9.484 -0.2151 -0.3990  0.9883
 1644TIP3   OH229126   1.115   5.070   1.003 -0.2676  0.2986 -0.3817
 1644TIP3    H129127   1.096   5.002   1.068 -0.5820 -0.5804 -1.3593
 1644TIP3    H229128   1.199   5.107   1.031 -0.9746  0.7958  1.2012
 1645TIP3   OH229129   5.507   0.055   8.846  0.1452 -0.4971 -0.1571
 1645TIP3    H129130   5.487   0.145   8.872  1.4718 -0.1113 -0.3706
 1645TIP3    H229131   5.562   0.021   8.917 -0.7492 -1.3141  0.1585
 1646TIP3   OH229132   1.718   3.266   8.668  0.3250 -0.2020  0.4548
 1646TIP3    H129133   1.782   3.297   8.733 -0.6219 -0.8250  1.7203
 1646TIP3    H229134   1.640   3.247   8.719 -0.8056  0.2968 -1.0312
 1647TIP3   OH229135   4.276   3.774   2.076 -0.0162 -0.1200 -0.5080
 1647TIP3    H129136   4.297   3.705   2.014 -0.2536 -0.1205 -0.5909
 1647TIP3    H229137   4.206   3.824   2.033  0.7256  0.6858 -0.8227
 1648TIP3   OH229138   6.718   1.120   9.570  0.2319 -0.3712  0.2992
 1648TIP3    H129139   6.683   1.048   9.517 -0.7747  0.1996  0.1748
 1648TIP3    H229140   6.644   1.179   9.583  1.0772  0.7334  0.2571
 1649TIP3   OH229141   5.212   6.859   0.759  0.5548  0.6732  0.4392
 1649TIP3    H129142   5.278   6.914   0.801  1.5030  1.0478 -1.4479
 1649TIP3    H229143   5.148   6.921   0.724  0.8073  0.4968 -0.3482
 1650TIP3   OH229144   1.013   4.515   8.562 -0.1194  0.1752  0.2239
 1650TIP3    H129145   0.959   4.541   8.636 -1.5062 -0.7782 -0.4150
 1650TIP3    H229146   1.088   4.574   8.566 -0.4292  0.5195  2.0425
 1651TIP3   OH229147   5.039   6.874   7.308 -0.4088 -0.4571 -0.4265
 1651TIP3    H129148   5.016   6.960   7.345 -0.4573 -0.1682 -1.1122
 1651TIP3    H229149   5.020   6.812   7.378  2.6917  0.3641  1.3251
 1652TIP3   OH229150   1.674   4.916   8.763  0.0330  0.2307 -0.3110
 1652TIP3    H129151   1.737   4.967   8.813 -1.6032  1.3892  0.6652
 1652TIP3    H229152   1.698   4.825   8.780  0.1788  0.6113  1.7515
 1653TIP3   OH229153   6.981   5.361   7.043  0.4219 -0.2173  0.2864
 1653TIP3    H129154   7.035   5.333   7.117  2.1348 -0.5025 -1.0153
 1653TIP3    H229155   6.895   5.380   7.082  1.7109  1.2688  2.6239
 1654TIP3   OH229156   2.178   4.180   6.676 -0.7817  0.2736 -0.1809
 1654TIP3    H129157   2.273   4.170   6.676 -0.8804 -0.8137 -0.4680
 1654TIP3    H229158   2.162   4.256   6.733  0.2834  0.9012 -0.6917
 1655TIP3   OH229159   3.452   0.972   7.915 -0.1930  0.2964  0.3356
 1655TIP3    H129160   3.506   0.922   7.977  1.0641  0.8300 -0.2961
 1655TIP3    H229161   3.447   0.917   7.837  2.0401  1.5045 -0.7402
 1656TIP3   OH229162   6.185   5.677   8.950  0.2568  0.1961  0.0647
 1656TIP3    H129163   6.160   5.758   8.905  0.6410  0.4718  0.3354
 1656TIP3    H229164   6.221   5.621   8.881 -1.0191 -0.1855 -0.3165
 1657TIP3   OH229165   6.490   1.123   6.318  0.7324  0.6791  0.2965
 1657TIP3    H129166   6.576   1.127   6.278  1.1733  0.9461  1.2336
 1657TIP3    H229167   6.454   1.212   6.309 -0.3869  0.0601 -2.0306
 1658TIP3   OH229168   5.475   1.024   8.418  0.3841  0.1381 -0.4840
 1658TIP3    H129169   5.439   0.989   8.499  1.7537 -0.2279 -0.0179
 1658TIP3    H229170   5.463   1.119   8.425 -0.7590  0.0102 -0.4953
 1659TIP3   OH229171   0.267   2.783   0.774  0.3080  0.3204 -0.3231
 1659TIP3    H129172   0.204   2.718   0.805  0.0346  0.7483  0.0312
 1659TIP3    H229173   0.215   2.862   0.759  0.5577  0.3206 -1.2148
 1660TIP3   OH229174   1.988   3.846   6.230  0.8707 -0.2892  0.2111
 1660TIP3    H129175   2.014   3.782   6.296  1.3909  0.4504  0.7495
 1660TIP3    H229176   1.916   3.894   6.271  1.4370  0.4154  0.4130
 1661TIP3   OH229177   3.981   7.055   0.084  0.0636  0.2149  0.2594
 1661TIP3    H129178   3.966   7.088  -0.004  0.9140 -0.3066 -0.0965
 1661TIP3    H229179   4.006   7.132   0.135 -0.3915  0.5107  0.0408
 1662TIP3   OH229180   5.248   1.085   1.781 -0.4472 -0.2809 -0.0086
 1662TIP3    H129181   5.244   1.178   1.760 -0.8539  0.0863  1.5685
 1662TIP3    H229182   5.222   1.080   1.873  0.5729 -1.8477  0.2298
 1663TIP3   OH229183   2.033   1.589   8.772  0.2275  0.1655 -0.0365
 1663TIP3    H129184   1.970   1.530   8.813  0.9775  0.0124  0.9283
 1663TIP3    H229185   2.018   1.578   8.678 -0.5198 -0.5848  0.1519
 1664TIP3   OH229186   5.924   1.562   7.295 -0.2002  0.4129  0.1962
 1664TIP3    H129187   5.898   1.512   7.219 -2.4834 -0.5290  1.4859
 1664TIP3    H229188   5.943   1.650   7.261  2.8306 -0.8903 -1.9425
 1665TIP3   OH229189   4.183   2.512   7.384  0.0397  0.7826 -0.2500
 1665TIP3    H129190   4.197   2.599   7.347  0.1515  0.3139 -1.3570
 1665TIP3    H229191   4.117   2.472   7.327 -1.0426  0.6215  1.0564
 1666TIP3   OH229192   5.023   1.929   7.288 -0.3889 -0.9761  0.0001
 1666TIP3    H129193   5.086   1.864   7.258 -0.7077 -2.0553  1.5442
 1666TIP3    H229194   5.006   1.983   7.211  1.9652 -0.9953 -0.6028
 1667TIP3   OH229195   7.229   6.806   9.017  0.0611  0.3758  0.6517
 1667TIP3    H129196   7.286   6.865   8.966 -0.8635  1.8717  1.2829
 1667TIP3    H229197   7.213   6.732   8.959  1.2335  0.7523 -0.1889
 1668TIP3   OH229198   2.824   3.393   8.116 -0.8573 -0.6565  0.1845
 1668TIP3    H129199   2.766   3.427   8.047 -0.9511 -0.6475  0.2667
 1668TIP3    H229200   2.773   3.403   8.196 -0.2701  0.4770  0.4359
 1669TIP3   OH229201   2.334   0.466   7.512  0.1016  0.1059 -0.2787
 1669TIP3    H129202   2.328   0.464   7.608  0.4637  1.7927 -0.1897
 1669TIP3    H229203   2.244   0.449   7.483 -0.3306  1.0463  0.4254
 1670TIP3   OH229204   3.473   7.299   8.694 -0.2885 -0.2774 -0.2595
 1670TIP3    H129205   3.426   7.301   8.611 -0.1098 -0.8674 -0.3814
 1670TIP3    H229206   3.544   7.363   8.683 -0.1739 -0.4607 -0.6244
 1671TIP3   OH229207   1.427   0.982   1.168  0.3493  0.3666  0.2607
 1671TIP3    H129208   1.511   0.969   1.125 -0.8920 -0.5742 -2.0741
 1671TIP3    H229209   1.387   1.055   1.121  0.0235  1.1404  1.6787
 1672TIP3   OH229210   3.038   5.188   9.381  0.2737 -0.2351  0.1828
 1672TIP3    H129211   3.037   5.095   9.405  0.8841  0.0887  1.5877
 1672TIP3    H229212   2.981   5.230   9.445 -0.6066  0.2798 -0.9083
 1673TIP3   OH229213   2.867   0.443   6.771  0.5286 -0.4909 -0.0858
 1673TIP3    H129214   2.927   0.439   6.697 -0.6705  0.0857 -1.1177
 1673TIP3    H229215   2.824   0.528   6.764 -0.4919 -0.9267  0.5496
 1674TIP3   OH229216   2.103   4.271   8.168  0.0929  0.1339 -0.1338
 1674TIP3    H129217   2.150   4.193   8.198 -1.3343 -1.1389 -1.0089
 1674TIP3    H229218   2.031   4.280   8.230 -0.7851 -0.3601 -1.0440
 1675TIP3   OH229219   2.397   1.848   2.895 -0.2394  0.2621 -0.9485
 1675TIP3    H129220   2.312   1.817   2.864 -0.6511  0.9942 -0.5807
 1675TIP3    H229221   2.458   1.780   2.868 -1.0544 -0.6891 -0.4963
 1676TIP3   OH229222   7.069   3.565   3.221  0.5261 -0.2877 -0.2101
 1676TIP3    H129223   7.138   3.501   3.206 -0.0906 -1.2620  0.9118
 1676TIP3    H229224   7.008   3.552   3.148 -0.2676 -1.9682  0.6805
 1677TIP3   OH229225   2.699   4.413   8.238  0.4105  0.1323  0.0438
 1677TIP3    H129226   2.642   4.400   8.314  0.2958 -2.3384 -0.3554
 1677TIP3    H229227   2.712   4.324   8.203  1.3576  1.0648 -2.1675
 1678TIP3   OH229228   0.689   3.641   9.151  0.4151 -0.2838 -0.2255
 1678TIP3    H129229   0.660   3.714   9.096  2.0013  0.2057 -0.4636
 1678TIP3    H229230   0.763   3.603   9.103  0.5086 -1.1638  0.5820
 1679TIP3   OH229231   0.509   3.983   7.402 -0.3279 -0.0968 -0.3522
 1679TIP3    H129232   0.434   3.950   7.452 -0.5886  2.5261  1.1874
 1679TIP3    H229233   0.492   3.956   7.312 -1.5020 -2.2160  0.4307
 1680TIP3   OH229234   2.715   2.204   7.625 -0.3607 -0.1194 -0.1246
 1680TIP3    H129235   2.625   2.233   7.613 -0.6924 -0.2869  1.5880
 1680TIP3    H229236   2.707   2.124   7.677  0.6833 -1.5407 -2.0159
 1681TIP3   OH229237   1.889   1.043   0.834  0.0528 -0.4370 -0.2650
 1681TIP3    H129238   1.960   1.014   0.891 -0.0422  1.8962  1.1832
 1681TIP3    H229239   1.811   1.040   0.890 -0.2571  0.7988 -0.6019
 1682TIP3   OH229240   4.362   5.138   0.309  0.1387 -0.5174 -0.2517
 1682TIP3    H129241   4.444   5.096   0.336 -1.3050 -3.8296 -0.6329
 1682TIP3    H229242   4.347   5.108   0.220 -1.8733 -0.6102  0.0786
 1683TIP3   OH229243   4.324   4.477   7.498  0.2619  0.0181 -0.3477
 1683TIP3    H129244   4.404   4.433   7.471  1.0684  1.3197 -0.1644
 1683TIP3    H229245   4.286   4.508   7.416  0.7770  0.7611 -0.3124
 1684TIP3   OH229246   5.872   6.194   0.469  0.0198  0.6030 -0.4560
 1684TIP3    H129247   5.811   6.259   0.505  0.0520  0.0711  0.5914
 1684TIP3    H229248   5.831   6.166   0.387 -0.9545  0.5511  0.0372
 1685TIP3   OH229249   1.987   3.230   8.376  0.3236 -0.0747 -0.3861
 1685TIP3    H129250   2.026   3.280   8.305 -2.0930  4.0348  0.8732
 1685TIP3    H229251   2.034   3.257   8.455 -0.4573 -0.4839  0.2453
 1686TIP3   OH229252   4.387   2.509   0.348 -0.8010  0.1199  0.0460
 1686TIP3    H129253   4.361   2.563   0.274 -1.5426  1.1074  0.9876
 1686TIP3    H229254   4.472   2.474   0.324 -0.5672  1.2472 -0.8374
 1687TIP3   OH229255   5.909   7.140   8.035  0.1609 -0.5907  0.0281
 1687TIP3    H129256   5.948   7.226   8.023  0.4412 -0.8307 -0.8823
 1687TIP3    H229257   5.914   7.124   8.129  0.2222  0.3234  0.1873
 1688TIP3   OH229258   6.972   7.349   1.382 -0.0299  0.0955 -0.4739
 1688TIP3    H129259   7.064   7.333   1.403  0.0137 -0.4396 -1.0614
 1688TIP3    H229260   6.924   7.317   1.458  0.3243  1.5700  0.4190
 1689TIP3   OH229261   6.391   3.616   8.215  0.2400 -0.0799  0.1111
 1689TIP3    H129262   6.464   3.590   8.159 -0.1684  2.3928 -1.7088
 1689TIP3    H229263   6.321   3.554   8.194  0.8351 -0.5925 -0.3994
 1690TIP3   OH229264   4.726   5.363   2.128 -0.6579 -0.0931  0.1815
 1690TIP3    H129265   4.775   5.315   2.061 -2.0049 -1.3144  0.0312
 1690TIP3    H229266   4.786   5.368   2.202  0.5030  0.4313 -0.7428
 1691TIP3   OH229267   0.407   4.027   9.470  0.2636 -0.6045 -0.1632
 1691TIP3    H129268   0.480   3.965   9.466  0.5814 -0.5889  2.9508
 1691TIP3    H229269   0.329   3.971   9.473  0.3733 -0.7543 -0.0591
 1692TIP3   OH229270   2.184   2.058   6.979 -0.2542 -0.0087  0.5040
 1692TIP3    H129271   2.210   2.122   7.046  0.9122  0.9927 -0.8557
 1692TIP3    H229272   2.211   1.973   7.016  0.2616  0.5137  1.3661
 1693TIP3   OH229273   1.797   0.748   0.997  0.6047 -0.6724  0.7402
 1693TIP3    H129274   1.888   0.719   1.000 -0.1098 -3.4355 -0.5726
 1693TIP3    H229275   1.760   0.701   0.922 -1.6227  1.3175  0.4795
 1694TIP3   OH229276   0.664   1.565   8.007 -0.0375 -0.5231 -0.0499
 1694TIP3    H129277   0.710   1.630   7.954  2.0645 -1.7672  0.1482
 1694TIP3    H229278   0.621   1.508   7.943  2.7439 -2.2070 -0.6006
 1695TIP3   OH229279   1.442   0.898   6.589  0.3259 -0.1946 -0.2405
 1695TIP3    H129280   1.362   0.934   6.549 -0.1620 -1.0957 -0.1128
 1695TIP3    H229281   1.486   0.852   6.518  0.5760  0.0447 -0.2400
 1696TIP3   OH229282   5.035   0.136   7.979 -0.4670  0.2345  0.8560
 1696TIP3    H129283   5.073   0.086   8.051  0.9768 -1.0609 -0.7289
 1696TIP3    H229284   5.038   0.227   8.008  1.3138 -0.1292  1.9026
 1697TIP3   OH229285   5.585   6.321   7.483 -0.4620 -0.0036  0.2102
 1697TIP3    H129286   5.582   6.404   7.531  0.3412 -0.1168  0.4602
 1697TIP3    H229287   5.493   6.304   7.461 -1.0593 -0.5421  2.7205
 1698TIP3   OH229288   3.913   4.772   9.429 -0.3305 -0.3246  0.5742
 1698TIP3    H129289   3.918   4.677   9.425 -0.7318 -0.3198 -0.1737
 1698TIP3    H229290   3.891   4.799   9.340  0.8835  0.5488  0.5113
 1699TIP3   OH229291   2.532   4.012   9.311 -0.0383 -0.1094  0.1575
 1699TIP3    H129292   2.440   3.996   9.288 -0.6728  3.1888 -0.1154
 1699TIP3    H229293   2.570   4.050   9.232  1.9708 -2.4085 -0.1063
 1700TIP3   OH229294   5.615   5.516   8.771 -0.1114  0.0553  0.1727
 1700TIP3    H129295   5.701   5.558   8.775 -0.0900  0.3056 -1.9421
 1700TIP3    H229296   5.558   5.574   8.821  0.4828  1.1942 -0.4286
 1701TIP3   OH229297   4.119   0.737   8.926  0.1338 -0.1574 -0.2859
 1701TIP3    H129298   4.205   0.773   8.949  0.5721 -2.2907  1.7390
 1701TIP3    H229299   4.069   0.741   9.008 -0.4961 -2.1382 -0.5353
 1702TIP3   OH229300   2.226   3.083   9.347  0.8968 -0.3964  0.3445
 1702TIP3    H129301   2.230   3.075   9.443  0.0951  1.8791  0.6418
 1702TIP3    H229302   2.263   3.170   9.330  0.9630 -0.7488 -1.4128
 1703TIP3   OH229303   2.060   0.620   0.659 -0.0527  0.0971 -0.4056
 1703TIP3    H129304   2.048   0.704   0.615 -0.1448 -0.2164 -0.9966
 1703TIP3    H229305   2.148   0.592   0.633  0.2565  0.3398  0.3634
 1704TIP3   OH229306   0.817   3.936   1.576 -0.2057 -0.1907  0.1884
 1704TIP3    H129307   0.836   4.025   1.545 -1.3803 -0.1367 -0.4592
 1704TIP3    H229308   0.884   3.919   1.642  0.2290  1.0619  0.1096
 1705TIP3   OH229309   5.954   5.980   1.570 -0.3945 -0.2149 -0.5704
 1705TIP3    H129310   5.877   6.020   1.612 -0.4351 -0.3156 -0.5472
 1705TIP3    H229311   5.933   5.981   1.476  0.0813  0.8167 -0.6680
 1706TIP3   OH229312   1.581   2.219   0.253  0.1868  0.5125 -0.1329
 1706TIP3    H129313   1.507   2.223   0.314 -0.4397  1.0513 -0.9133
 1706TIP3    H229314   1.602   2.311   0.235 -0.5373  0.3736 -1.7972
 1707TIP3   OH229315   2.411   5.630   1.943  0.4989  1.0514 -0.1299
 1707TIP3    H129316   2.343   5.567   1.970  1.2770 -0.3695 -1.3312
 1707TIP3    H229317   2.369   5.683   1.875 -0.7810  3.2305  2.1705
 1708TIP3   OH229318   0.976   2.593   8.545 -0.2041 -0.0147 -0.0359
 1708TIP3    H129319   0.982   2.613   8.639 -0.6090 -0.0916  0.0098
 1708TIP3    H229320   1.018   2.507   8.536 -3.0500 -1.6051  0.6454
 1709TIP3   OH229321   2.175   3.044   0.668 -0.1869  0.1664  0.5663
 1709TIP3    H129322   2.083   3.024   0.654  0.1256 -0.6997 -0.3168
 1709TIP3    H229323   2.180   3.140   0.664 -0.7023  0.1513 -1.7750
 1710TIP3   OH229324   3.463   7.058   0.289 -0.3610 -0.4230  0.5057
 1710TIP3    H129325   3.371   7.058   0.262 -0.6938 -1.5891  1.5731
 1710TIP3    H229326   3.467   6.997   0.362  1.0078  0.6796  1.4000
 1711TIP3   OH229327   5.626   3.398   1.667  0.6633 -0.0428 -0.1297
 1711TIP3    H129328   5.648   3.322   1.722 -0.7937 -1.7023 -1.6688
 1711TIP3    H229329   5.562   3.447   1.719  1.0582 -0.2745  0.5883
 1712TIP3   OH229330   6.792   3.057   2.100  0.0610  0.1816  0.4075
 1712TIP3    H129331   6.783   3.152   2.096  0.6303  0.1987 -1.6203
 1712TIP3    H229332   6.862   3.037   2.038 -1.6676 -1.7464 -1.0429
 1713TIP3   OH229333   3.680   4.452   1.426  0.1450  0.2646 -0.7374
 1713TIP3    H129334   3.749   4.389   1.447 -0.3475 -0.1510 -0.3305
 1713TIP3    H229335   3.682   4.460   1.331 -0.0289 -0.6496 -0.8286
 1714TIP3   OH229336   0.533   0.348   8.229 -0.0380  0.3942  0.4906
 1714TIP3    H129337   0.511   0.263   8.265 -2.1409 -0.2841 -2.0847
 1714TIP3    H229338   0.466   0.407   8.264  0.6234  0.7381  1.2107
 1715TIP3   OH229339   2.638   6.171   8.591 -0.2832  0.7817  0.1353
 1715TIP3    H129340   2.689   6.148   8.668 -0.7729  1.8396  0.7992
 1715TIP3    H229341   2.616   6.264   8.603 -0.8024  0.8300 -1.0216
 1716TIP3   OH229342   3.309   4.299   8.003  0.0745 -0.2872  0.0212
 1716TIP3    H129343   3.264   4.221   8.035 -1.3299  0.5443  0.1204
 1716TIP3    H229344   3.320   4.355   8.080  0.4420 -0.0797 -0.1772
 1717TIP3   OH229345   0.903   0.264   6.992  0.6775 -0.0282  0.1443
 1717TIP3    H129346   0.962   0.320   7.042  1.3532  0.5754 -1.2746
 1717TIP3    H229347   0.858   0.323   6.932  1.4932 -0.9669 -1.4777
 1718TIP3   OH229348   0.205   1.899   9.043 -0.1131 -0.3692  0.0628
 1718TIP3    H129349   0.293   1.884   9.009 -0.0387 -0.0344  0.1001
 1718TIP3    H229350   0.175   1.813   9.071  1.2497 -0.1412  2.5463
 1719TIP3   OH229351   4.038   2.740   0.784  0.0225  0.8559  0.2536
 1719TIP3    H129352   4.054   2.657   0.828  1.2733  0.1205 -1.4977
 1719TIP3    H229353   3.970   2.782   0.837 -0.5939 -1.2298  1.2174
 1720TIP3   OH229354   4.524   5.523   8.917 -0.4391  0.3239 -0.0634
 1720TIP3    H129355   4.585   5.485   8.854  0.4267  0.4776  0.6709
 1720TIP3    H229356   4.522   5.460   8.989 -1.2050  0.2925 -0.0969
 1721TIP3   OH229357   0.241   0.234   7.443 -0.0299  0.4955 -0.3897
 1721TIP3    H129358   0.227   0.203   7.353 -0.5111 -0.7953  0.1064
 1721TIP3    H229359   0.328   0.202   7.466 -0.2292  0.1258 -0.1328
 1722TIP3   OH229360   3.916   5.892   2.084  0.2717 -0.0305  0.3476
 1722TIP3    H129361   3.974   5.853   2.019  0.8654  0.2910  0.6694
 1722TIP3    H229362   3.927   5.986   2.071  1.0672  0.0516  1.4726
 1723TIP3   OH229363   4.823   3.010   8.999  0.4818 -0.6746 -0.0871
 1723TIP3    H129364   4.826   3.057   9.082  1.1944 -1.9174  0.6045
 1723TIP3    H229365   4.914   3.007   8.969  0.8459 -3.5607  1.0247
 1724TIP3   OH229366   3.814   6.563   1.902 -0.0364  0.5104 -0.2281
 1724TIP3    H129367   3.796   6.470   1.888  2.1244 -0.0995  0.5043
 1724TIP3    H229368   3.772   6.584   1.985 -0.6973  0.2455 -0.4917
 1725TIP3   OH229369   0.652   3.728   7.749  0.3164  1.1793  0.1093
 1725TIP3    H129370   0.635   3.740   7.842 -0.5765  0.4745  0.0540
 1725TIP3    H229371   0.578   3.676   7.717  1.9296 -0.9907 -0.4164
 1726TIP3   OH229372   1.610   0.388   8.795 -0.2248 -0.4832  0.2663
 1726TIP3    H129373   1.522   0.350   8.791  0.3468 -1.7669 -1.3969
 1726TIP3    H229374   1.658   0.331   8.856 -0.9449  1.2486  2.5749
 1727TIP3   OH229375   0.152   2.054   0.347  0.7159  0.8612  0.0744
 1727TIP3    H129376   0.118   2.045   0.259  0.6134  1.1784  0.0808
 1727TIP3    H229377   0.075   2.063   0.403  0.7047 -0.7514  0.3816
 1728TIP3   OH229378   5.672   4.691   9.442 -0.5801 -0.7816 -0.0778
 1728TIP3    H129379   5.683   4.598   9.462 -1.2825 -0.5945  1.3713
 1728TIP3    H229380   5.592   4.716   9.489 -0.5750  0.4827 -0.6980
 1729TIP3   OH229381   1.717   6.641   0.161 -0.1872 -0.9642  0.0919
 1729TIP3    H129382   1.809   6.648   0.136 -0.0151  0.9528  1.1251
 1729TIP3    H229383   1.669   6.648   0.078  0.5104  1.1503 -0.1861
 1730TIP3   OH229384   3.008   3.355   8.815 -0.1252  0.5041  0.7310
 1730TIP3    H129385   2.915   3.359   8.836 -0.3943  1.3438 -0.4518
 1730TIP3    H229386   3.036   3.269   8.844 -1.7320 -0.5267 -0.5984
 1731TIP3   OH229387   2.821   2.025   8.997 -0.1904  0.0205  0.3562
 1731TIP3    H129388   2.888   2.069   9.050  1.0348 -1.3907  0.0464
 1731TIP3    H229389   2.747   2.013   9.058  0.8167 -0.6886  1.4944
 1732TIP3   OH229390   0.793   1.610   7.361 -0.1532  0.0346  0.1161
 1732TIP3    H129391   0.745   1.540   7.316  1.1881 -1.0325  0.2640
 1732TIP3    H229392   0.885   1.592   7.341  0.4728 -0.1785  2.7958
 1733TIP3   OH229393   6.509   1.639   7.275 -0.5868 -0.0970  0.2374
 1733TIP3    H129394   6.426   1.605   7.241 -1.8502  3.4211 -0.5673
 1733TIP3    H229395   6.554   1.674   7.199  0.1825  0.8734  1.1147
 1734TIP3   OH229396   2.612   5.547   8.460  0.1715 -0.0201  0.2413
 1734TIP3    H129397   2.644   5.598   8.534  0.1760  0.8367 -0.3295
 1734TIP3    H229398   2.690   5.503   8.426  0.2978  0.1163  0.3498
 1735TIP3   OH229399   0.424   7.119   2.310 -0.1432 -0.0970  0.0906
 1735TIP3    H129400   0.503   7.065   2.299  0.1914 -0.0260  1.7543
 1735TIP3    H229401   0.440   7.167   2.392 -2.4554 -1.0429  1.1837
 1736TIP3   OH229402   3.317   1.579   1.065  0.3594  0.0031 -0.4093
 1736TIP3    H129403   3.253   1.642   1.031  2.1250  2.1330 -0.0956
 1736TIP3    H229404   3.329   1.516   0.994 -0.3812  0.9138 -1.3827
 1737TIP3   OH229405   6.743   5.433   8.133  0.5493  0.4091  0.5885
 1737TIP3    H129406   6.670   5.446   8.194  0.1830  0.2144  0.1937
 1737TIP3    H229407   6.704   5.445   8.046  1.2892  1.7649  0.4156
 1738TIP3   OH229408   4.051   3.748   8.752 -0.6865  0.1686  0.1618
 1738TIP3    H129409   4.076   3.665   8.711 -0.8999 -0.3165  0.9784
 1738TIP3    H229410   4.115   3.811   8.721  0.0891 -0.5288  0.3218
 1739TIP3   OH229411   7.278   3.177   7.514  0.3810 -0.5888  0.0637
 1739TIP3    H129412   7.206   3.181   7.451  0.5843 -1.2951 -0.2186
 1739TIP3    H229413   7.325   3.097   7.492  0.5364 -0.7743  1.0202
 1740TIP3   OH229414   2.783   0.094   7.640  0.1487  0.3331 -0.4019
 1740TIP3    H129415   2.846   0.115   7.710  0.8484  0.5575 -1.0833
 1740TIP3    H229416   2.797   0.001   7.622 -0.5466  0.0958  0.2552
 1741TIP3   OH229417   6.866   0.167   8.259  0.5038  0.4093  0.4148
 1741TIP3    H129418   6.816   0.237   8.299 -0.5296  0.5319 -1.0339
 1741TIP3    H229419   6.848   0.090   8.314  0.6648  0.9761  1.2860
 1742TIP3   OH229420   0.158   4.818   2.369 -0.0325  0.3452 -0.0662
 1742TIP3    H129421   0.110   4.747   2.326 -0.0820  0.4403 -0.1703
 1742TIP3    H229422   0.196   4.778   2.447  0.4522  0.0539 -0.4481
 1743TIP3   OH229423   1.494   1.847   1.809  0.1728 -0.4920 -0.3520
 1743TIP3    H129424   1.472   1.755   1.794 -0.4188 -0.2537 -0.9807
 1743TIP3    H229425   1.529   1.849   1.898  0.0266 -1.2965 -0.2687
 1744TIP3   OH229426   3.206   4.335   2.450  0.4225 -0.5077 -0.4016
 1744TIP3    H129427   3.218   4.423   2.413 -0.1348 -0.1427  0.2695
 1744TIP3    H229428   3.291   4.312   2.486 -0.1012  0.9838  2.0095
 1745TIP3   OH229429   5.913   2.780   2.310  0.5141  0.3665 -0.1653
 1745TIP3    H129430   5.959   2.846   2.362 -0.5244  0.3388  0.8460
 1745TIP3    H229431   5.874   2.721   2.376  1.3797 -1.2395 -1.0363
 1746TIP3   OH229432   5.953   7.338   7.233 -0.0117 -0.6034 -0.3319
 1746TIP3    H129433   5.902   7.406   7.187  0.2234 -1.2050 -1.5354
 1746TIP3    H229434   5.899   7.315   7.308  0.0820  1.1947  0.3441
 1747TIP3   OH229435   0.015   2.506   9.003  0.3968  0.3079  0.4733
 1747TIP3    H129436   0.085   2.467   8.950 -1.4070 -1.5963 -0.6216
 1747TIP3    H229437  -0.030   2.431   9.042 -1.4296  1.4572  0.6447
 1748TIP3   OH229438   0.590   5.708   1.781 -0.1416  0.3673  0.0737
 1748TIP3    H129439   0.525   5.675   1.719 -0.1938  1.7625 -0.6525
 1748TIP3    H229440   0.674   5.680   1.745 -0.1967  0.8106 -0.4104
 1749TIP3   OH229441   6.935   6.960   0.306 -0.0094 -0.1637  0.2321
 1749TIP3    H129442   6.892   6.875   0.312 -0.0049 -0.1204  0.9741
 1749TIP3    H229443   7.002   6.958   0.375 -0.0928  0.4842  0.3382
 1750TIP3   OH229444   0.856   0.911   1.333 -0.9743 -0.2739  0.9811
 1750TIP3    H129445   0.802   0.834   1.321 -1.4769  0.4655 -2.3488
 1750TIP3    H229446   0.938   0.891   1.288 -0.6708  0.7064  1.0633
 1751TIP3   OH229447   6.073   1.850   7.456 -0.0142 -0.0946  0.0146
 1751TIP3    H129448   6.155   1.830   7.502 -0.2802 -0.8460  0.1679
 1751TIP3    H229449   6.014   1.778   7.478  0.0795 -0.8809 -2.0700
 1752TIP3   OH229450   6.858   0.099   7.981  0.3196  0.3406  0.4207
 1752TIP3    H129451   6.857   0.178   8.036  1.8220  1.8887 -1.5964
 1752TIP3    H229452   6.946   0.063   7.993  0.5895  0.5792 -0.7451
 1753TIP3   OH229453   2.906   2.944   7.939  0.0995  0.2245 -0.6259
 1753TIP3    H129454   2.927   3.019   7.884  0.8976 -0.2433 -0.9851
 1753TIP3    H229455   2.989   2.922   7.982 -0.0318 -0.6581 -0.8032
 1754TIP3   OH229456   6.115   6.492   1.500 -0.3713 -0.5665 -0.0089
 1754TIP3    H129457   6.166   6.415   1.527 -1.3128 -1.2038  0.0035
 1754TIP3    H229458   6.177   6.544   1.448  0.2922 -1.3176 -0.0010
 1755TIP3   OH229459   7.001   5.315   8.732  0.0327 -0.3503 -0.3740
 1755TIP3    H129460   7.051   5.317   8.814  0.0990 -0.3705 -0.4142
 1755TIP3    H229461   6.968   5.405   8.723  0.1626 -0.3049 -0.4090
 1756TIP3   OH229462   6.984   2.170   0.556  0.2343  0.2729  0.8295
 1756TIP3    H129463   7.052   2.205   0.498  0.2240  0.3221  0.8470
 1756TIP3    H229464   6.916   2.237   0.556  0.3168  0.3562  1.0463
 1757TIP3   OH229465   0.599   2.839   1.468 -0.4388 -0.1138  0.4430
 1757TIP3    H129466   0.626   2.750   1.489 -0.8578 -0.3469 -0.0010
 1757TIP3    H229467   0.657   2.894   1.521 -0.3163 -0.6481  0.8747
 1758TIP3   OH229468   0.037   5.655   0.489  0.3459  0.2139 -0.0812
 1758TIP3    H129469  -0.024   5.588   0.457  1.0779  0.4225 -2.0923
 1758TIP3    H229470   0.121   5.631   0.450  0.9282  1.5090  0.3256
 1759TIP3   OH229471   0.760   0.651   6.631 -0.2845  0.4243  0.4382
 1759TIP3    H129472   0.821   0.720   6.607  0.5441  0.6298  2.8688
 1759TIP3    H229473   0.675   0.696   6.641 -0.1667  0.7244  0.0763
 1760TIP3   OH229474   3.870   5.521   8.894  0.2750 -0.0604  0.1013
 1760TIP3    H129475   3.784   5.501   8.931  0.0060 -1.7506 -1.3159
 1760TIP3    H229476   3.859   5.606   8.852 -0.9611 -0.6094 -0.7511
 1761TIP3   OH229477   3.908   0.522   1.055  0.1208 -0.2653 -0.0836
 1761TIP3    H129478   3.979   0.458   1.057 -0.0991 -0.5960 -1.6518
 1761TIP3    H229479   3.951   0.605   1.036  0.1057 -0.4944 -1.2148
 1762TIP3   OH229480   0.039   6.238   0.073  0.6209 -0.3246  0.2683
 1762TIP3    H129481   0.045   6.154   0.118  0.8004 -1.0224 -1.0065
 1762TIP3    H229482  -0.052   6.244   0.043  1.1573 -1.1741 -1.6506
 1763TIP3   OH229483   0.946   0.870   8.249 -0.3164  0.3256 -0.0794
 1763TIP3    H129484   0.968   0.787   8.292  1.2513  0.5433 -0.4210
 1763TIP3    H229485   0.975   0.938   8.310 -1.4098  0.6555  0.1090
 1764TIP3   OH229486   0.358   3.311   9.117 -0.4061  0.0014  0.7146
 1764TIP3    H129487   0.286   3.372   9.103  0.2136  0.3592 -1.3234
 1764TIP3    H229488   0.428   3.342   9.059 -0.5048 -3.2794 -1.4689
 1765TIP3   OH229489   1.197   7.112   2.339  0.0525 -0.7019 -0.2729
 1765TIP3    H129490   1.158   7.189   2.297 -0.6070  0.0418  1.6001
 1765TIP3    H229491   1.286   7.110   2.304 -0.6377 -0.5453 -2.1903
 1766TIP3   OH229492   4.790   2.011   1.761 -0.0122  0.4568  0.8281
 1766TIP3    H129493   4.773   2.013   1.855  0.9155  2.3957  1.0123
 1766TIP3    H229494   4.745   2.088   1.727  0.3928  0.2715 -0.1654
 1767TIP3   OH229495   4.892   3.368   6.629  0.9670  0.2619 -0.6070
 1767TIP3    H129496   4.799   3.364   6.606  0.9314  0.3749 -0.4860
 1767TIP3    H229497   4.932   3.295   6.582  0.6846 -0.2621 -0.0570
 1768TIP3   OH229498   0.245   0.965   2.700 -0.0267  0.3271 -0.2324
 1768TIP3    H129499   0.319   0.933   2.648  0.5060 -0.2241  0.8206
 1768TIP3    H229500   0.236   0.901   2.771 -2.0851 -0.1055 -0.8057
 1769TIP3   OH229501   2.759   1.446   0.635  0.2511  0.2546  0.1135
 1769TIP3    H129502   2.681   1.408   0.593 -1.4332  2.7802  0.7323
 1769TIP3    H229503   2.832   1.412   0.584 -1.4123 -0.1973 -2.1517
 1770TIP3   OH229504   2.548   0.093   7.786  0.7292  0.0348 -0.5421
 1770TIP3    H129505   2.529   0.186   7.774  2.1814  0.1507 -2.3734
 1770TIP3    H229506   2.634   0.080   7.747  1.2006 -1.8337  0.9291
 1771TIP3   OH229507   5.563   0.595   2.899  0.4563 -0.0322  0.1325
 1771TIP3    H129508   5.657   0.577   2.905  0.1465 -1.6332  0.7455
 1771TIP3    H229509   5.530   0.577   2.987 -0.3630  1.0070  0.0507
 1772TIP3   OH229510   2.472   5.165   0.926 -0.8238 -0.2109 -0.6970
 1772TIP3    H129511   2.413   5.128   0.860  1.7376 -0.7111 -2.9044
 1772TIP3    H229512   2.559   5.135   0.899  0.7467  2.5082  0.9056
 1773TIP3   OH229513   2.314   5.769   0.357 -0.1185 -0.4664  0.5603
 1773TIP3    H129514   2.409   5.764   0.346 -0.2183  0.6772 -1.2022
 1773TIP3    H229515   2.297   5.861   0.378 -0.9634 -0.2175 -1.0706
 1774TIP3   OH229516   6.322   0.587   1.364  0.1847 -0.1489  0.3800
 1774TIP3    H129517   6.257   0.601   1.434 -0.6680 -2.2712  0.0899
 1774TIP3    H229518   6.395   0.543   1.408  0.4084  0.1171  0.2712
 1775TIP3   OH229519   4.221   3.073   2.564  0.4535  0.2850  0.3893
 1775TIP3    H129520   4.279   3.150   2.563  0.9469 -0.0758  0.5661
 1775TIP3    H229521   4.224   3.043   2.655 -0.1303  0.3441  0.4307
 1776TIP3   OH229522   5.207   3.699   2.796  0.4759 -0.3333 -0.2108
 1776TIP3    H129523   5.242   3.624   2.747 -0.3999 -0.7229 -0.2568
 1776TIP3    H229524   5.220   3.774   2.738  2.3678 -0.2357  0.2800
 1777TIP3   OH229525   2.509   2.726   2.799 -0.4763 -0.3690 -0.2268
 1777TIP3    H129526   2.436   2.756   2.745  0.0544 -0.2746 -0.9056
 1777TIP3    H229527   2.571   2.799   2.796 -0.2103 -0.5824  0.0800
 1778TIP3   OH229528   3.828   3.863   2.107  0.1109  0.5658  0.4214
 1778TIP3    H129529   3.897   3.827   2.164  0.5830  0.7471 -0.0327
 1778TIP3    H229530   3.752   3.809   2.126  0.3938  0.3131  0.8768
 1779TIP3   OH229531   0.307   7.040   7.891  0.4250 -0.5993 -0.1523
 1779TIP3    H129532   0.231   7.087   7.855  0.7454  1.2686  1.4235
 1779TIP3    H229533   0.354   7.008   7.813 -1.8634 -1.6948 -1.1611
 1780TIP3   OH229534   2.165   0.777   0.488 -0.4953  0.7799 -0.6407
 1780TIP3    H129535   2.153   0.724   0.409  1.1904 -0.4397 -0.1255
 1780TIP3    H229536   2.162   0.867   0.457  0.5002  0.3215 -2.1714
 1781TIP3   OH229537   6.776   2.459   7.428 -0.4643  0.2606  0.2540
 1781TIP3    H129538   6.777   2.492   7.517 -1.2420  0.6941  0.1144
 1781TIP3    H229539   6.737   2.529   7.376 -0.8709 -0.3323 -0.2711
 1782TIP3   OH229540   1.662   3.804   2.435 -0.1268 -0.3348  0.5359
 1782TIP3    H129541   1.684   3.772   2.522 -0.7248 -0.5031  0.6299
 1782TIP3    H229542   1.637   3.725   2.386 -0.9421 -0.0999  0.5664
 1783TIP3   OH229543   6.649   2.210   6.484  0.0676 -0.8762  0.8950
 1783TIP3    H129544   6.624   2.163   6.564 -1.1975  0.2130  1.1837
 1783TIP3    H229545   6.738   2.240   6.500  0.8203 -2.9091  0.7996
 1784TIP3   OH229546   5.419   5.786   0.882  0.0743  0.4614 -0.6937
 1784TIP3    H129547   5.411   5.879   0.900 -0.3347  0.5597 -1.3356
 1784TIP3    H229548   5.355   5.769   0.813 -0.1927 -0.3861 -0.2608
 1785TIP3   OH229549   4.711   2.710   7.764 -0.2142 -0.2007  0.7810
 1785TIP3    H129550   4.639   2.772   7.755  0.8209  0.7301 -2.3927
 1785TIP3    H229551   4.672   2.625   7.747 -0.8487  0.1191  0.6127
 1786TIP3   OH229552   3.502   5.632   8.599 -0.2846 -0.1816 -0.3877
 1786TIP3    H129553   3.456   5.681   8.667 -0.1995 -1.2694  0.4815
 1786TIP3    H229554   3.461   5.546   8.599  0.2805 -0.4606 -1.1335
 1787TIP3   OH229555   1.819   6.019   0.348  0.0177  0.0415 -0.6146
 1787TIP3    H129556   1.786   5.960   0.416  0.4035 -1.8072 -1.9400
 1787TIP3    H229557   1.897   5.975   0.314  0.2190  1.2435 -1.7914
 1788TIP3   OH229558   2.552   4.772   0.459 -0.4580 -0.7039 -0.0440
 1788TIP3    H129559   2.486   4.755   0.391  0.8160 -1.3356 -1.1654
 1788TIP3    H229560   2.526   4.714   0.531 -1.8675  0.0247  0.0821
 1789TIP3   OH229561   4.068   0.313   0.934  0.1853  0.5199  0.4185
 1789TIP3    H129562   3.990   0.256   0.939 -1.4635  2.4631 -1.2815
 1789TIP3    H229563   4.112   0.286   0.854  0.1021  0.7849  0.2819
 1790TIP3   OH229564   1.322   4.304   2.175 -0.3419 -0.2437 -0.3392
 1790TIP3    H129565   1.290   4.314   2.264  1.0779 -0.8272  0.2649
 1790TIP3    H229566   1.353   4.391   2.150 -0.6373 -0.1056 -0.2160
 1791TIP3   OH229567   6.169   4.389   1.717  0.4055  0.0197 -0.5719
 1791TIP3    H129568   6.127   4.345   1.643 -0.4759 -1.4578  0.7374
 1791TIP3    H229569   6.117   4.362   1.793  2.8087 -0.6858  0.9399
 1792TIP3   OH229570   2.502   4.483   7.764  0.3238  0.0055  0.0862
 1792TIP3    H129571   2.467   4.494   7.676  0.9632  1.0777 -0.0527
 1792TIP3    H229572   2.582   4.535   7.764 -1.5533  3.2417  2.4074
 1793TIP3   OH229573   2.910   5.891   1.319  0.3221 -0.3090  0.1383
 1793TIP3    H129574   2.828   5.849   1.345 -0.0482 -0.4951 -1.2352
 1793TIP3    H229575   2.886   5.983   1.304  0.0128 -0.6251 -1.5793
 1794TIP3   OH229576   6.219   5.678   1.659  0.0259  0.1069  0.5827
 1794TIP3    H129577   6.213   5.708   1.569 -0.5960  0.8905  0.8745
 1794TIP3    H229578   6.244   5.586   1.652  0.3261  0.2549 -0.3710
 1795TIP3   OH229579   5.210   0.896   0.519 -0.3617 -0.0711  1.1935
 1795TIP3    H129580   5.294   0.859   0.547  1.3119 -0.0947 -3.0305
 1795TIP3    H229581   5.225   0.991   0.521 -0.7545 -0.0250  1.8289
 1796TIP3   OH229582   3.982   6.680   8.789  0.2179  0.6427  1.1245
 1796TIP3    H129583   3.978   6.665   8.884  0.1273 -0.8804  0.9128
 1796TIP3    H229584   4.055   6.626   8.760 -0.3834  0.3176  0.1986
 1797TIP3   OH229585   1.668   6.097   9.476 -0.1682 -0.2933 -0.4094
 1797TIP3    H129586   1.633   6.092   9.387 -1.8427 -0.4986  0.2322
 1797TIP3    H229587   1.669   6.006   9.506  2.4846 -0.5259 -0.9375
 1798TIP3   OH229588   3.660   5.791   1.917  0.1750 -0.3796 -1.2290
 1798TIP3    H129589   3.696   5.767   2.002 -0.0938  1.5884 -0.5154
 1798TIP3    H229590   3.566   5.771   1.923  0.0496  0.2891 -0.8284
 1799TIP3   OH229591   3.208   3.227   1.946  0.4996 -0.2854 -0.0003
 1799TIP3    H129592   3.122   3.210   1.985  0.4877  0.4614  0.3042
 1799TIP3    H229593   3.263   3.252   2.020  0.7597  0.0909 -0.3197
 1800TIP3   OH229594   5.983   4.660   7.785  0.4076  0.4959  0.0355
 1800TIP3    H129595   6.043   4.613   7.844  0.4458  1.4566  0.7939
 1800TIP3    H229596   5.908   4.682   7.840 -0.1192  0.3168 -0.6088
 1801TIP3   OH229597   3.677   7.032   0.855 -0.0104 -0.1441  0.3636
 1801TIP3    H129598   3.665   6.953   0.908  1.2841  0.8517  2.2614
 1801TIP3    H229599   3.685   6.999   0.766  0.0679 -2.1279  1.0454
 1802TIP3   OH229600   2.270   4.665   0.849 -0.0614 -0.2174 -0.0347
 1802TIP3    H129601   2.187   4.644   0.806 -0.0518 -0.2781 -0.0233
 1802TIP3    H229602   2.245   4.717   0.925 -0.0833 -0.1700 -0.0744
 1803TIP3   OH229603   2.789   2.781   1.293 -0.2621 -0.2616 -0.2655
 1803TIP3    H129604   2.844   2.740   1.227 -2.3768 -0.7295 -1.8645
 1803TIP3    H229605   2.729   2.712   1.321 -2.0688  0.9437 -0.9542
 1804TIP3   OH229606   7.421   0.659   2.903  0.0877  0.3497  0.6993
 1804TIP3    H129607   7.402   0.660   2.809 -0.6781  0.1673  0.8396
 1804TIP3    H229608   7.516   0.663   2.909  0.2566 -1.3823 -0.1331
 1805TIP3   OH229609   5.053   2.567   2.055 -0.2206  0.0085 -0.2586
 1805TIP3    H129610   5.059   2.518   2.137 -0.0882  1.0299  0.3494
 1805TIP3    H229611   4.966   2.546   2.021 -0.6432  0.3353  0.6220
 1806TIP3   OH229612   0.265   6.455   9.547  0.1367  0.5894  0.0126
 1806TIP3    H129613   0.245   6.485   9.458  1.0976  0.2324 -0.3285
 1806TIP3    H229614   0.348   6.409   9.539  0.7939  1.4924  1.2881
 1807TIP3   OH229615   2.825   6.890   8.892  1.2601 -0.3398  0.1942
 1807TIP3    H129616   2.855   6.978   8.915  1.2681 -0.3509  0.2258
 1807TIP3    H229617   2.768   6.904   8.817  0.9952 -0.2745  0.4089
 1808TIP3   OH229618   7.014   7.356   1.101 -0.3175 -0.0800  0.7439
 1808TIP3    H129619   7.036   7.282   1.044 -0.1480 -0.0641  0.7868
 1808TIP3    H229620   7.001   7.317   1.187 -0.7747 -0.1300  0.6535
 1809TIP3   OH229621   1.069   0.808   1.835 -0.4952 -0.0944 -0.2236
 1809TIP3    H129622   1.013   0.749   1.886 -1.5375  0.5882 -0.5285
 1809TIP3    H229623   1.119   0.856   1.901 -0.3861 -0.6084  0.0693
 1810TIP3   OH229624   3.654   4.702   8.385 -0.9752 -0.0352 -0.3688
 1810TIP3    H129625   3.587   4.725   8.449  0.1833  0.5374  0.7120
 1810TIP3    H229626   3.712   4.642   8.432  1.4177  2.4748  0.1368
 1811TIP3   OH229627   0.852   3.071   0.625  0.5188  0.4069 -0.1086
 1811TIP3    H129628   0.805   3.154   0.639 -1.6237 -0.8408  0.6276
 1811TIP3    H229629   0.871   3.069   0.532 -2.4700  0.2837 -0.8258
 1812TIP3   OH229630   0.513   1.147   8.156 -0.5298  0.2926  0.0134
 1812TIP3    H129631   0.501   1.226   8.209 -2.7941 -0.0703  0.1712
 1812TIP3    H229632   0.605   1.124   8.166  0.1709  2.8053  0.0980
 1813TIP3   OH229633   2.594   7.247   8.248  0.2233 -0.5763 -0.2197
 1813TIP3    H129634   2.606   7.318   8.185 -1.1888 -1.1213 -1.1424
 1813TIP3    H229635   2.560   7.290   8.326  0.0803 -0.1517 -0.5135
 1814TIP3   OH229636   7.418   2.808   1.313 -0.5464  0.1146  0.2170
 1814TIP3    H129637   7.505   2.767   1.314 -0.3481  0.4923 -0.5114
 1814TIP3    H229638   7.398   2.824   1.405  1.6113  3.0263  0.3208
 1815TIP3   OH229639   0.101   3.595   6.675 -0.3359 -0.0665  0.3086
 1815TIP3    H129640   0.116   3.672   6.621 -0.6100  1.0492  1.7696
 1815TIP3    H229641   0.014   3.608   6.713 -1.2312 -2.0276 -0.8722
 1816TIP3   OH229642   3.076   2.517   7.921  0.1065  0.0323  0.1886
 1816TIP3    H129643   3.056   2.425   7.942  2.1465 -0.5998 -0.4334
 1816TIP3    H229644   3.068   2.563   8.004 -3.4564 -0.1400  0.0886
 1817TIP3   OH229645   5.856   3.395   0.657 -0.4019  0.1354 -1.1700
 1817TIP3    H129646   5.894   3.479   0.681  0.8537 -0.5814 -0.5288
 1817TIP3    H229647   5.932   3.337   0.646 -1.2816 -1.6094  1.1286
 1818TIP3   OH229648   1.494   2.980   8.436 -0.0045  0.2113 -0.2515
 1818TIP3    H129649   1.512   2.935   8.519 -2.2178 -0.7623 -0.2210
 1818TIP3    H229650   1.566   3.043   8.427  1.3118 -0.9325  1.4545
 1819TIP3   OH229651   1.554   3.104   0.211  0.2724 -0.2575  0.1115
 1819TIP3    H129652   1.493   3.173   0.237  2.0351  1.6592 -0.5604
 1819TIP3    H229653   1.498   3.029   0.191 -2.1572  1.9648 -2.3918
 1820TIP3   OH229654   6.965   1.277   1.298 -0.1016 -0.5692  0.2330
 1820TIP3    H129655   6.955   1.252   1.206 -1.0037 -1.6547  0.6055
 1820TIP3    H229656   7.007   1.363   1.295  3.3820 -2.1047 -1.1173
 1821TIP3   OH229657   1.028   1.088   7.537  0.3005 -0.3338  0.2506
 1821TIP3    H129658   1.116   1.103   7.504  0.4521 -1.6284  0.0162
 1821TIP3    H229659   0.975   1.074   7.458  0.0175 -0.2431  0.4230
 1822TIP3   OH229660   6.844   6.914   8.219 -0.3447  0.0526 -0.7759
 1822TIP3    H129661   6.826   6.976   8.148 -0.1203  0.1912 -0.7142
 1822TIP3    H229662   6.761   6.869   8.234 -0.3140 -0.2270 -1.3699
 1823TIP3   OH229663   2.733   2.180   8.773 -0.3215 -0.0439  0.0101
 1823TIP3    H129664   2.754   2.126   8.850  1.6276 -0.4984 -0.7944
 1823TIP3    H229665   2.816   2.189   8.727 -1.3400  0.7180 -1.7516
 1824TIP3   OH229666   0.793   6.189   7.946  0.1645 -0.2146 -0.2214
 1824TIP3    H129667   0.732   6.260   7.968 -0.4267 -0.4028 -1.1879
 1824TIP3    H229668   0.741   6.109   7.953 -0.2766 -0.2562 -2.7749
 1825TIP3   OH229669   6.857   5.633   7.903 -0.7050 -0.5313  0.5936
 1825TIP3    H129670   6.832   5.698   7.969  2.9691  3.1606 -1.1718
 1825TIP3    H229671   6.944   5.605   7.929  0.4796  0.3742 -2.0462
 1826TIP3   OH229672   4.194   5.214   7.644 -0.0990  0.3842  0.1405
 1826TIP3    H129673   4.181   5.247   7.555 -1.1093  1.3661  0.6353
 1826TIP3    H229674   4.106   5.190   7.674  0.0003  1.5031  1.4068
 1827TIP3   OH229675   6.609   3.124   0.414  0.1223  0.0495 -0.2755
 1827TIP3    H129676   6.532   3.099   0.465  0.5131  0.1609  0.3791
 1827TIP3    H229677   6.573   3.172   0.340 -0.5282 -1.0297 -0.6855
 1828TIP3   OH229678   1.398   5.644   8.100 -0.6649 -0.1714  0.7282
 1828TIP3    H129679   1.403   5.667   8.008 -0.3459  0.6972  0.9510
 1828TIP3    H229680   1.304   5.640   8.119 -0.7708  2.3265  0.9823
 1829TIP3   OH229681   5.341   2.937   9.020  0.0085  0.7443 -0.3966
 1829TIP3    H129682   5.302   3.023   9.006  0.1230  0.7501 -0.6914
 1829TIP3    H229683   5.377   2.940   9.109  0.8642  1.3330 -0.7484
 1830TIP3   OH229684   0.441   7.133   8.118 -0.1172  0.2859  0.3358
 1830TIP3    H129685   0.385   7.112   8.043  1.0343 -0.3522 -0.3719
 1830TIP3    H229686   0.381   7.170   8.183 -1.1313  0.8963 -0.9068
 1831TIP3   OH229687   0.100   6.812   7.011 -0.0178 -0.5660  0.2014
 1831TIP3    H129688   0.067   6.722   6.999 -0.2109 -0.2554 -1.9828
 1831TIP3    H229689   0.123   6.840   6.923  0.6338  1.3291  0.9468
 1832TIP3   OH229690   4.149   4.690   8.419 -0.9832  0.3214  0.2807
 1832TIP3    H129691   4.129   4.782   8.403 -0.1521  0.5712  0.6295
 1832TIP3    H229692   4.123   4.645   8.338 -0.0906  1.0606 -0.4429
 1833TIP3   OH229693   2.212   2.533   8.215  0.3258  0.3858 -0.4984
 1833TIP3    H129694   2.158   2.454   8.219  1.9486 -0.9399 -2.4906
 1833TIP3    H229695   2.159   2.600   8.257 -1.7067 -1.4261  0.0494
 1834TIP3   OH229696   1.204   6.081   0.671  0.2641  0.0459 -0.2438
 1834TIP3    H129697   1.114   6.105   0.650  0.1514 -0.3883 -0.2621
 1834TIP3    H229698   1.198   5.991   0.704  0.5445  0.3869  0.7868
 1835TIP3   OH229699   4.846   3.392   1.985  0.2124 -0.3475 -1.3125
 1835TIP3    H129700   4.842   3.452   2.059  0.6401 -1.6518 -0.1763
 1835TIP3    H229701   4.829   3.446   1.908 -1.2860  0.8859 -0.1780
 1836TIP3   OH229702   2.033   1.318   1.314 -0.0012 -0.2498 -0.2590
 1836TIP3    H129703   1.998   1.268   1.241  0.2118 -1.0074  0.1413
 1836TIP3    H229704   2.074   1.252   1.370 -1.4825  0.0799  1.3170
 1837TIP3   OH229705   6.177   7.363   1.044  0.0724  0.1164  0.1289
 1837TIP3    H129706   6.135   7.414   0.975 -1.2387 -1.8370 -0.6078
 1837TIP3    H229707   6.178   7.422   1.120 -4.3580  0.2991  0.3048
 1838TIP3   OH229708   5.077   1.718   6.968  0.8145  0.4228  0.5310
 1838TIP3    H129709   5.075   1.729   6.872 -0.3581  0.9541  0.6085
 1838TIP3    H229710   4.998   1.668   6.989 -0.7056  3.0595  1.5175
 1839TIP3   OH229711   3.887   1.415   1.569 -0.1691 -0.6064 -0.2380
 1839TIP3    H129712   3.935   1.423   1.486 -0.2273 -2.6498 -0.5232
 1839TIP3    H229713   3.802   1.377   1.544 -1.7478  2.2508  0.3463
 1840TIP3   OH229714   4.586   4.973   0.513 -0.5617 -0.0192  0.2499
 1840TIP3    H129715   4.497   4.939   0.514 -1.0249  1.0146  2.7783
 1840TIP3    H229716   4.592   5.027   0.593  1.7121  1.5371 -0.8518
 1841TIP3   OH229717   5.326   6.589   1.724  0.0058  0.4914  0.5373
 1841TIP3    H129718   5.250   6.542   1.759 -0.0226 -0.9901 -1.3337
 1841TIP3    H229719   5.368   6.628   1.801 -0.1157 -2.4147  2.2254
 1842TIP3   OH229720   5.526   1.340   9.309  0.0821  0.1801 -0.6080
 1842TIP3    H129721   5.598   1.397   9.336  2.0984 -2.0236 -1.0572
 1842TIP3    H229722   5.520   1.353   9.214  0.8800 -0.6726 -0.7874
 1843TIP3   OH229723   3.186   1.936   7.622 -0.0625  0.4789 -0.0213
 1843TIP3    H129724   3.128   1.968   7.691 -0.7339 -1.3345  0.3336
 1843TIP3    H229725   3.174   1.997   7.549 -3.4260 -0.4764 -0.4329
 1844TIP3   OH229726   5.359   3.054   2.825 -0.4532  0.4474  0.6647
 1844TIP3    H129727   5.396   3.016   2.905  0.8687  0.5610  0.1297
 1844TIP3    H229728   5.364   3.148   2.839  0.7711  0.4857  0.0245
 1845TIP3   OH229729   2.244   7.012   8.398 -0.3395 -0.5494  0.0269
 1845TIP3    H129730   2.172   7.074   8.385 -0.8637 -1.2048 -0.2839
 1845TIP3    H229731   2.312   7.041   8.337 -0.0006  0.5629  0.9115
 1846TIP3   OH229732   6.141   6.540   9.303 -0.0982 -0.1457  0.4191
 1846TIP3    H129733   6.161   6.447   9.318 -0.8540 -0.0783  2.0794
 1846TIP3    H229734   6.167   6.583   9.385 -1.0984  0.8808  0.2195
 1847TIP3   OH229735   5.942   7.139   1.930  0.3750  0.0735  0.2949
 1847TIP3    H129736   5.885   7.197   1.981  0.1757  0.1207  0.0255
 1847TIP3    H229737   6.015   7.119   1.988  1.2781  1.8843 -0.1391
 1848TIP3   OH229738   3.637   4.033   7.571 -0.0374  0.5302  0.5790
 1848TIP3    H129739   3.692   4.078   7.507  1.9682  0.4290  2.1476
 1848TIP3    H229740   3.637   4.091   7.647 -1.1060 -0.0650  1.0427
 1849TIP3   OH229741   5.871   4.203   9.092 -0.1260 -0.2101 -0.1999
 1849TIP3    H129742   5.938   4.272   9.088  0.1890 -0.5175 -3.9993
 1849TIP3    H229743   5.918   4.126   9.124  0.9826 -0.0018 -1.2457
 1850TIP3   OH229744   0.101   6.304   2.842  0.1483  0.1730  0.5205
 1850TIP3    H129745   0.029   6.343   2.891 -1.5900 -1.3676 -0.6898
 1850TIP3    H229746   0.116   6.219   2.883  0.9336  0.2418  0.4077
 1851TIP3   OH229747   0.617   0.797   0.093 -0.1658  0.1645 -0.0697
 1851TIP3    H129748   0.536   0.756   0.062  0.6281 -0.2431 -1.7009
 1851TIP3    H229749   0.606   0.804   0.188 -0.9782 -2.3621  0.0746
 1852TIP3   OH229750   6.330   1.962   7.886  0.6098  0.1945 -0.1765
 1852TIP3    H129751   6.317   1.871   7.915 -0.4690  0.4618  0.2405
 1852TIP3    H229752   6.242   1.992   7.863  0.6533  1.6937  1.3896
 1853TIP3   OH229753   2.048   0.060   8.831 -0.5244  0.3128 -0.0666
 1853TIP3    H129754   2.065   0.153   8.818  2.2451 -0.3556 -2.1059
 1853TIP3    H229755   2.000   0.033   8.752 -0.1663 -0.2346 -0.0990
 1854TIP3   OH229756   4.008   1.507   0.445  0.0395 -0.1397 -0.1055
 1854TIP3    H129757   4.025   1.418   0.413 -0.5355 -0.3050  0.0481
 1854TIP3    H229758   4.094   1.550   0.441  0.5853 -1.0795  0.9731
 1855TIP3   OH229759   5.049   4.343   2.154  0.7484  0.2473  0.2412
 1855TIP3    H129760   5.095   4.287   2.091 -0.2077  0.8617 -1.0437
 1855TIP3    H229761   5.058   4.297   2.237  1.1431 -1.1449 -0.5342
 1856TIP3   OH229762   7.159   0.200   8.191 -0.1309 -0.2398  0.0012
 1856TIP3    H129763   7.206   0.175   8.271  0.0260  1.1972  0.3850
 1856TIP3    H229764   7.067   0.190   8.214 -0.0675 -0.8593  0.0014
 1857TIP3   OH229765   5.080   7.056   7.634 -0.0576  0.6033 -0.4326
 1857TIP3    H129766   4.996   7.015   7.613  1.8404 -2.8729 -2.0089
 1857TIP3    H229767   5.088   7.127   7.570 -1.0842 -0.1161 -1.3968
 1858TIP3   OH229768   2.402   1.818   1.501  0.1495  0.3843 -0.0608
 1858TIP3    H129769   2.371   1.881   1.566  1.2180 -0.2710  1.1484
 1858TIP3    H229770   2.339   1.824   1.430 -0.2047  2.2474  0.3464
 1859TIP3   OH229771   3.140   1.645   9.031 -0.1255  0.3807 -0.5098
 1859TIP3    H129772   3.058   1.608   9.062 -0.4986  0.9884 -0.7396
 1859TIP3    H229773   3.199   1.640   9.106 -0.1378 -0.7402 -0.5695
 1860TIP3   OH229774   0.230   5.121   0.496 -0.1796  0.0432 -0.3816
 1860TIP3    H129775   0.177   5.180   0.441 -1.5444 -0.3570  0.4631
 1860TIP3    H229776   0.314   5.165   0.503 -0.4435  0.8067 -1.5996
 1861TIP3   OH229777   2.618   0.109   2.176 -0.1747  0.1828  0.5373
 1861TIP3    H129778   2.606   0.187   2.122 -0.3168  1.1455  1.9073
 1861TIP3    H229779   2.616   0.141   2.266  0.9526 -1.2358  1.1213
 1862TIP3   OH229780   6.473   6.062   7.605  0.7515  0.1665 -0.1699
 1862TIP3    H129781   6.420   6.044   7.528  2.8558  0.5183 -1.7843
 1862TIP3    H229782   6.550   6.007   7.595  0.7776 -0.3344  2.1017
 1863TIP3   OH229783   0.988   2.824   2.040  0.2008 -0.6882 -0.3358
 1863TIP3    H129784   0.954   2.760   2.102 -2.4118  0.4122 -0.4831
 1863TIP3    H229785   1.019   2.896   2.095 -0.3998 -0.4978 -0.2359
 1864TIP3   OH229786   4.089   3.580   8.479 -0.0783  0.1107  0.2957
 1864TIP3    H129787   4.139   3.661   8.481  0.2600 -0.0983  0.8523
 1864TIP3    H229788   3.998   3.607   8.480  0.0234  0.4822  1.8289
 1865TIP3   OH229789   2.976   2.240   8.617  0.4012  0.2402 -0.0419
 1865TIP3    H129790   2.964   2.266   8.526  0.6527  0.9571  0.1288
 1865TIP3    H229791   3.069   2.255   8.635  0.2968  0.3662  0.4115
 1866TIP3   OH229792   4.361   5.026   8.160  0.1144 -0.4069 -0.2566
 1866TIP3    H129793   4.352   5.122   8.156  0.2798 -0.3807 -0.0167
 1866TIP3    H229794   4.417   5.004   8.086  2.2984 -0.0374  1.1955
 1867TIP3   OH229795   3.004   0.597   9.343  0.0879 -0.3401 -0.9283
 1867TIP3    H129796   3.066   0.557   9.282  0.5642  0.0790 -0.7212
 1867TIP3    H229797   3.027   0.560   9.429 -0.1849 -0.4570 -0.9028
 1868TIP3   OH229798   4.996   5.510   0.689 -0.1000 -0.9176  0.1003
 1868TIP3    H129799   4.901   5.516   0.695 -0.3773 -0.4880 -2.9020
 1868TIP3    H229800   5.028   5.585   0.738 -1.5989  1.4975 -2.3172
 1869TIP3   OH229801   0.414   4.332   8.362 -0.2898 -0.0678 -0.4795
 1869TIP3    H129802   0.338   4.372   8.319 -0.4027  2.0083  1.4869
 1869TIP3    H229803   0.489   4.382   8.330 -0.3836  1.5572  1.6424
 1870TIP3   OH229804   5.008   2.820   8.910 -0.0263  0.3947  0.1871
 1870TIP3    H129805   5.074   2.811   8.978 -0.0846  1.4793  0.4073
 1870TIP3    H229806   4.939   2.759   8.935  0.1835  0.4074  0.8122
 1871TIP3   OH229807   2.242   2.701   7.993  0.8911  0.5928  0.0479
 1871TIP3    H129808   2.203   2.642   8.057 -0.1275  1.1245 -0.0769
 1871TIP3    H229809   2.275   2.642   7.924  1.0237  0.0944  0.5280
 1872TIP3   OH229810   2.840   0.398   0.916 -0.2163  0.1020 -0.3870
 1872TIP3    H129811   2.866   0.457   0.986 -0.0285  1.6520 -1.7099
 1872TIP3    H229812   2.805   0.321   0.961 -1.4677  1.6380  1.4180
 1873TIP3   OH229813   2.286   4.198   0.305  0.1655 -0.5462  0.0417
 1873TIP3    H129814   2.270   4.289   0.329 -2.3429 -1.1546  1.0266
 1873TIP3    H229815   2.341   4.164   0.376 -0.5377 -0.2681  0.7375
 1874TIP3   OH229816   3.506   2.560   9.519 -0.1614  0.0498 -0.6098
 1874TIP3    H129817   3.562   2.638   9.513 -0.0842 -0.1121 -2.7223
 1874TIP3    H229818   3.440   2.573   9.451 -2.0028 -0.3293  1.0423
 1875TIP3   OH229819   6.895   5.863   2.598  0.0712 -0.3160 -0.5277
 1875TIP3    H129820   6.806   5.892   2.618  0.3007 -0.2923  0.4856
 1875TIP3    H229821   6.931   5.932   2.542  1.3376  2.6421  3.4394
 1876TIP3   OH229822   1.931   4.898   8.127  0.4451  0.1319  0.3957
 1876TIP3    H129823   1.993   4.967   8.103 -0.1774  0.7171  0.4250
 1876TIP3    H229824   1.982   4.838   8.183  1.1629  0.2210 -0.1486
 1877TIP3   OH229825   4.527   7.076   7.197 -0.6295 -0.0775  0.2563
 1877TIP3    H129826   4.440   7.066   7.158 -1.2670 -0.8517  1.8025
 1877TIP3    H229827   4.574   6.998   7.168 -0.4470  0.3228 -0.5502
 1878TIP3   OH229828   0.557   1.739   7.057 -0.4685  0.2119  0.3985
 1878TIP3    H129829   0.587   1.805   6.995  0.2403  1.3158  1.8271
 1878TIP3    H229830   0.524   1.790   7.131  1.2148 -0.9741  2.0661
 1879TIP3   OH229831   2.601   0.096   9.527  0.0810  0.2707 -0.6115
 1879TIP3    H129832   2.593   0.008   9.562  0.3504  0.3891 -0.2408
 1879TIP3    H229833   2.665   0.089   9.457  0.1453  0.1830 -0.5431
 1880TIP3   OH229834   2.331   0.990   7.050  0.0104  0.2166  0.1510
 1880TIP3    H129835   2.267   0.921   7.066 -0.2754  0.7148  1.3490
 1880TIP3    H229836   2.279   1.063   7.015  0.0521  0.3456  0.3546
 1881TIP3   OH229837   2.484   4.647   0.678  0.0152 -0.0374  0.2760
 1881TIP3    H129838   2.397   4.641   0.716 -0.8878 -0.6699 -1.7465
 1881TIP3    H229839   2.536   4.692   0.744 -1.5618 -0.5909  1.9776
 1882TIP3   OH229840   3.720   3.369   8.553 -0.0233  0.3290 -0.3277
 1882TIP3    H129841   3.762   3.399   8.472 -1.4875  0.5466 -1.0432
 1882TIP3    H229842   3.631   3.405   8.549 -0.3662 -0.2942  1.0211
 1883TIP3   OH229843   0.987   1.733   2.337 -0.0520 -0.4816 -0.1775
 1883TIP3    H129844   1.074   1.724   2.376  1.3214  0.0494 -2.8804
 1883TIP3    H229845   0.978   1.826   2.318 -2.4516 -0.0368  2.4697
 1884TIP3   OH229846   2.287   5.844   0.056  0.2500  0.2035  0.5003
 1884TIP3    H129847   2.364   5.794   0.084  1.1339 -1.0943 -3.6308
 1884TIP3    H229848   2.310   5.935   0.077  1.9598 -0.3575  1.3151
 1885TIP3   OH229849   7.348   2.715   9.523 -0.2154  0.6973  0.2984
 1885TIP3    H129850   7.416   2.775   9.491  1.2450 -1.0694 -0.0864
 1885TIP3    H229851   7.306   2.683   9.443  0.3041 -0.1894  0.3593
 1886TIP3   OH229852   5.447   1.548   1.315 -0.0036  0.1503 -0.2014
 1886TIP3    H129853   5.538   1.519   1.323  0.0657  0.7925  2.4190
 1886TIP3    H229854   5.400   1.472   1.283  1.5346  0.0728 -2.5210
 1887TIP3   OH229855   5.699   2.359   0.627  0.4893  0.5379 -0.0674
 1887TIP3    H129856   5.695   2.366   0.722  1.3412  2.7041 -0.1308
 1887TIP3    H229857   5.679   2.448   0.596 -0.6560 -0.3173 -1.9560
 1888TIP3   OH229858   2.206   0.980   0.243  0.3135  0.0727 -0.2790
 1888TIP3    H129859   2.214   1.034   0.165 -3.0987  0.6011 -0.4248
 1888TIP3    H229860   2.210   1.042   0.316  3.6356 -0.4335  0.1068
 1889TIP3   OH229861   6.275   1.636   0.374  0.7294 -0.1604  0.5242
 1889TIP3    H129862   6.272   1.553   0.328  0.1882 -0.5220  1.1901
 1889TIP3    H229863   6.305   1.699   0.309  0.8309 -0.8174 -0.0708
 1890TIP3   OH229864   3.270   2.130   7.436  0.0539  0.7719  0.2119
 1890TIP3    H129865   3.362   2.146   7.417 -0.2361 -0.3171 -2.4722
 1890TIP3    H229866   3.224   2.206   7.401 -0.2375  0.2885 -0.4636
 1891TIP3   OH229867   2.700   0.691   7.275  0.2462 -0.4563 -0.0818
 1891TIP3    H129868   2.707   0.614   7.219  0.2911 -0.8177  0.4040
 1891TIP3    H229869   2.671   0.761   7.218 -0.7435 -1.0661 -0.3429
 1892TIP3   OH229870   5.222   1.461   0.447 -0.2475  0.8496  0.0206
 1892TIP3    H129871   5.131   1.480   0.427 -0.0512  1.6889 -0.1350
 1892TIP3    H229872   5.247   1.529   0.510 -0.1170 -0.1961  1.1312
 1893TIP3   OH229873   2.965   6.648   0.327 -0.4878  0.2302  0.4180
 1893TIP3    H129874   3.034   6.635   0.261 -0.3645  0.3421  0.5251
 1893TIP3    H229875   2.893   6.592   0.297 -0.7120  0.8360 -0.2240
 1894TIP3   OH229876   6.574   0.073   7.546 -0.0484 -0.0525 -0.1634
 1894TIP3    H129877   6.556   0.009   7.615  0.0711 -2.3403 -2.1107
 1894TIP3    H229878   6.491   0.083   7.501  0.2157  0.2499 -0.5844
 1895TIP3   OH229879   5.668   1.404   1.618 -0.0578  0.0374  0.1683
 1895TIP3    H129880   5.753   1.382   1.656 -0.4506  0.4400  1.3301
 1895TIP3    H229881   5.656   1.497   1.638 -0.4545  0.1618 -0.6218
 1896TIP3   OH229882   1.569   2.707   9.537 -0.3925  0.3981 -0.6826
 1896TIP3    H129883   1.504   2.644   9.566 -0.2370  0.0879 -1.0089
 1896TIP3    H229884   1.518   2.782   9.506 -0.5586  1.0738  1.1054
 1897TIP3   OH229885   4.431   1.659   1.618  0.1470  0.2118  0.0952
 1897TIP3    H129886   4.386   1.731   1.573 -0.4958 -0.9613 -1.2076
 1897TIP3    H229887   4.506   1.639   1.562 -0.8832 -1.5290 -0.7491
 1898TIP3   OH229888   5.826   2.720   8.264 -0.1696  0.0389 -0.0206
 1898TIP3    H129889   5.814   2.626   8.254  0.1419 -0.1595  1.2165
 1898TIP3    H229890   5.874   2.747   8.185  1.9541 -1.3058  0.7086
 1899TIP3   OH229891   2.977   5.302   7.993 -0.1002 -0.1902 -0.1513
 1899TIP3    H129892   3.042   5.240   7.960  0.3209  0.2963 -0.2511
 1899TIP3    H229893   2.899   5.284   7.941 -0.3117 -1.3271  0.5213
 1900TIP3   OH229894   1.962   1.501   0.471  0.4893 -0.3031  0.0287
 1900TIP3    H129895   1.900   1.571   0.491 -1.4622 -2.1990  1.0469
 1900TIP3    H229896   1.945   1.478   0.380 -0.6982 -1.1244  0.4351
 1901TIP3   OH229897   4.390   5.126   9.407  0.5930  0.0561  0.3289
 1901TIP3    H129898   4.338   5.171   9.474  0.9161 -0.5562  1.0008
 1901TIP3    H229899   4.340   5.139   9.327 -1.7161 -2.1757  1.2627
 1902TIP3   OH229900   7.118   0.843   7.455  0.1229 -0.0819  0.0308
 1902TIP3    H129901   7.049   0.879   7.511 -1.2373 -0.7303 -1.1779
 1902TIP3    H229902   7.158   0.774   7.508 -1.7109 -1.2767 -0.0436
 1903TIP3   OH229903   1.362   0.080   2.790 -0.1993 -0.6868 -0.0653
 1903TIP3    H129904   1.375   0.096   2.883 -1.2523  0.8524 -0.1532
 1903TIP3    H229905   1.270   0.058   2.782 -0.3956  0.3594 -0.8673
 1904TIP3   OH229906   7.085   6.256   8.794 -0.6912  0.0933  0.0508
 1904TIP3    H129907   7.028   6.183   8.770 -0.0440 -1.0765  1.9330
 1904TIP3    H229908   7.091   6.252   8.889  2.0253  0.5865 -0.0366
 1905TIP3   OH229909   6.979   1.137   9.504  0.0233  0.0009  0.0984
 1905TIP3    H129910   6.955   1.155   9.414 -1.1734 -0.2360  0.3514
 1905TIP3    H229911   6.898   1.147   9.553  0.4124 -0.9480  0.9896
 1906TIP3   OH229912   2.229   3.942   0.188 -0.2285  0.0151  0.1891
 1906TIP3    H129913   2.209   4.030   0.222  1.9073  0.5237  0.2790
 1906TIP3    H229914   2.324   3.937   0.190 -0.2949 -2.4587  0.5042
 1907TIP3   OH229915   1.081   3.719   2.386  0.5565 -0.0355 -0.3259
 1907TIP3    H129916   1.169   3.741   2.354  0.1859 -1.7454 -2.8748
 1907TIP3    H229917   1.064   3.633   2.349 -1.6241 -0.4299  1.4173
 1908TIP3   OH229918   0.525   0.575   1.410 -0.7048 -0.1724  0.1000
 1908TIP3    H129919   0.489   0.534   1.332 -0.3338  1.1268 -0.7951
 1908TIP3    H229920   0.526   0.669   1.390 -0.5735  0.1909  1.6570
 1909TIP3   OH229921   3.980   4.279   6.556 -0.1695  0.3106 -0.1415
 1909TIP3    H129922   4.030   4.221   6.499  0.1316  2.2308 -1.9575
 1909TIP3    H229923   3.888   4.263   6.533 -0.1244  0.1740 -0.2250
 1910TIP3   OH229924   2.637   0.848   2.197  0.1309  0.0553 -0.2185
 1910TIP3    H129925   2.550   0.810   2.193 -0.2668  0.8812  0.4280
 1910TIP3    H229926   2.644   0.885   2.285  1.1606 -0.0528 -0.2322
 1911TIP3   OH229927   2.810   0.952   8.549 -0.3259  0.0609  0.1276
 1911TIP3    H129928   2.837   1.004   8.474 -0.3018  0.4028  0.3721
 1911TIP3    H229929   2.783   0.868   8.512  2.1576 -0.7364 -0.0278
 1912TIP3   OH229930   3.208   2.387   7.670 -0.4199  0.3961 -0.4245
 1912TIP3    H129931   3.177   2.476   7.690 -0.7735 -0.2512  2.3163
 1912TIP3    H229932   3.130   2.340   7.641 -0.7377  0.3880  0.4241
 1913TIP3   OH229933   4.480   5.765   9.122  0.0285  0.0503 -0.1692
 1913TIP3    H129934   4.480   5.810   9.206  0.9857 -0.5413  0.1589
 1913TIP3    H229935   4.402   5.709   9.125  0.1253 -0.0562  0.3590
 1914TIP3   OH229936   2.974   2.049   7.790 -0.1628 -0.5220  0.3156
 1914TIP3    H129937   2.960   2.131   7.837 -2.2460 -0.8884  0.4132
 1914TIP3    H229938   2.982   1.983   7.859 -0.3677 -0.6575  0.2108
 1915TIP3   OH229939   3.027   2.413   1.382  0.1611  0.3172 -0.2756
 1915TIP3    H129940   2.992   2.330   1.351 -0.7613  0.0644  1.3138
 1915TIP3    H229941   2.955   2.453   1.431  1.3772  0.8265  1.1860
 1916TIP3   OH229942   4.978   0.125   0.691  0.3379 -0.1243  0.8628
 1916TIP3    H129943   4.935   0.058   0.637 -0.2790 -0.4393  1.7290
 1916TIP3    H229944   4.982   0.202   0.634 -0.3105 -0.4417  0.3675
 1917TIP3   OH229945   6.775   3.698   9.381 -0.3326  0.0745 -0.5515
 1917TIP3    H129946   6.818   3.777   9.414  0.4757  0.1464 -1.7145
 1917TIP3    H229947   6.761   3.644   9.458  2.8554 -0.4218 -0.1816
 1918TIP3   OH229948   5.334   5.427   7.803  0.3519 -0.2656  0.0965
 1918TIP3    H129949   5.332   5.355   7.865  2.5551  0.3918  1.0363
 1918TIP3    H229950   5.372   5.389   7.724  0.3923 -0.4099  0.1855
 1919TIP3   OH229951   6.902   4.299   8.433  0.1454  0.8237 -0.5007
 1919TIP3    H129952   6.872   4.326   8.346  1.3078  0.6779 -0.9552
 1919TIP3    H229953   6.895   4.203   8.432 -0.3993  0.8568 -0.2163
 1920TIP3   OH229954   6.482   0.670   9.157 -0.1718 -0.3678  0.1417
 1920TIP3    H129955   6.494   0.672   9.252  1.2284  0.7759 -0.0224
 1920TIP3    H229956   6.473   0.577   9.136  0.6897 -0.7273  1.2642
 1921TIP3   OH229957   1.509   1.560   6.885  0.6766 -0.3913 -0.3686
 1921TIP3    H129958   1.580   1.611   6.923  0.3372 -0.7610  0.7878
 1921TIP3    H229959   1.429   1.599   6.920  0.3040 -0.1209 -1.4839
 1922TIP3   OH229960   3.158   1.857   8.311 -0.3528 -0.1908  0.6785
 1922TIP3    H129961   3.140   1.776   8.263  0.7388  0.1922 -0.4509
 1922TIP3    H229962   3.143   1.835   8.403  2.8573 -2.6515  0.7893
 1923TIP3   OH229963   3.385   2.862   1.494  0.4718  0.0116 -0.7508
 1923TIP3    H129964   3.376   2.957   1.491 -0.8195 -0.1067 -0.9097
 1923TIP3    H229965   3.297   2.828   1.476  0.9281 -1.2143 -0.7764
 1924TIP3   OH229966   1.639   3.244   6.491  0.1209  0.0864  0.5204
 1924TIP3    H129967   1.708   3.184   6.463 -2.0063 -1.5016 -1.7109
 1924TIP3    H229968   1.595   3.198   6.562  0.0892  0.1901  0.5684
 1925TIP3   OH229969   3.381   1.529   7.663 -0.1721 -0.4135  0.2245
 1925TIP3    H129970   3.411   1.459   7.605  0.9056 -0.8899  1.3039
 1925TIP3    H229971   3.291   1.505   7.686 -0.6476 -0.1570 -1.3090
 1926TIP3   OH229972   2.561   3.866   1.815 -0.1191  0.1959  0.3099
 1926TIP3    H129973   2.610   3.862   1.733 -1.0399  0.2310 -0.2512
 1926TIP3    H229974   2.512   3.948   1.810 -1.0620 -0.3409  0.3656
 1927TIP3   OH229975   1.979   6.632   0.083 -0.0067  0.7780  0.0326
 1927TIP3    H129976   2.020   6.565   0.029  0.4787  0.6110  0.5958
 1927TIP3    H229977   2.017   6.715   0.052 -0.4565  0.7793 -0.5274
 1928TIP3   OH229978   0.426   3.185   9.381  0.6342 -0.2029  0.2586
 1928TIP3    H129979   0.511   3.145   9.361  1.1737  1.3494 -0.7184
 1928TIP3    H229980   0.390   3.207   9.295 -0.3460 -0.0180  0.7093
 1929TIP3   OH229981   0.471   0.461   6.221  0.4776  0.4832 -0.3773
 1929TIP3    H129982   0.464   0.374   6.258  0.5622 -0.2392 -1.9672
 1929TIP3    H229983   0.405   0.512   6.268 -1.1907 -1.0291 -0.9472
 1930TIP3   OH229984   2.260   2.846   6.547  0.4037  0.0211 -0.1689
 1930TIP3    H129985   2.330   2.896   6.589 -0.0426  0.2651  0.3040
 1930TIP3    H229986   2.234   2.782   6.613  0.5441 -0.4328 -0.5433
 1931TIP3   OH229987   1.808   4.211   2.298  0.4459  0.2038 -0.1090
 1931TIP3    H129988   1.832   4.221   2.205  0.8848  2.6393  0.1878
 1931TIP3    H229989   1.749   4.137   2.299 -0.1769  0.5632 -2.4852
 1932TIP3   OH229990   5.897   3.354   1.921 -0.2512  0.0207 -0.3180
 1932TIP3    H129991   5.938   3.306   1.993  1.0187 -0.2648 -1.1961
 1932TIP3    H229992   5.803   3.351   1.940 -0.1123 -1.8117  0.2717
 1933TIP3   OH229993   3.587   1.894   0.809  0.2444  0.9405 -0.4585
 1933TIP3    H129994   3.535   1.821   0.776  0.2567  0.3896  0.6946
 1933TIP3    H229995   3.672   1.886   0.766  1.1563 -1.3032  1.5694
 1934TIP3   OH229996   0.653   6.620   8.017  0.0516 -0.0199 -0.1578
 1934TIP3    H129997   0.621   6.710   8.013  0.6280  0.1810 -0.3901
 1934TIP3    H229998   0.675   6.605   8.109 -1.2642 -0.3662  0.1190
 1935TIP3   OH229999   5.607   5.874   6.683 -0.7410  0.4167  0.1086
 1935TIP3    H130000   5.594   5.876   6.588 -0.5407 -1.2741  0.0069
 1935TIP3    H230001   5.548   5.805   6.714 -0.4716  0.6407  1.1491
 1936TIP3   OH230002   4.402   6.044   8.162  0.8630 -0.8374  0.1471
 1936TIP3    H130003   4.346   6.093   8.101  0.4848 -0.0725  1.0924
 1936TIP3    H230004   4.345   5.978   8.200  1.3850 -2.1000 -1.1632
 1937TIP3   OH230005   4.131   1.238   1.972 -0.5738 -0.2185 -0.0094
 1937TIP3    H130006   4.205   1.254   1.913 -0.0109  1.0143  0.9891
 1937TIP3    H230007   4.084   1.321   1.976 -0.9893 -0.4781  0.7461
 1938TIP3   OH230008   6.301   2.033   0.739 -0.3159  0.0249 -0.5626
 1938TIP3    H130009   6.262   1.964   0.793  0.5545  1.0029  1.4323
 1938TIP3    H230010   6.330   1.989   0.660 -0.0743 -1.8332  0.5145
 1939TIP3   OH230011   4.236   0.886   0.504  0.1091 -0.2516  1.0764
 1939TIP3    H130012   4.226   0.915   0.594 -1.6429  0.4339  0.7133
 1939TIP3    H230013   4.319   0.839   0.502  0.1537 -0.3159  3.0440
 1940TIP3   OH230014   5.785   7.002   2.871 -0.1047 -0.4327  0.3575
 1940TIP3    H130015   5.867   7.033   2.910 -0.3381 -0.5218  0.9201
 1940TIP3    H230016   5.734   7.081   2.856  0.9092 -0.1287 -1.9726
 1941TIP3   OH230017   0.103   7.127   7.740  0.0284 -0.6240 -0.1972
 1941TIP3    H130018   0.035   7.194   7.738  0.3448 -0.2826  0.3816
 1941TIP3    H230019   0.125   7.113   7.648  0.1346  0.2406 -0.3101
 1942TIP3   OH230020   6.433   1.363   1.974  0.2418  0.1643  0.3206
 1942TIP3    H130021   6.374   1.353   2.049 -1.2391  2.3533 -0.4601
 1942TIP3    H230022   6.521   1.362   2.013 -0.3254 -1.3530  1.7241
 1943TIP3   OH230023   7.229   1.348   0.396 -0.2411 -0.1946  0.2939
 1943TIP3    H130024   7.240   1.418   0.331  0.4216 -0.1806  0.4150
 1943TIP3    H230025   7.262   1.270   0.352  2.0435  0.1558  1.2517
 1944TIP3   OH230026   5.740   0.798   6.602 -0.1322 -0.9526 -0.9892
 1944TIP3    H130027   5.680   0.865   6.633  0.2105 -0.7267 -0.8059
 1944TIP3    H230028   5.698   0.715   6.626 -0.4394 -0.8004 -0.9952
 1945TIP3   OH230029   5.510   6.346   6.761 -0.1823  0.8904 -0.6967
 1945TIP3    H130030   5.434   6.301   6.798  0.5401 -0.2813 -0.5611
 1945TIP3    H230031   5.536   6.291   6.687  1.9969 -0.1521  0.7303
 1946TIP3   OH230032   3.416   2.633   9.250  0.2139 -0.1418 -0.3841
 1946TIP3    H130033   3.416   2.729   9.252  0.8992 -0.1184 -1.1266
 1946TIP3    H230034   3.364   2.610   9.173 -0.9990 -0.4108  0.4792
 1947TIP3   OH230035   2.927   4.758   0.046  0.0275 -0.9725 -0.6313
 1947TIP3    H130036   3.011   4.763   0.000  0.2087  0.0112 -0.2192
 1947TIP3    H230037   2.949   4.723   0.133  0.2268  0.4995 -0.0632
 1948TIP3   OH230038   0.874   1.106   6.811 -0.2273 -0.8254  0.1173
 1948TIP3    H130039   0.894   1.115   6.718  2.0362 -2.4808  0.3564
 1948TIP3    H230040   0.781   1.125   6.818 -0.0267  1.5399 -2.1242
 1949TIP3   OH230041   6.369   1.564   8.247 -0.2626  0.2154 -0.1739
 1949TIP3    H130042   6.436   1.517   8.198  0.0898 -0.9706  1.3841
 1949TIP3    H230043   6.287   1.541   8.203  0.1286 -0.0599 -0.7759
 1950TIP3   OH230044   1.681   1.410   0.951 -0.4091 -0.0973  0.2964
 1950TIP3    H130045   1.592   1.441   0.968 -0.7493 -1.7175  1.6646
 1950TIP3    H230046   1.670   1.332   0.897  0.2785  0.3347 -0.5077
 1951TIP3   OH230047   2.449   1.953   8.364  0.0431  0.0052  0.1375
 1951TIP3    H130048   2.394   1.927   8.438  0.1387  0.3831  0.3493
 1951TIP3    H230049   2.388   1.978   8.296 -0.0466 -0.5439  0.0144
 1952TIP3   OH230050   6.701   0.725   8.994 -0.0782 -0.4702 -0.0836
 1952TIP3    H130051   6.753   0.799   9.026 -0.3537 -0.8464  1.2935
 1952TIP3    H230052   6.637   0.709   9.063  0.8263 -2.8561  0.2871
 1953TIP3   OH230053   7.001   4.808   6.288  0.6599  0.1310 -0.2508
 1953TIP3    H130054   7.095   4.827   6.288  0.7078  0.0754  1.2635
 1953TIP3    H230055   6.960   4.893   6.304  0.2959  0.5199 -2.8781
 1954TIP3   OH230056   3.323   1.778   1.553 -0.1709  0.0556 -0.1919
 1954TIP3    H130057   3.336   1.683   1.554 -0.7703 -0.0303  1.2275
 1954TIP3    H230058   3.350   1.808   1.640  0.8857  1.3390 -0.9184
 1955TIP3   OH230059   6.014   4.399   8.005 -0.1939 -0.4719 -0.1342
 1955TIP3    H130060   6.093   4.352   7.979  1.6141  0.7934  2.4992
 1955TIP3    H230061   6.045   4.461   8.072 -3.7394 -1.4566  2.7224
 1956TIP3   OH230062   4.290   6.680   1.439 -0.1044 -0.1696  0.1617
 1956TIP3    H130063   4.292   6.772   1.411  0.5586 -0.5964 -1.2886
 1956TIP3    H230064   4.318   6.683   1.530  1.2526  0.9610 -0.2426
 1957TIP3   OH230065   6.934   4.933   8.500  0.2985 -0.1259 -0.3198
 1957TIP3    H130066   6.859   4.904   8.446  0.3141 -0.0281 -0.3934
 1957TIP3    H230067   6.997   4.861   8.493 -0.4477 -0.9582  1.0625
 1958TIP3   OH230068   6.507   5.916   7.094  0.4348 -0.4770 -0.0052
 1958TIP3    H130069   6.491   6.009   7.079  0.3977 -0.4090  0.4260
 1958TIP3    H230070   6.581   5.895   7.037  1.6988  0.2807  1.2551
 1959TIP3   OH230071   7.349   2.270   1.708  0.1445 -0.1269 -0.1681
 1959TIP3    H130072   7.289   2.256   1.635  1.0504 -0.4846 -0.8632
 1959TIP3    H230073   7.334   2.360   1.735 -1.3107 -0.4604  0.2411
 1960TIP3   OH230074   0.107   1.377   0.543 -0.1051  0.2227  0.0961
 1960TIP3    H130075   0.031   1.352   0.595 -0.1962  1.5707  0.6508
 1960TIP3    H230076   0.153   1.442   0.597  1.0711 -0.0597 -0.5238
 1961TIP3   OH230077   2.974   0.892   1.752 -0.0008 -0.0828  0.2874
 1961TIP3    H130078   3.011   0.837   1.684  0.1665 -0.6751  0.8534
 1961TIP3    H230079   3.000   0.981   1.728  0.3682 -0.3252 -0.2121
 1962TIP3   OH230080   3.213   2.345   8.223 -0.1066 -0.0075 -0.3456
 1962TIP3    H130081   3.191   2.432   8.190  0.4087  0.6637  0.9996
 1962TIP3    H230082   3.142   2.323   8.283 -1.0514 -1.2243 -1.8675
 1963TIP3   OH230083   5.160   5.853   9.201  0.0635  0.5739  0.2113
 1963TIP3    H130084   5.196   5.783   9.256  0.3591  1.3569  1.0206
 1963TIP3    H230085   5.066   5.852   9.221 -0.3438 -1.0726 -1.4645
 1964TIP3   OH230086   4.778   6.487   0.945 -0.2884 -0.4115  0.6743
 1964TIP3    H130087   4.855   6.545   0.948 -0.6926  0.3259 -1.2755
 1964TIP3    H230088   4.805   6.409   0.993  1.3159  0.2472  0.9210
 1965TIP3   OH230089   2.097   5.517   8.055 -1.0351  0.2904  0.2202
 1965TIP3    H130090   2.059   5.579   7.993 -0.2342  0.6760  0.1156
 1965TIP3    H230091   2.056   5.433   8.033 -0.0454  0.2247 -1.4509
 1966TIP3   OH230092   3.487   2.098   1.174 -0.3618  0.0350  0.0812
 1966TIP3    H130093   3.521   2.028   1.230 -0.8820  0.5071  1.0152
 1966TIP3    H230094   3.468   2.056   1.091  1.0997 -0.5408  0.0202
 1967TIP3   OH230095   4.324   0.795   2.171  0.0463  0.6371  0.0268
 1967TIP3    H130096   4.305   0.728   2.236  2.0203  1.8578  1.9625
 1967TIP3    H230097   4.292   0.757   2.088 -0.4240 -1.9340  1.2847
 1968TIP3   OH230098   0.920   3.048   9.343 -0.1742  0.0171 -0.5365
 1968TIP3    H130099   1.005   3.026   9.382 -1.0279 -2.4239  0.1284
 1968TIP3    H230100   0.897   3.132   9.383  0.3676 -0.9434  2.0147
 1969TIP3   OH230101   5.610   4.849   1.300 -0.2160 -0.2680 -0.7787
 1969TIP3    H130102   5.677   4.785   1.278  1.4682  1.5128 -1.1049
 1969TIP3    H230103   5.553   4.851   1.223 -0.3841 -1.4338 -0.7030
 1970TIP3   OH230104   6.765   1.305   6.646 -0.2317 -0.2694  0.1273
 1970TIP3    H130105   6.849   1.350   6.653 -0.5464  0.2900  0.3960
 1970TIP3    H230106   6.775   1.246   6.571 -0.2124  1.1254 -0.9997
 1971TIP3   OH230107   4.553   5.313   1.831  0.1852  0.3515 -0.1519
 1971TIP3    H130108   4.596   5.388   1.872 -0.3727 -0.2822  1.6929
 1971TIP3    H230109   4.625   5.259   1.798  0.7891 -0.0021  1.6380
 1972TIP3   OH230110   4.597   0.583   8.364 -0.2421  0.2169 -0.1149
 1972TIP3    H130111   4.513   0.620   8.336 -0.4841  0.3722  0.7804
 1972TIP3    H230112   4.659   0.613   8.297 -1.0152 -0.5438 -1.2063
 1973TIP3   OH230113   3.295   5.223   8.793 -0.1350 -0.2683 -0.2559
 1973TIP3    H130114   3.288   5.128   8.805  1.8901 -0.2032  2.3992
 1973TIP3    H230115   3.303   5.258   8.882  0.5101  2.2680 -1.2237
 1974TIP3   OH230116   6.771   4.225   0.397 -0.3560 -0.9158 -0.1778
 1974TIP3    H130117   6.766   4.196   0.306  3.6607 -0.1725 -0.8173
 1974TIP3    H230118   6.829   4.161   0.440  0.0569  0.2757  1.1280
 1975TIP3   OH230119   2.818   0.175   9.312  0.3101  0.3736  0.3995
 1975TIP3    H130120   2.912   0.158   9.319  0.2386 -1.4085 -1.7797
 1975TIP3    H230121   2.794   0.144   9.225 -2.3148  0.7918  0.8783
 1976TIP3   OH230122   5.829   3.948   2.707 -0.2542 -0.0134 -0.6044
 1976TIP3    H130123   5.787   3.946   2.793 -0.3434  0.4929 -0.6310
 1976TIP3    H230124   5.909   3.898   2.718 -0.2567  0.0650 -0.2174
 1977TIP3   OH230125   4.835   3.528   8.233  0.7729 -0.1858  0.1368
 1977TIP3    H130126   4.755   3.521   8.286  0.1964 -0.3783 -0.7274
 1977TIP3    H230127   4.832   3.452   8.175  1.6443 -0.2433  0.1544
 1978TIP3   OH230128   1.782   4.598   2.454  0.4719  0.1703  0.5769
 1978TIP3    H130129   1.824   4.674   2.495  1.1122 -0.3041  0.8230
 1978TIP3    H230130   1.726   4.562   2.523 -0.7429  1.0748  0.1063
 1979TIP3   OH230131   1.756   1.600   1.148 -0.8451  0.3107  0.0011
 1979TIP3    H130132   1.755   1.519   1.097  1.0934 -0.6155  1.3207
 1979TIP3    H230133   1.706   1.580   1.227  1.5799 -0.4362  1.4191
 1980TIP3   OH230134   6.358   6.180   8.555  0.3188 -0.0012 -0.1903
 1980TIP3    H130135   6.299   6.105   8.564  0.5648 -0.0756  0.9442
 1980TIP3    H230136   6.418   6.172   8.629  0.1221  1.5195  0.1708
 1981TIP3   OH230137   0.193   5.113   7.233  0.7550 -0.2762 -0.4362
 1981TIP3    H130138   0.221   5.022   7.228  1.9707  0.0320  0.2479
 1981TIP3    H230139   0.151   5.130   7.149  1.1089 -1.2750 -0.8336
 1982TIP3   OH230140   1.739   4.664   0.577 -0.2963  0.0052 -0.4608
 1982TIP3    H130141   1.770   4.580   0.613 -0.2025 -0.5606 -1.8048
 1982TIP3    H230142   1.780   4.670   0.491 -1.5352  0.6730 -1.0373
 1983TIP3   OH230143   1.706   1.648   9.405  0.6216 -0.3682 -0.0387
 1983TIP3    H130144   1.738   1.666   9.316 -0.7721  0.2862 -0.4347
 1983TIP3    H230145   1.724   1.728   9.454 -0.5723  0.1005 -0.3306
 1984TIP3   OH230146   6.071   4.658   9.364  0.2086  0.0220 -0.6303
 1984TIP3    H130147   6.091   4.751   9.355  0.1581  0.2947  1.5578
 1984TIP3    H230148   5.975   4.654   9.359  0.2301  0.0380 -1.0696
 1985TIP3   OH230149   0.835   4.148   0.317 -0.2554 -0.0035 -0.3417
 1985TIP3    H130150   0.852   4.119   0.407  3.4370  0.7742 -0.6701
 1985TIP3    H230151   0.774   4.222   0.327  0.2921  0.2458  1.5304
 1986TIP3   OH230152   3.107   0.120   0.358  0.8728 -0.3391  0.2256
 1986TIP3    H130153   3.072   0.049   0.413  1.7608 -0.9222  0.0541
 1986TIP3    H230154   3.047   0.124   0.284 -0.2730  0.3752  1.1570
 1987TIP3   OH230155   1.474   6.038   0.560 -0.1216  0.1026  0.8187
 1987TIP3    H130156   1.395   6.069   0.605  0.0073  1.6184  0.0720
 1987TIP3    H230157   1.463   5.943   0.555 -1.1254  0.1156  2.1585
 1988TIP3   OH230158   7.380   6.078   0.331  0.3956  0.1425 -0.2839
 1988TIP3    H130159   7.469   6.080   0.365  0.5722 -0.8454 -0.6451
 1988TIP3    H230160   7.342   5.999   0.368 -0.5449  0.8703  0.3530
 1989TIP3   OH230161   6.454   1.293   9.548  0.0913 -0.2133  0.0775
 1989TIP3    H130162   6.480   1.324   9.462 -1.7109 -0.1755 -0.5090
 1989TIP3    H230163   6.406   1.367   9.586  1.4889  0.0305  1.4254
 1990TIP3   OH230164   6.030   2.231   0.046  0.0965  0.2428  0.3632
 1990TIP3    H130165   6.018   2.314   0.091  1.9827  2.6670 -3.1798
 1990TIP3    H230166   6.067   2.254  -0.039 -0.4065 -4.1619 -1.3331
 1991TIP3   OH230167   0.689   0.993   8.885  0.0443  0.2757 -0.2739
 1991TIP3    H130168   0.624   1.025   8.821 -2.1204 -1.3914  0.9701
 1991TIP3    H230169   0.656   1.025   8.969  1.4018  0.1845  0.3004
 1992TIP3   OH230170   0.933   5.034   1.615  0.1399  0.6653 -0.4080
 1992TIP3    H130171   0.985   5.105   1.575  0.6292  1.8404  2.0961
 1992TIP3    H230172   0.914   4.974   1.543  2.5558  1.6609 -1.9924
 1993TIP3   OH230173   4.761   1.663   7.411 -0.0571 -0.1443  0.0379
 1993TIP3    H130174   4.743   1.670   7.317 -2.9752 -2.6288  0.2780
 1993TIP3    H230175   4.760   1.754   7.443 -4.7049  0.5859 -1.4886
 1994TIP3   OH230176   7.180   7.051   2.700 -0.1869 -0.0487  0.1803
 1994TIP3    H130177   7.243   7.107   2.745  0.2059 -0.0203 -0.4010
 1994TIP3    H230178   7.234   6.989   2.651 -0.5290  1.6768 -2.5538
 1995TIP3   OH230179   0.971   3.920   0.198 -0.0104  0.2931  0.1342
 1995TIP3    H130180   0.916   3.889   0.126  0.0733 -0.9135  0.5659
 1995TIP3    H230181   0.938   4.007   0.218  0.2399  0.8315 -1.6428
 1996TIP3   OH230182   7.133   3.242   0.670  0.1879 -0.5103  0.6125
 1996TIP3    H130183   7.202   3.237   0.603  1.3209  1.6945  1.5192
 1996TIP3    H230184   7.170   3.197   0.746 -0.1004 -0.8724  0.5385
 1997TIP3   OH230185   2.668   3.834   0.638 -0.2615 -0.0766 -0.5186
 1997TIP3    H130186   2.574   3.833   0.658 -0.0561  0.4628  0.5598
 1997TIP3    H230187   2.700   3.749   0.669  0.2093  1.0697  2.4447
 1998TIP3   OH230188   6.745   0.821   1.712 -0.8688  0.4967  0.0746
 1998TIP3    H130189   6.840   0.813   1.719 -0.9366 -0.4544  0.1188
 1998TIP3    H230190   6.712   0.752   1.770 -1.5713  0.2816 -0.5723
 1999TIP3   OH230191   3.203   0.946   7.296 -0.2721  0.6044  0.4428
 1999TIP3    H130192   3.298   0.941   7.304 -0.2714 -1.3126 -0.3633
 1999TIP3    H230193   3.170   0.908   7.378 -0.3441  0.2245  0.2369
 2000TIP3   OH230194   3.486   0.692   7.381  0.6621 -0.2321  0.1148
 2000TIP3    H130195   3.483   0.627   7.311  3.4780 -0.3710  0.0010
 2000TIP3    H230196   3.509   0.642   7.459  1.1938  0.3835  0.3632
 2001TIP3   OH230197   1.265   7.027   1.765  0.4496 -0.1847  0.1756
 2001TIP3    H130198   1.316   7.000   1.841  1.5792 -1.5954 -1.0175
 2001TIP3    H230199   1.328   7.070   1.708 -0.3963  0.9081  0.0310
 2002TIP3   OH230200   2.670   5.853   8.151  0.0585  0.1259 -0.1792
 2002TIP3    H130201   2.669   5.945   8.126 -1.3236 -0.0763 -1.0129
 2002TIP3    H230202   2.635   5.852   8.240  0.8358  0.4648  0.1378
 2003TIP3   OH230203   4.997   3.043   1.677  0.6601  0.2463 -0.5262
 2003TIP3    H130204   4.999   3.137   1.659 -0.6455  0.3141 -0.4669
 2003TIP3    H230205   5.005   3.037   1.772  1.8793  0.2252 -0.6256
 2004TIP3   OH230206   6.218   3.642   6.879 -0.2238 -0.2289 -0.6999
 2004TIP3    H130207   6.244   3.591   6.802  0.0719  0.1198 -0.8295
 2004TIP3    H230208   6.135   3.683   6.854  0.6326  1.1282 -1.4015
 2005TIP3   OH230209   3.798   3.563   2.883  0.3674  0.4580 -0.7246
 2005TIP3    H130210   3.837   3.637   2.836  0.3605  0.0193 -1.4408
 2005TIP3    H230211   3.774   3.501   2.814  1.4515 -0.7324 -0.0786
 2006TIP3   OH230212   4.751   2.209   7.845  0.0649  0.2736  0.2422
 2006TIP3    H130213   4.768   2.115   7.836  2.1243  0.6810 -1.1181
 2006TIP3    H230214   4.822   2.241   7.900 -0.5683  1.0519  0.6268
 2007TIP3   OH230215   6.624   4.441   8.856 -0.1977 -0.3704 -0.4084
 2007TIP3    H130216   6.628   4.412   8.765  0.7085  0.4059 -0.6253
 2007TIP3    H230217   6.535   4.474   8.867 -0.1941 -0.1228 -1.1200
 2008TIP3   OH230218   5.184   4.227   7.720  0.0021  0.3357 -0.4507
 2008TIP3    H130219   5.256   4.250   7.661  0.3612  0.9103  0.1959
 2008TIP3    H230220   5.111   4.283   7.692  0.0443  0.3207 -0.5945
 2009TIP3   OH230221   2.271   0.665   0.096 -0.5278  0.3951  0.3195
 2009TIP3    H130222   2.288   0.620   0.179  0.7168  0.3824  0.0760
 2009TIP3    H230223   2.358   0.680   0.058 -1.1211 -0.8877 -1.6768
 2010TIP3   OH230224   2.078   1.018   2.907  0.0653  0.7997 -0.3698
 2010TIP3    H130225   2.154   1.077   2.908  0.2462  0.5700 -0.3399
 2010TIP3    H230226   2.023   1.050   2.836 -0.3516  1.6475  0.3123
 2011TIP3   OH230227   7.048   6.506   1.175 -0.0714 -0.3371 -0.0447
 2011TIP3    H130228   7.050   6.592   1.217 -0.9900 -0.4168  0.1876
 2011TIP3    H230229   7.122   6.458   1.214  1.0886  0.6644 -0.9272
 2012TIP3   OH230230   1.411   6.204   6.718 -0.2583 -0.0897  0.1802
 2012TIP3    H130231   1.427   6.292   6.684  1.6389 -1.1580 -1.9337
 2012TIP3    H230232   1.316   6.192   6.707 -0.2968  1.0770 -1.1081
 2013TIP3   OH230233   5.741   2.885   1.383 -0.6189  0.2645 -0.3862
 2013TIP3    H130234   5.693   2.953   1.335  0.5650  0.9730 -0.6108
 2013TIP3    H230235   5.824   2.877   1.337  0.5902  1.0039  1.5416
 2014TIP3   OH230236   7.105   0.035   0.551 -0.2027  0.2949  0.4749
 2014TIP3    H130237   7.067  -0.013   0.625 -0.8204  0.8530  0.5268
 2014TIP3    H230238   7.097  -0.027   0.477 -1.5183  0.4946  0.4132
 2015TIP3   OH230239   0.718   2.120   2.753 -0.2319 -0.5834 -0.0358
 2015TIP3    H130240   0.628   2.098   2.730 -0.5030 -0.4591  0.8689
 2015TIP3    H230241   0.733   2.074   2.836 -0.4346  1.6680  1.3298
 2016TIP3   OH230242   2.788   6.097   9.581 -0.4862  0.3292 -0.3542
 2016TIP3    H130243   2.851   6.135   9.641 -1.8012 -1.0775  2.0537
 2016TIP3    H230244   2.778   6.006   9.610 -1.1338 -0.4810 -2.7985
 2017TIP3   OH230245   0.502   3.196   0.866 -0.3535  0.0366  0.1850
 2017TIP3    H130246   0.441   3.260   0.902  1.2563  2.4799 -1.1904
 2017TIP3    H230247   0.533   3.148   0.943  0.2073  2.5732  1.6569
 2018TIP3   OH230248   5.491   0.143   6.971  0.2155  0.1247  0.1222
 2018TIP3    H130249   5.538   0.226   6.959 -0.3375  0.2864 -0.9931
 2018TIP3    H230250   5.445   0.154   7.055  1.4467  0.2954  0.8031
 2019TIP3   OH230251   2.868   5.533   1.395  0.0250  0.2570  0.2431
 2019TIP3    H130252   2.778   5.521   1.426  0.3727  1.0585  1.6461
 2019TIP3    H230253   2.860   5.534   1.299 -1.1349 -2.0138  0.2388
 2020TIP3   OH230254   3.471   0.304   8.975  0.9818 -0.8414  0.1042
 2020TIP3    H130255   3.538   0.367   8.999 -0.2970  0.6241 -0.0205
 2020TIP3    H230256   3.431   0.278   9.058  1.2048 -1.1612  0.1152
 2021TIP3   OH230257   3.234   0.998   8.903  0.3725  0.5242  0.1698
 2021TIP3    H130258   3.221   0.903   8.896 -0.0255  0.2610  3.1273
 2021TIP3    H230259   3.314   1.007   8.954  0.3387  1.7798  0.0219
 2022TIP3   OH230260   7.221   4.749   8.567 -0.3959 -0.0893  0.3343
 2022TIP3    H130261   7.211   4.655   8.555 -1.7700  0.0043  0.5739
 2022TIP3    H230262   7.256   4.780   8.483  1.1220 -0.9262  0.6141
 2023TIP3   OH230263   1.459   4.638   1.558  0.5689 -0.7397 -0.2120
 2023TIP3    H130264   1.468   4.630   1.653  1.5602 -0.0058 -0.2359
 2023TIP3    H230265   1.432   4.728   1.543  0.9036 -0.7106 -0.6621
 2024TIP3   OH230266   2.536   6.368   7.742  0.2206 -0.2927 -0.5169
 2024TIP3    H130267   2.529   6.422   7.820 -0.2042  0.3261 -0.9817
 2024TIP3    H230268   2.446   6.351   7.716  0.3481  0.5525 -1.5880
 2025TIP3   OH230269   5.231   0.903   1.341  0.1735  0.3270  0.7606
 2025TIP3    H130270   5.230   0.969   1.410  1.6556 -1.9868  3.1977
 2025TIP3    H230271   5.321   0.901   1.310 -0.0101 -0.0822  0.2262
 2026TIP3   OH230272   0.752   0.020   8.624 -0.2494 -0.1573  0.1882
 2026TIP3    H130273   0.740   0.095   8.566 -1.3464 -2.0542 -2.2085
 2026TIP3    H230274   0.843   0.027   8.653 -0.1649  1.7915 -0.3700
 2027TIP3   OH230275   5.278   1.594   8.318  0.6275  0.0517  0.2174
 2027TIP3    H130276   5.345   1.633   8.262 -0.7403  1.6972 -0.3475
 2027TIP3    H230277   5.251   1.515   8.271  0.5161  0.6411 -0.7342
 2028TIP3   OH230278   7.202   2.648   9.294 -0.7095 -0.2744  0.0488
 2028TIP3    H130279   7.290   2.613   9.278 -0.2909  0.2349  1.1544
 2028TIP3    H230280   7.147   2.603   9.229  0.0308 -1.9817  0.5370
 2029TIP3   OH230281   6.175   6.473   7.699  0.1758  0.2408  0.4162
 2029TIP3    H130282   6.141   6.393   7.737 -0.8228  0.6975  0.5095
 2029TIP3    H230283   6.190   6.451   7.607 -0.0056 -0.0763  0.4608
 2030TIP3   OH230284   5.329   0.251   2.782 -0.3342  0.4979 -0.7909
 2030TIP3    H130285   5.252   0.307   2.774  0.2415  1.6364  1.0197
 2030TIP3    H230286   5.403   0.311   2.774  0.3528 -0.3404 -0.9172
 2031TIP3   OH230287   3.989   3.790   7.163 -0.5358 -0.0781 -0.0710
 2031TIP3    H130288   4.031   3.716   7.119 -0.8891  0.5257 -1.5045
 2031TIP3    H230289   3.911   3.807   7.110 -1.8885 -0.3238  1.7458
 2032TIP3   OH230290   2.091   5.385   7.742  0.0021  0.2954 -0.5866
 2032TIP3    H130291   2.058   5.360   7.828  1.0537 -1.1567 -0.5784
 2032TIP3    H230292   2.125   5.474   7.753  1.3538 -0.3640  0.8584
 2033TIP3   OH230293   2.008   0.764   0.055 -0.5680 -0.8241 -0.1664
 2033TIP3    H130294   2.097   0.737   0.077 -0.8390 -2.4772 -0.9740
 2033TIP3    H230295   1.971   0.795   0.138  0.5384 -0.7503  0.3084
 2034TIP3   OH230296   3.826   4.549   0.905 -0.4365  0.1927 -0.1253
 2034TIP3    H130297   3.835   4.454   0.907 -0.1772  0.1981 -0.7092
 2034TIP3    H230298   3.757   4.565   0.842  0.0110  0.4147 -0.5675
 2035TIP3   OH230299   5.625   1.105   7.350 -0.0369  0.0573  0.4187
 2035TIP3    H130300   5.639   1.177   7.289 -0.2051 -1.0085 -0.9346
 2035TIP3    H230301   5.530   1.099   7.360 -0.0973 -0.7239 -0.4516
 2036TIP3   OH230302   1.687   0.173   9.652 -0.0563 -0.0820 -0.6889
 2036TIP3    H130303   1.768   0.216   9.624  0.0287  1.6132  1.8512
 2036TIP3    H230304   1.663   0.217   9.734 -0.9289 -3.7950  1.2356
 2037TIP3   OH230305   0.571   7.364   2.066 -0.6106  0.1426 -0.1707
 2037TIP3    H130306   0.510   7.292   2.048  0.0469 -0.3634 -0.3854
 2037TIP3    H230307   0.646   7.347   2.009 -0.0274  0.4566  0.4854
 2038TIP3   OH230308   1.076   0.838   6.566  0.0326  0.0043  0.1691
 2038TIP3    H130309   1.089   0.745   6.546 -1.2878 -0.2413  0.3741
 2038TIP3    H230310   1.022   0.871   6.494  0.8168  0.7244 -0.1122
 2039TIP3   OH230311   2.428   6.287   2.109  0.7994 -0.8143  0.2189
 2039TIP3    H130312   2.520   6.288   2.137  0.6701  0.6932  0.6858
 2039TIP3    H230313   2.422   6.356   2.043 -0.0889 -0.5860  0.5201
 2040TIP3   OH230314   4.096   3.882   1.342  0.0786  0.1665 -0.2081
 2040TIP3    H130315   4.106   3.975   1.319 -0.6161  0.7773  1.8060
 2040TIP3    H230316   4.002   3.864   1.331  0.3803 -0.6583 -1.7283
 2041TIP3   OH230317   0.911   4.882   0.464 -0.3301  0.5478 -0.5507
 2041TIP3    H130318   0.886   4.969   0.493 -0.7438 -0.0974  1.1458
 2041TIP3    H230319   0.833   4.847   0.420  0.0228  1.2153 -1.7508
 2042TIP3   OH230320   3.052   3.307   2.714 -0.2624  0.2068 -0.7735
 2042TIP3    H130321   3.130   3.333   2.664 -0.2719  1.8570  0.0078
 2042TIP3    H230322   3.010   3.241   2.659  0.5775  0.7925 -2.1864
 2043TIP3   OH230323   6.291   7.280   0.461 -0.1856 -0.5900  0.3266
 2043TIP3    H130324   6.275   7.258   0.553 -0.6361  2.1203  0.9782
 2043TIP3    H230325   6.337   7.364   0.464 -1.8846  0.5339 -1.9220
 2044TIP3   OH230326   0.090   5.446   8.317  0.5923 -0.1285 -0.0683
 2044TIP3    H130327   0.022   5.379   8.327  0.7439 -0.2528  0.1245
 2044TIP3    H230328   0.167   5.409   8.360  0.1740  0.9278  1.6870
 2045TIP3   OH230329   5.660   2.558   9.640 -0.5088  0.9286  0.2383
 2045TIP3    H130330   5.670   2.644   9.599 -0.1222 -0.0265 -1.7466
 2045TIP3    H230331   5.681   2.495   9.571  0.9649 -0.7667  2.0961
 2046TIP3   OH230332   6.020   3.155   7.600 -0.1501  0.2511 -0.3145
 2046TIP3    H130333   6.062   3.181   7.518  2.4403 -2.2811  0.0607
 2046TIP3    H230334   5.964   3.081   7.576  0.3697 -0.2931  0.1268
 2047TIP3   OH230335   0.119   6.033   9.449 -0.5859 -0.3748  0.3100
 2047TIP3    H130336   0.064   6.105   9.419  0.8560 -0.0706 -1.8537
 2047TIP3    H230337   0.071   5.954   9.424 -1.1884 -0.1415  0.7320
 2048TIP3   OH230338   3.482   4.716   9.296 -0.1939 -0.4534  0.5118
 2048TIP3    H130339   3.509   4.671   9.376 -0.9783  0.5676  1.3807
 2048TIP3    H230340   3.546   4.689   9.230 -0.0963 -2.0665  1.2319
 2049TIP3   OH230341   6.527   5.479   9.182 -0.4346 -0.4650 -0.2459
 2049TIP3    H130342   6.444   5.454   9.143  0.1515 -0.2730 -1.6784
 2049TIP3    H230343   6.582   5.506   9.108  0.4241  0.8125  0.8017
 2050TIP3   OH230344   0.693   2.927   0.048 -0.1778  0.0825 -0.1300
 2050TIP3    H130345   0.694   3.023   0.058 -1.2778  0.1033 -0.0951
 2050TIP3    H230346   0.687   2.913  -0.046  0.7200  0.0302 -0.1840
 2051TIP3   OH230347   2.172   6.682   1.982  0.3405  0.4111  0.2402
 2051TIP3    H130348   2.213   6.748   2.038 -0.0242 -0.4300  1.5392
 2051TIP3    H230349   2.090   6.723   1.954 -0.2760  0.2367  1.7038
 2052TIP3   OH230350   6.290   1.346   0.302  0.0140 -0.1178  0.1603
 2052TIP3    H130351   6.308   1.277   0.239  1.1894 -0.6267  1.0113
 2052TIP3    H230352   6.377   1.370   0.336 -0.1764  2.7419 -1.0830
 2053TIP3   OH230353   2.892   4.300   6.760 -0.0689  0.0099  0.3207
 2053TIP3    H130354   2.827   4.234   6.736 -0.1267 -0.2951  1.2746
 2053TIP3    H230355   2.953   4.253   6.817  1.3090  0.1391 -0.9715
 2054TIP3   OH230356   2.043   1.543   7.361 -0.2807 -0.8758  0.3606
 2054TIP3    H130357   1.985   1.561   7.287  0.4828  1.1594  0.1778
 2054TIP3    H230358   2.123   1.592   7.341 -0.3229  0.3898  2.8488
 2055TIP3   OH230359   6.462   1.602   7.766  0.1045  0.4081 -0.1364
 2055TIP3    H130360   6.463   1.506   7.774  1.8154  0.4721  0.8137
 2055TIP3    H230361   6.508   1.619   7.684  0.5582  0.4504  0.1284
 2056TIP3   OH230362   1.166   7.307   7.922  0.0508 -0.2349 -0.0979
 2056TIP3    H130363   1.201   7.371   7.861  0.2246 -1.2610 -1.0950
 2056TIP3    H230364   1.075   7.335   7.937  0.5356  1.0342  0.5964
 2057TIP3   OH230365   3.302   3.253   8.231  0.1799  0.0104 -0.3606
 2057TIP3    H130366   3.210   3.265   8.210  0.3880 -0.4658 -1.6656
 2057TIP3    H230367   3.302   3.199   8.310 -0.6573  1.0367  0.3543
 2058TIP3   OH230368   6.704   0.991   6.207 -0.2092 -0.2170  0.6267
 2058TIP3    H130369   6.722   0.956   6.120 -2.4593  0.8563 -0.3802
 2058TIP3    H230370   6.744   0.929   6.268  0.7890 -1.3881 -1.1540
 2059TIP3   OH230371   5.693   4.129   8.878 -0.1024  0.0674 -0.0871
 2059TIP3    H130372   5.753   4.144   8.951 -0.0337 -0.6228 -0.0011
 2059TIP3    H230373   5.676   4.035   8.878 -0.4283  0.1144 -0.7084
 2060TIP3   OH230374   5.588   0.525   8.530  0.1199  0.0328 -0.2622
 2060TIP3    H130375   5.541   0.482   8.458 -0.3603  0.6837 -0.3488
 2060TIP3    H230376   5.528   0.520   8.604 -0.4640  1.5802 -0.5841
 2061TIP3   OH230377   1.412   3.613   9.212  0.2029  0.3142  0.0045
 2061TIP3    H130378   1.425   3.692   9.161 -0.6760  0.6485  0.2828
 2061TIP3    H230379   1.333   3.630   9.263  1.2274  0.1343  1.7300
 2062TIP3   OH230380   5.420   2.963   8.737 -0.1145 -0.0182 -0.4816
 2062TIP3    H130381   5.400   2.936   8.827  0.4542  1.1694  0.0255
 2062TIP3    H230382   5.378   3.049   8.729  1.8808  1.0047 -0.5069
 2063TIP3   OH230383   2.129   2.095   8.691  0.0125  0.2891 -0.0668
 2063TIP3    H130384   2.170   2.028   8.636 -0.5431 -1.9919  2.0719
 2063TIP3    H230385   2.039   2.063   8.703 -0.7804  2.3327 -0.2895
 2064TIP3   OH230386   2.517   1.387   1.369 -0.4065 -0.3490  0.0637
 2064TIP3    H130387   2.516   1.295   1.342  1.6106 -0.3562 -0.1573
 2064TIP3    H230388   2.607   1.416   1.352 -0.8785  1.5471  0.5480
 2065TIP3   OH230389   6.259   5.337   9.075 -0.1495 -0.0592  0.3968
 2065TIP3    H130390   6.256   5.265   9.138  0.0529  0.0520  0.5365
 2065TIP3    H230391   6.285   5.296   8.993  0.7977 -0.0265  0.6627
 2066TIP3   OH230392   2.520   1.171   8.441  0.4361  0.2196 -0.5519
 2066TIP3    H130393   2.452   1.209   8.386  0.1290 -0.4975 -0.6752
 2066TIP3    H230394   2.505   1.208   8.527 -0.6117 -0.5359 -0.3935
 2067TIP3   OH230395   3.778   3.455   1.464 -0.4881  0.2357 -0.4271
 2067TIP3    H130396   3.869   3.462   1.491 -0.6417  1.3455 -0.1807
 2067TIP3    H230397   3.781   3.434   1.371  0.0130  1.6154 -0.7298
 2068TIP3   OH230398   6.096   5.139   1.289 -0.7891  0.6783  0.5538
 2068TIP3    H130399   6.126   5.104   1.372 -0.8478 -1.1567 -0.1504
 2068TIP3    H230400   6.032   5.076   1.257 -0.6393  1.2374 -0.9679
 2069TIP3   OH230401   4.657   6.925   6.651 -0.2325  0.1485  0.0150
 2069TIP3    H130402   4.614   7.010   6.660 -1.1530 -0.0574 -1.8609
 2069TIP3    H230403   4.617   6.871   6.719 -1.1075  0.6756 -0.0648
 2070TIP3   OH230404   5.370   4.981   0.717 -0.3069 -0.1406  0.5369
 2070TIP3    H130405   5.395   4.930   0.639 -1.1784  0.8136 -0.3928
 2070TIP3    H230406   5.318   5.054   0.683 -1.1541  0.0163  2.0690
 2071TIP3   OH230407   0.971   7.182   8.928 -0.0762 -0.0663  0.0379
 2071TIP3    H130408   0.961   7.275   8.947  0.7225  0.4819 -1.9359
 2071TIP3    H230409   1.030   7.179   8.853 -1.1867 -2.0983 -0.8466
 2072TIP3   OH230410   0.530   5.284   6.111 -0.4906 -0.0916 -0.1479
 2072TIP3    H130411   0.553   5.207   6.060 -2.5000 -0.4354 -0.6107
 2072TIP3    H230412   0.491   5.249   6.191  0.2228  0.4567  0.4518
 2073TIP3   OH230413   1.665   2.564   7.867  0.3661 -0.1365  0.4387
 2073TIP3    H130414   1.583   2.515   7.861  0.3357 -0.0038 -0.3581
 2073TIP3    H230415   1.645   2.639   7.922  0.3837 -0.9590  1.5858
 2074TIP3   OH230416   4.860   5.577   2.011 -0.2076 -0.2969  0.0734
 2074TIP3    H130417   4.792   5.511   2.023  0.7461 -1.5110 -0.8437
 2074TIP3    H230418   4.861   5.594   1.917 -0.6914  1.3477  0.3356
 2075TIP3   OH230419   5.272   6.105   1.807 -0.0147  0.3845  0.6096
 2075TIP3    H130420   5.329   6.028   1.806 -1.5557 -0.8112 -0.2894
 2075TIP3    H230421   5.253   6.121   1.714 -1.1177  0.7558  0.8864
 2076TIP3   OH230422   1.179   3.857   9.662 -0.3129 -0.2916  0.2054
 2076TIP3    H130423   1.101   3.868   9.715 -0.3374  0.1633  0.0832
 2076TIP3    H230424   1.148   3.810   9.584 -0.4955  0.0057  0.0948
 2077TIP3   OH230425   2.861   3.905   2.960 -0.1650  0.1797 -0.6779
 2077TIP3    H130426   2.939   3.955   2.936  0.9306 -1.8627 -1.6819
 2077TIP3    H230427   2.851   3.918   3.054 -0.7807  3.3233 -1.0888
 2078TIP3   OH230428   1.938   1.549   1.717  0.0132  0.0456 -0.3439
 2078TIP3    H130429   2.024   1.515   1.693 -0.7676 -0.7142 -2.3062
 2078TIP3    H230430   1.877   1.484   1.682 -1.4243  1.6002 -0.8426
 2079TIP3   OH230431   7.184   3.266   2.423  0.5456  0.0187 -0.1293
 2079TIP3    H130432   7.212   3.177   2.402  0.6822 -0.4981  1.9877
 2079TIP3    H230433   7.150   3.301   2.341  1.9933 -1.4079 -1.3881
 2080TIP3   OH230434   4.691   7.181   2.677 -0.3249  0.4284 -0.7094
 2080TIP3    H130435   4.623   7.243   2.653 -1.0366  0.3048  0.8665
 2080TIP3    H230436   4.666   7.099   2.634 -1.6272  0.1801  0.4720
 2081TIP3   OH230437   2.088   7.130   1.823 -0.1544 -0.1385 -0.0858
 2081TIP3    H130438   2.121   7.216   1.849  1.0561 -0.3388 -0.8992
 2081TIP3    H230439   2.095   7.129   1.728 -0.0454 -1.1731 -0.0795
 2082TIP3   OH230440   3.267   0.787   9.152 -0.0503 -0.0694 -0.3973
 2082TIP3    H130441   3.208   0.813   9.222  1.0011 -1.2782  0.9919
 2082TIP3    H230442   3.283   0.694   9.168 -0.7056 -0.7024 -2.9578
 2083TIP3   OH230443   1.091   5.828   8.034  0.1685  0.0772  0.1522
 2083TIP3    H130444   1.156   5.872   8.088  2.8382 -3.4269  0.1493
 2083TIP3    H230445   1.104   5.734   8.052 -5.0010 -0.9449  0.1681
 2084TIP3   OH230446   0.733   2.430   9.406 -0.2208  0.0885  0.7954
 2084TIP3    H130447   0.755   2.402   9.317  0.1120  0.2949  0.8090
 2084TIP3    H230448   0.638   2.437   9.407 -0.3433 -1.3158  0.8726
 2085TIP3   OH230449   4.473   2.790   0.079 -0.0312 -0.3669 -0.4786
 2085TIP3    H130450   4.379   2.770   0.081  0.0391 -0.7310 -0.7596
 2085TIP3    H230451   4.477   2.885   0.063 -0.3527 -0.3202 -0.2864
 2086TIP3   OH230452   7.264   2.053   9.651 -0.1156  0.0884 -0.3103
 2086TIP3    H130453   7.352   2.071   9.684  0.3633 -2.1986 -0.1655
 2086TIP3    H230454   7.256   2.109   9.573  1.7360 -0.1258 -0.7091
 2087TIP3   OH230455   3.825   5.602   6.676 -0.0963  0.0946 -0.2429
 2087TIP3    H130456   3.791   5.684   6.642  0.4574  0.3115 -0.2864
 2087TIP3    H230457   3.874   5.627   6.754 -0.6751 -0.3022  0.2507
 2088TIP3   OH230458   0.875   7.155   0.120 -0.0998 -0.4021  0.1895
 2088TIP3    H130459   0.812   7.223   0.098  0.6872  0.7241  1.2929
 2088TIP3    H230460   0.961   7.197   0.112  0.4444 -1.4198  0.3707
 2089TIP3   OH230461   5.896   3.614   7.060 -0.5454  0.0152  0.2550
 2089TIP3    H130462   5.896   3.709   7.051 -0.1615 -0.0001  0.0819
 2089TIP3    H230463   5.836   3.583   6.991 -0.5180  0.1192  0.1856
 2090TIP3   OH230464   2.226   5.083   1.361  0.1145  0.0359 -0.2672
 2090TIP3    H130465   2.297   5.077   1.296 -1.5157  0.4414 -2.1865
 2090TIP3    H230466   2.236   5.003   1.414  1.7421 -0.1143 -0.7428
 2091TIP3   OH230467   4.925   4.987   0.965 -0.4094  0.1259 -0.2324
 2091TIP3    H130468   4.871   4.914   0.996  1.1296 -0.5842  0.9012
 2091TIP3    H230469   4.864   5.060   0.954 -1.5599 -0.5770  1.2634
 2092TIP3   OH230470   2.734   0.530   8.142 -0.0216 -0.3239 -0.2091
 2092TIP3    H130471   2.666   0.543   8.075 -0.2072  1.0132  0.1996
 2092TIP3    H230472   2.781   0.613   8.145  0.6241 -0.7011  0.6212
 2093TIP3   OH230473   5.220   0.428   9.491 -0.1388 -0.1290  0.1597
 2093TIP3    H130474   5.218   0.405   9.584 -0.0794  2.8943  1.0131
 2093TIP3    H230475   5.131   0.411   9.460 -0.1925 -1.0478  0.7819
 2094TIP3   OH230476   4.997   0.585   7.835  0.0819  0.3645  0.3466
 2094TIP3    H130477   4.920   0.542   7.799  0.2035  0.4354  0.0044
 2094TIP3    H230478   5.049   0.611   7.759 -0.3363  1.7784  0.5266
 2095TIP3   OH230479   0.442   2.284   8.311 -0.4669 -0.2494 -0.1903
 2095TIP3    H130480   0.436   2.191   8.330  0.6495 -0.5450 -1.1978
 2095TIP3    H230481   0.354   2.308   8.280  0.1688 -1.9146 -3.8474
 2096TIP3   OH230482   1.822   3.885   1.562  0.1887  0.1480 -0.5587
 2096TIP3    H130483   1.840   3.804   1.516 -0.0919 -0.6833  0.7309
 2096TIP3    H230484   1.736   3.913   1.529 -0.5309 -1.0367  0.2299
 2097TIP3   OH230485   7.075   7.392   9.511  0.2260 -0.2653  0.2925
 2097TIP3    H130486   7.093   7.436   9.427 -0.8418  2.6566  1.4389
 2097TIP3    H230487   7.154   7.408   9.563  0.4639 -1.1622  0.2233
 2098TIP3   OH230488   0.144   6.291   7.702 -0.2009 -0.0558  0.6377
 2098TIP3    H130489   0.185   6.372   7.672  1.3770 -1.2999 -0.6841
 2098TIP3    H230490   0.212   6.248   7.754 -0.1374 -1.6805 -0.7443
 2099TIP3   OH230491   5.366   0.809   7.133 -0.0166 -0.6033  0.3347
 2099TIP3    H130492   5.424   0.745   7.091 -1.3101 -1.0819 -0.7941
 2099TIP3    H230493   5.396   0.894   7.099  0.4760 -0.7761  0.3312
 2100TIP3   OH230494   6.183   2.071   8.705 -0.0418  0.2836  0.4634
 2100TIP3    H130495   6.251   2.103   8.647  0.5394 -0.6627  0.6093
 2100TIP3    H230496   6.118   2.141   8.706 -0.2258  0.2043 -1.5647
 2101TIP3   OH230497   0.030   1.744   0.514  0.4586 -0.0862  0.4682
 2101TIP3    H130498   0.014   1.718   0.423 -0.5041 -0.3131  0.6884
 2101TIP3    H230499   0.101   1.687   0.543 -0.2437 -1.0832  0.3056
 2102TIP3   OH230500   0.875   2.204   7.401  0.3033 -0.2923 -0.2044
 2102TIP3    H130501   0.829   2.248   7.329  2.0170 -0.4848 -1.4740
 2102TIP3    H230502   0.919   2.274   7.448 -0.4722 -0.2167  0.4407
 2103TIP3   OH230503   1.483   7.361   9.050 -0.2750  0.7059 -0.0824
 2103TIP3    H130504   1.435   7.351   8.967  0.3695 -2.9413 -0.1961
 2103TIP3    H230505   1.415   7.360   9.117 -0.6436 -0.6633 -0.4313
 2104TIP3   OH230506   2.302   6.930   0.618 -0.0097  0.3142  0.2674
 2104TIP3    H130507   2.350   7.012   0.629  0.1435  0.1575  0.7623
 2104TIP3    H230508   2.210   6.954   0.627  0.1113  0.1412  2.2744
 2105TIP3   OH230509   1.613   1.144   1.678  0.1054  0.2997  0.7808
 2105TIP3    H130510   1.640   1.054   1.664 -2.1166 -0.4431  0.8134
 2105TIP3    H230511   1.529   1.151   1.633  1.4242  3.1789 -1.5233
 2106TIP3   OH230512   4.950   6.039   7.814 -0.3671  0.1601  0.1580
 2106TIP3    H130513   4.857   6.018   7.825 -0.5877  0.2655 -1.2929
 2106TIP3    H230514   4.996   5.970   7.862 -1.1806 -0.5659 -0.0852
 2107TIP3   OH230515   0.345   6.776   7.143  0.2980  0.1801 -0.4044
 2107TIP3    H130516   0.260   6.814   7.122  0.4638 -0.0671 -1.5901
 2107TIP3    H230517   0.406   6.818   7.083  1.0167  0.3343  0.4187
 2108TIP3   OH230518   7.267   4.370   8.249  0.7230  0.2424  0.0981
 2108TIP3    H130519   7.194   4.318   8.216  1.3599 -1.2194  0.9236
 2108TIP3    H230520   7.315   4.311   8.306  1.0458  1.9768  1.7011
 2109TIP3   OH230521   1.157   5.487   2.993  0.1798  0.1042 -0.1186
 2109TIP3    H130522   1.080   5.454   3.039  0.0396  0.5559 -0.0188
 2109TIP3    H230523   1.127   5.508   2.905 -0.3998  2.4384  0.5628
 2110TIP3   OH230524   6.273   4.381   2.800 -0.2219  0.2223  0.2891
 2110TIP3    H130525   6.218   4.396   2.723 -3.0445  1.2335  2.3561
 2110TIP3    H230526   6.332   4.457   2.802  0.9719 -0.5576 -1.5910
 2111TIP3   OH230527   0.291   5.720   6.831 -0.2182  0.1339  0.2285
 2111TIP3    H130528   0.295   5.795   6.772  0.6234 -0.1439 -0.0936
 2111TIP3    H230529   0.209   5.731   6.879  0.6250  2.0685  1.2971
 2112TIP3   OH230530   1.309   5.129   0.336 -0.1716 -0.4049 -0.4375
 2112TIP3    H130531   1.355   5.053   0.301 -0.3975  0.2447 -2.2510
 2112TIP3    H230532   1.217   5.110   0.320 -0.2887 -0.0978 -0.1361
 2113TIP3   OH230533   4.731   0.155   8.165  0.2726  0.1300  0.0522
 2113TIP3    H130534   4.741   0.142   8.259 -0.7318 -1.2077  0.0076
 2113TIP3    H230535   4.647   0.201   8.156  0.3332  0.1958 -0.1977
 2114TIP3   OH230536   5.316   5.486   8.746 -0.3613  0.3948 -0.1816
 2114TIP3    H130537   5.350   5.483   8.657  2.4409  0.3558  0.8056
 2114TIP3    H230538   5.365   5.557   8.788  1.2479 -2.0306  2.3425
 2115TIP3   OH230539   1.393   0.418   0.045 -0.1431  0.6814  0.1449
 2115TIP3    H130540   1.304   0.406   0.079 -0.4805  0.5810 -0.7358
 2115TIP3    H230541   1.450   0.384   0.114 -0.8468 -0.5567  0.1522
 2116TIP3   OH230542   4.127   4.027   6.496  0.2334 -0.2315 -0.0269
 2116TIP3    H130543   4.222   4.036   6.486  0.2711 -0.6771 -0.0850
 2116TIP3    H230544   4.115   3.974   6.574  0.0615 -0.9310 -0.5149
 2117TIP3   OH230545   2.339   5.337   6.866 -0.4533 -0.0267 -0.1047
 2117TIP3    H130546   2.313   5.426   6.892  0.3712 -0.1220  1.1421
 2117TIP3    H230547   2.256   5.292   6.849 -1.0236  0.3048  1.6057
 2118TIP3   OH230548   2.769   6.903   8.373  0.1775  0.1966  0.1031
 2118TIP3    H130549   2.846   6.846   8.366 -0.0212  0.0515 -1.2010
 2118TIP3    H230550   2.796   6.986   8.334 -0.3711  0.0836 -0.5450
 2119TIP3   OH230551   3.163   0.581   0.712  0.3986 -0.0047  0.5048
 2119TIP3    H130552   3.245   0.587   0.664  0.0895 -1.2750 -0.2347
 2119TIP3    H230553   3.120   0.666   0.698  0.0349 -0.5293 -2.0395
 2120TIP3   OH230554   3.827   0.901   7.654  0.2292 -0.2706  0.2192
 2120TIP3    H130555   3.815   0.823   7.708 -2.1219 -1.8669 -2.3774
 2120TIP3    H230556   3.753   0.958   7.675 -0.0875 -0.4089 -0.4774
 2121TIP3   OH230557   6.482   0.447   1.799  0.8530 -0.7452 -0.2667
 2121TIP3    H130558   6.567   0.464   1.839  0.5575 -0.4962  0.2614
 2121TIP3    H230559   6.440   0.533   1.794 -0.4270 -1.1646  1.9305
 2122TIP3   OH230560   1.281   6.209   8.107 -0.1946  0.8363  0.2747
 2122TIP3    H130561   1.251   6.258   8.030 -1.6716 -0.0811  0.2160
 2122TIP3    H230562   1.356   6.258   8.139 -1.5508  3.1129  0.1915
 2123TIP3   OH230563   3.930   5.928   0.920 -1.2511  0.1778  0.0648
 2123TIP3    H130564   3.914   5.985   0.845 -2.8998  1.9207  1.6378
 2123TIP3    H230565   4.026   5.925   0.928 -1.0914  2.6650 -0.1918
 2124TIP3   OH230566   2.206   6.391   1.647 -0.2378 -0.1119 -0.1003
 2124TIP3    H130567   2.219   6.377   1.740  0.4276 -1.6858 -0.4040
 2124TIP3    H230568   2.215   6.486   1.635 -0.9940  0.1911  1.5042
 2125TIP3   OH230569   6.553   2.770   7.906 -0.2067 -0.7458 -0.1488
 2125TIP3    H130570   6.631   2.715   7.916 -0.0795 -0.6463 -0.5665
 2125TIP3    H230571   6.572   2.825   7.830  0.2846  0.9423  1.1391
 2126TIP3   OH230572   0.760   4.254   0.070 -0.6607 -0.0867  0.7005
 2126TIP3    H130573   0.690   4.298   0.022 -1.3176 -2.5053 -0.7761
 2126TIP3    H230574   0.838   4.267   0.016 -0.8408 -0.5980  0.3004
 2127TIP3   OH230575   3.476   4.379   6.763  0.1468 -0.2967 -0.1212
 2127TIP3    H130576   3.465   4.467   6.726  0.3501 -0.3151 -0.2300
 2127TIP3    H230577   3.408   4.327   6.721  2.1490 -1.0365 -2.7917
 2128TIP3   OH230578   4.208   1.590   9.600 -0.0322 -0.3522 -0.3041
 2128TIP3    H130579   4.159   1.522   9.554  1.5976 -1.3870 -0.5981
 2128TIP3    H230580   4.286   1.545   9.633  1.0444  1.3556 -0.4084
 2129TIP3   OH230581   4.667   1.989   0.231 -0.0519  0.2034  0.3044
 2129TIP3    H130582   4.759   2.015   0.230  0.4916 -1.2156  2.7946
 2129TIP3    H230583   4.619   2.069   0.253  0.8570  0.5493  1.1171
 2130TIP3   OH230584   7.144   5.376   9.256 -0.0467  0.3484  0.2857
 2130TIP3    H130585   7.132   5.281   9.247  2.3298 -0.1396  1.5356
 2130TIP3    H230586   7.137   5.409   9.167 -3.8285 -0.4978  0.0705
 2131TIP3   OH230587   0.102   2.876   2.054 -0.9313 -0.4385 -0.6624
 2131TIP3    H130588   0.023   2.822   2.062  0.6788 -3.1007 -1.4927
 2131TIP3    H230589   0.112   2.889   1.960 -0.2158 -0.4317 -0.5872
 2132TIP3   OH230590   4.151   4.913   0.194  0.3154 -0.5698  0.8721
 2132TIP3    H130591   4.109   4.837   0.153 -0.1817 -0.5286  1.2996
 2132TIP3    H230592   4.223   4.935   0.135 -0.3028 -0.6018  0.0859
 2133TIP3   OH230593   2.245   6.585   7.395  0.3514 -0.7986  0.8270
 2133TIP3    H130594   2.197   6.561   7.473  0.0762  0.6044  1.1191
 2133TIP3    H230595   2.326   6.626   7.428  2.0520 -3.5279  0.3569
 2134TIP3   OH230596   4.820   0.377   7.660 -0.4815 -0.1564 -0.1351
 2134TIP3    H130597   4.757   0.428   7.711  2.3029  0.6233  2.8271
 2134TIP3    H230598   4.850   0.308   7.719  1.1847 -0.7323 -1.5544
 2135TIP3   OH230599   1.323   2.326   1.213 -0.0355 -0.0860 -0.3191
 2135TIP3    H130600   1.364   2.384   1.278 -2.4155 -0.3517  1.5659
 2135TIP3    H230601   1.388   2.321   1.142  1.1309  3.2698  0.2765
 2136TIP3   OH230602   2.678   3.033   1.219 -0.1772 -0.4270  0.1087
 2136TIP3    H130603   2.589   3.065   1.228  0.1326  0.1538  1.5156
 2136TIP3    H230604   2.669   2.938   1.210 -0.9267 -0.3994  0.4847
 2137TIP3   OH230605   3.141   5.250   9.154 -0.0013 -0.0969  0.2749
 2137TIP3    H130606   3.075   5.259   9.085  1.0886 -0.1595 -0.8172
 2137TIP3    H230607   3.091   5.231   9.233 -1.2716 -0.4624 -0.5835
 2138TIP3   OH230608   6.422   3.703   0.262  0.4196 -0.4708  0.2739
 2138TIP3    H130609   6.476   3.741   0.194 -0.9794  0.6796 -0.2483
 2138TIP3    H230610   6.457   3.738   0.344 -0.0550  0.9472 -0.1163
 2139TIP3   OH230611   0.509   0.518   7.001 -0.3608 -0.3845  0.1195
 2139TIP3    H130612   0.566   0.566   6.941  0.9346 -0.8577  0.9267
 2139TIP3    H230613   0.516   0.426   6.973 -1.7386 -0.3089 -0.5561
 2140TIP3   OH230614   3.419   0.563   0.134  0.2594  0.4073 -0.4090
 2140TIP3    H130615   3.343   0.589   0.081  0.3701  0.4079 -0.5701
 2140TIP3    H230616   3.386   0.493   0.190  0.0396  0.6722 -0.2018
 2141TIP3   OH230617   1.424   3.701   1.179 -0.0140  0.0279 -0.4322
 2141TIP3    H130618   1.482   3.737   1.113  0.9745 -0.1385  0.3284
 2141TIP3    H230619   1.355   3.767   1.189  0.5317  0.6487 -0.7005
 2142TIP3   OH230620   2.437   0.842   0.548 -0.4894 -0.9182 -0.6313
 2142TIP3    H130621   2.358   0.810   0.505 -0.8027 -2.6490  1.0931
 2142TIP3    H230622   2.418   0.934   0.568 -0.6663 -0.3140 -3.2590
 2143TIP3   OH230623   4.844   4.937   0.418  0.1257  0.1574 -0.0280
 2143TIP3    H130624   4.825   4.860   0.364 -1.3242 -0.1412  0.8516
 2143TIP3    H230625   4.762   4.987   0.419  0.8686  1.4122 -0.0875
 2144TIP3   OH230626   2.279   4.701   9.137 -0.5509  0.4833  0.2438
 2144TIP3    H130627   2.290   4.774   9.076 -0.9149 -0.1781 -0.6226
 2144TIP3    H230628   2.285   4.742   9.224 -0.2189  1.4606 -0.2239
 2145TIP3   OH230629   0.339   2.338   6.910  0.3229 -0.5394  0.9977
 2145TIP3    H130630   0.393   2.262   6.890 -0.4943 -1.0510  0.6982
 2145TIP3    H230631   0.258   2.302   6.946 -0.4052  0.1436  0.0922
 2146TIP3   OH230632   3.439   1.094   0.400 -0.1043  0.2079  0.2669
 2146TIP3    H130633   3.480   1.140   0.473  1.2669 -0.9439  0.2721
 2146TIP3    H230634   3.345   1.095   0.420  0.1202  1.0667  1.3524
 2147TIP3   OH230635   6.625   1.583   9.400  0.7517 -0.0882 -0.6320
 2147TIP3    H130636   6.684   1.651   9.369 -0.0856  0.0041 -2.0940
 2147TIP3    H230637   6.547   1.630   9.429  0.6392 -0.3509 -0.4988
 2148TIP3   OH230638   5.026   3.151   0.968  1.1522  0.2810  0.3085
 2148TIP3    H130639   5.026   3.211   0.894 -1.0777  0.8827  0.7166
 2148TIP3    H230640   4.992   3.069   0.934 -0.8327  0.8418  0.7794
 2149TIP3   OH230641   5.554   5.050   2.127  0.0313  0.5245 -0.1560
 2149TIP3    H130642   5.547   5.050   2.223 -0.3055  1.0200 -0.1771
 2149TIP3    H230643   5.538   4.959   2.102  0.2491  0.3696  0.2686
 2150TIP3   OH230644   1.616   6.976   7.928 -0.0188  0.6082 -0.0246
 2150TIP3    H130645   1.533   6.982   7.879 -0.8918  0.6580  1.4206
 2150TIP3    H230646   1.636   6.882   7.929 -0.8073  0.4308  0.7921
 2151TIP3   OH230647   3.027   2.086   0.454  0.1825  0.3666 -0.0690
 2151TIP3    H130648   2.968   2.135   0.512 -1.1506 -2.0575  0.7864
 2151TIP3    H230649   3.114   2.097   0.493  0.1022  2.7232 -0.4456
 2152TIP3   OH230650   6.248   3.073   8.334  0.8641  0.9030  0.0469
 2152TIP3    H130651   6.329   3.038   8.370  0.8031  0.4138 -0.2807
 2152TIP3    H230652   6.199   2.996   8.305  0.4028  1.2130 -0.0082
 2153TIP3   OH230653   0.058   3.284   0.826 -0.1691 -0.4500  0.1798
 2153TIP3    H130654   0.016   3.318   0.905  1.9933 -1.3037  1.7789
 2153TIP3    H230655   0.060   3.359   0.766 -3.0256 -0.1246  0.3253
 2154TIP3   OH230656   5.758   4.860   2.403 -0.2339  0.1596  0.4032
 2154TIP3    H130657   5.678   4.912   2.417 -1.6416 -1.9673  0.7579
 2154TIP3    H230658   5.772   4.816   2.487  1.1719  0.2438  0.2367
 2155TIP3   OH230659   5.219   1.759   7.186 -0.5525  0.1290  0.3295
 2155TIP3    H130660   5.285   1.689   7.192 -1.4992 -0.8608 -0.2739
 2155TIP3    H230661   5.181   1.747   7.099 -1.5267  0.6694  0.6759
 2156TIP3   OH230662   1.826   5.706   9.571  0.7141 -0.2288  0.0015
 2156TIP3    H130663   1.744   5.756   9.568  0.2016 -1.0017  0.7393
 2156TIP3    H230664   1.894   5.773   9.577 -0.0024  0.3984  1.7277
 2157TIP3   OH230665   2.379   3.493   9.080  0.4514 -0.4954  0.5165
 2157TIP3    H130666   2.307   3.551   9.057 -0.0040 -1.2687 -0.0465
 2157TIP3    H230667   2.363   3.413   9.030  0.4520 -1.5367  2.0895
 2158TIP3   OH230668   1.214   7.279   7.442  0.1595 -0.5612  0.1823
 2158TIP3    H130669   1.194   7.236   7.359 -0.6168  2.9160 -1.6443
 2158TIP3    H230670   1.307   7.299   7.437  0.2027 -0.7158  0.3559
 2159TIP3   OH230671   1.283   2.116   8.522  0.1411  0.1547  0.4160
 2159TIP3    H130672   1.295   2.023   8.542 -3.1856 -0.7341 -0.9344
 2159TIP3    H230673   1.239   2.151   8.600 -0.6079  0.0292  0.0542
 2160TIP3   OH230674   3.176   7.345   1.400 -0.3239 -0.7281 -0.1135
 2160TIP3    H130675   3.247   7.284   1.423 -0.8562 -1.2426  0.1922
 2160TIP3    H230676   3.197   7.374   1.311  1.9018  1.4444  0.9697
 2161TIP3   OH230677   2.403   2.255   8.407  0.0292  0.0642 -0.1677
 2161TIP3    H130678   2.429   2.337   8.449 -0.0791  0.5145 -0.9646
 2161TIP3    H230679   2.310   2.265   8.389  0.1717  0.0578 -0.9188
 2162TIP3   OH230680   5.452   5.210   7.701 -0.1606 -0.2370 -0.1863
 2162TIP3    H130681   5.487   5.224   7.612 -1.6763 -3.2733 -1.4210
 2162TIP3    H230682   5.528   5.179   7.751  0.2145 -1.0904 -1.2175
 2163TIP3   OH230683   6.104   5.917   9.580 -0.3187  0.1521 -0.0951
 2163TIP3    H130684   6.059   5.836   9.603  0.3504 -0.9464 -2.4207
 2163TIP3    H230685   6.189   5.911   9.624 -0.8944  0.3938  1.0812
 2164TIP3   OH230686   2.115   4.432   8.628 -0.3392  0.4063 -0.0932
 2164TIP3    H130687   2.041   4.397   8.578 -0.3947  0.5164 -0.0888
 2164TIP3    H230688   2.124   4.371   8.702 -0.2047  0.1984 -0.2813
 2165TIP3   OH230689   0.003   2.859   1.791 -0.0634 -0.3659  0.3063
 2165TIP3    H130690   0.029   2.767   1.790  0.9517 -0.0915 -1.0360
 2165TIP3    H230691  -0.060   2.867   1.719 -0.1144 -0.0007  0.3911
 2166TIP3   OH230692   6.534   5.078   9.094  0.2522 -0.0340  0.8005
 2166TIP3    H130693   6.442   5.072   9.119 -0.6245 -0.1245 -2.0524
 2166TIP3    H230694   6.561   4.987   9.080 -0.2983  0.0916 -1.5345
 2167TIP3   OH230695   7.316   3.176   0.176  0.0435 -0.4375  0.0098
 2167TIP3    H130696   7.230   3.143   0.153 -0.8732  2.1857 -0.6341
 2167TIP3    H230697   7.375   3.136   0.112 -0.8520 -1.2809 -0.3163
 2168TIP3   OH230698   6.256   3.770   9.183  0.4140  0.2454 -0.1998
 2168TIP3    H130699   6.314   3.784   9.108  1.4886 -0.6544  0.4299
 2168TIP3    H230700   6.293   3.694   9.228 -1.0639 -0.1371  0.4254
 2169TIP3   OH230701   0.368   4.281   2.274 -0.0258  0.5727 -0.2559
 2169TIP3    H130702   0.380   4.310   2.184  0.5808 -0.4700 -0.5261
 2169TIP3    H230703   0.360   4.362   2.325 -0.3496  1.1720 -1.2300
 2170TIP3   OH230704   5.949   3.761   0.062  0.1896  0.1460  0.7544
 2170TIP3    H130705   5.897   3.799   0.132  0.3730 -0.0097  0.9811
 2170TIP3    H230706   6.011   3.829   0.038  1.1909 -0.3285  1.8588
 2171TIP3   OH230707   5.689   5.640   9.615  0.0759  0.2068  0.3730
 2171TIP3    H130708   5.675   5.578   9.543  0.6824  0.8156 -0.2942
 2171TIP3    H230709   5.605   5.685   9.625 -0.0558  0.0181  0.1373
 2172TIP3   OH230710   3.596   0.251   1.337  0.3497  0.5825  0.3654
 2172TIP3    H130711   3.684   0.283   1.353  0.3952  0.2899  0.7186
 2172TIP3    H230712   3.559   0.238   1.424 -1.2461  3.8700  0.3289
 2173TIP3   OH230713   4.522   3.274   2.375 -0.5617  0.4792 -0.0298
 2173TIP3    H130714   4.540   3.180   2.366 -2.1510  0.2127 -0.8732
 2173TIP3    H230715   4.479   3.282   2.460 -0.3467  0.4623  0.0818
 2174TIP3   OH230716   0.219   3.629   1.374  0.6213 -0.4308  0.2470
 2174TIP3    H130717   0.199   3.646   1.466 -1.0275 -0.5491 -0.0448
 2174TIP3    H230718   0.164   3.553   1.352  1.3688 -0.7154 -0.7058
 2175TIP3   OH230719   3.608   2.068   8.448  0.1654 -0.8961  0.7881
 2175TIP3    H130720   3.672   1.998   8.460  1.1880 -0.0796  0.2359
 2175TIP3    H230721   3.584   2.063   8.356  0.5162 -0.2976  0.6617
 2176TIP3   OH230722   6.308   5.222   8.584  0.2618 -0.3158  0.0075
 2176TIP3    H130723   6.390   5.270   8.580  0.0132  0.0640 -1.3936
 2176TIP3    H230724   6.332   5.135   8.616  0.7585  0.6145  2.3332
 2177TIP3   OH230725   2.322   3.190   7.031 -0.0040 -0.2753 -0.0873
 2177TIP3    H130726   2.296   3.113   6.982 -0.5732  0.6284 -1.2637
 2177TIP3    H230727   2.365   3.246   6.967  1.4195 -0.0774  0.9940
 2178TIP3   OH230728   1.265   1.738   0.011 -0.2799  0.0346 -0.0504
 2178TIP3    H130729   1.280   1.717  -0.081 -0.9428 -0.6328 -0.0064
 2178TIP3    H230730   1.171   1.729   0.024 -0.0527 -1.0727  0.9874
 2179TIP3   OH230731   5.598   2.789   8.524  0.3127 -0.2745  0.3800
 2179TIP3    H130732   5.624   2.699   8.502  1.5127  0.5538 -1.9964
 2179TIP3    H230733   5.664   2.818   8.586  0.0247 -0.9628  1.0254
 2180TIP3   OH230734   4.715   5.973   6.982 -0.3590 -0.9470 -0.6977
 2180TIP3    H130735   4.691   5.943   7.070  1.2211  0.0846  0.1472
 2180TIP3    H230736   4.677   6.061   6.976  2.9970  0.7915  0.7389
 2181TIP3   OH230737   4.884   4.151   6.964  0.2728  0.1000 -0.0162
 2181TIP3    H130738   4.836   4.137   6.882 -1.8661  0.3230  1.1245
 2181TIP3    H230739   4.835   4.100   7.029  1.8810 -0.0210  1.1543
 2182TIP3   OH230740   0.980   4.853   9.468 -0.1501  0.2883  0.0646
 2182TIP3    H130741   0.887   4.835   9.484 -0.0556  0.7483  1.1352
 2182TIP3    H230742   0.980   4.934   9.417 -0.5190 -1.8498 -3.7723
 2183TIP3   OH230743   4.066   6.554   7.857  0.0382 -0.4842  0.6867
 2183TIP3    H130744   4.089   6.637   7.899  0.8227 -1.1467  1.5981
 2183TIP3    H230745   4.024   6.580   7.775  0.3058  0.8116  0.9361
 2184TIP3   OH230746   2.225   1.176   0.056  0.2746  0.0569 -0.4562
 2184TIP3    H130747   2.144   1.176   0.005 -0.0127  0.3230 -0.0053
 2184TIP3    H230748   2.273   1.253   0.024  0.0121  0.3300 -0.1998
 2185TIP3   OH230749   0.062   4.672   0.126  0.1858 -0.1044  0.4217
 2185TIP3    H130750   0.053   4.592   0.178 -0.4635 -0.3152  0.0028
 2185TIP3    H230751   0.074   4.741   0.191  0.7132 -0.5307  0.7911
 2186TIP3   OH230752   5.423   0.316   1.811  0.1246  1.0718  0.1156
 2186TIP3    H130753   5.491   0.327   1.744 -0.6107 -2.5183 -1.4396
 2186TIP3    H230754   5.346   0.357   1.773 -0.2054 -0.6740 -1.2134
 2187TIP3   OH230755   2.720   0.675   1.490  0.2230 -0.5695  0.3751
 2187TIP3    H130756   2.716   0.589   1.533  1.7693 -1.4465 -1.1291
 2187TIP3    H230757   2.638   0.681   1.441 -1.0892 -0.0013  2.5202
 2188TIP3   OH230758   2.809   5.100   0.576 -0.1320  0.2705 -0.1315
 2188TIP3    H130759   2.730   5.117   0.524  0.2752 -0.0035 -0.8529
 2188TIP3    H230760   2.869   5.171   0.552 -0.2562  0.6438  0.6327
 2189TIP3   OH230761   2.907   5.517   8.554  0.1364 -0.4908 -0.2739
 2189TIP3    H130762   2.978   5.580   8.540  0.1718 -0.7572 -1.4186
 2189TIP3    H230763   2.945   5.433   8.528 -0.7647 -0.5500 -1.5105
 2190TIP3   OH230764   3.511   1.752   1.119 -0.2764  0.4915  0.4381
 2190TIP3    H130765   3.502   1.774   1.027 -2.2576 -0.5403  0.3116
 2190TIP3    H230766   3.442   1.687   1.135  1.6544 -1.3520  2.0275
 2191TIP3   OH230767   1.481   2.184   7.675 -0.0071  0.2443 -0.4014
 2191TIP3    H130768   1.527   2.168   7.593 -0.5042 -2.7994 -0.1782
 2191TIP3    H230769   1.539   2.150   7.743 -1.2785 -1.0231  0.1174
 2192TIP3   OH230770   5.492   3.405   9.336 -0.2159  0.1285 -0.1500
 2192TIP3    H130771   5.465   3.463   9.408 -0.8133  0.4744 -0.6489
 2192TIP3    H230772   5.463   3.318   9.365 -2.3746  0.5382 -0.8701
 2193TIP3   OH230773   3.957   1.219   9.376  0.0786 -0.5052  0.1516
 2193TIP3    H130774   3.956   1.136   9.424  2.7102 -0.1459  0.9460
 2193TIP3    H230775   4.023   1.207   9.308  0.5258  0.9472  0.3095
 2194TIP3   OH230776   5.407   3.164   0.266 -0.6748 -0.3288  0.1224
 2194TIP3    H130777   5.403   3.224   0.340  1.1545  1.5073 -1.1465
 2194TIP3    H230778   5.450   3.085   0.301  1.1712  0.9228  0.8169
 2195TIP3   OH230779   5.966   5.527   2.698  0.2416  0.2885  0.3335
 2195TIP3    H130780   5.930   5.535   2.609  1.1413  0.4963 -0.0254
 2195TIP3    H230781   5.928   5.446   2.732  0.0017  0.1238 -0.3013
 2196TIP3   OH230782   3.798   5.628   8.084 -0.0242 -0.3193 -0.4248
 2196TIP3    H130783   3.743   5.557   8.115 -0.5849 -0.0249 -0.7406
 2196TIP3    H230784   3.741   5.682   8.030  0.1713  0.8285  0.4652
 2197TIP3   OH230785   3.642   1.102   8.567  0.0828 -0.1655 -0.1444
 2197TIP3    H130786   3.559   1.148   8.580  0.9477  1.3694  0.1902
 2197TIP3    H230787   3.669   1.076   8.655 -1.0197 -2.5610 -0.4315
 2198TIP3   OH230788   7.010   5.790   8.797 -0.4271  0.6300 -0.6441
 2198TIP3    H130789   7.062   5.814   8.874  0.1730  0.2951 -0.9366
 2198TIP3    H230790   7.060   5.826   8.723 -0.4234 -0.0116 -0.9551
 2199TIP3   OH230791   3.497   6.502   8.412 -0.5213  0.3302 -0.2888
 2199TIP3    H130792   3.505   6.550   8.494  0.5818 -0.4016  0.0590
 2199TIP3    H230793   3.437   6.430   8.432  0.2336 -0.2114  0.0665
 2200TIP3   OH230794   1.062   1.555   7.356 -0.4881 -0.4293  0.7896
 2200TIP3    H130795   1.127   1.501   7.310 -1.1027  0.9900 -1.9461
 2200TIP3    H230796   1.110   1.632   7.385 -0.5460 -0.3211  0.5960
 2201TIP3   OH230797   5.163   7.046   1.817 -0.0115 -0.2522  0.4139
 2201TIP3    H130798   5.095   7.064   1.752  0.1366 -0.5484  0.1733
 2201TIP3    H230799   5.222   7.122   1.812 -0.0098 -0.2675  0.2153
 2202TIP3   OH230800   0.968   2.486   9.536 -0.6603  0.3260 -0.0079
 2202TIP3    H130801   0.999   2.453   9.620 -1.8026  2.5940  1.4238
 2202TIP3    H230802   0.897   2.427   9.512 -1.8415  0.8775  1.8455
 2203TIP3   OH230803   5.802   4.741   1.096  0.2691 -0.3952 -0.0881
 2203TIP3    H130804   5.807   4.645   1.093  0.9590 -0.3958  0.6587
 2203TIP3    H230805   5.778   4.766   1.007  1.3558 -1.2120 -0.6514
 2204TIP3   OH230806   4.788   4.430   2.084  0.4759 -0.1242 -0.1687
 2204TIP3    H130807   4.786   4.383   2.167 -0.5514  0.1274 -0.0295
 2204TIP3    H230808   4.880   4.432   2.059  0.4533 -3.4522 -0.9325
 2205TIP3   OH230809   5.941   6.036   7.581  0.1055  0.1380  0.0745
 2205TIP3    H130810   5.945   5.961   7.640  2.2621  0.2562  0.1431
 2205TIP3    H230811   5.966   6.111   7.635  1.9960  0.2656 -0.8868
 2206TIP3   OH230812   2.134   5.903   0.677 -0.2463 -0.7607  0.0293
 2206TIP3    H130813   2.044   5.874   0.666 -1.0163  1.6122 -0.5241
 2206TIP3    H230814   2.128   5.979   0.735  1.8968 -2.7540  3.1710
 2207TIP3   OH230815   7.034   4.795   1.723 -0.0409  0.0354 -0.4975
 2207TIP3    H130816   7.086   4.870   1.694  1.3002 -0.8026 -0.3801
 2207TIP3    H230817   7.004   4.753   1.642 -2.2040  1.5833 -0.5642
 2208TIP3   OH230818   5.449   5.731   8.822  0.0771 -0.5051 -0.3934
 2208TIP3    H130819   5.380   5.744   8.887 -0.3106  2.0418 -1.1958
 2208TIP3    H230820   5.529   5.762   8.865  0.1149 -0.3729 -0.5571
 2209TIP3   OH230821   6.664   3.056   7.827 -0.3664 -0.1216  0.2534
 2209TIP3    H130822   6.633   3.009   7.750 -0.5293 -0.5959  0.5964
 2209TIP3    H230823   6.665   3.148   7.801 -1.5296 -0.1536  0.0488
 2210TIP3   OH230824   1.951   5.743   0.787 -0.1490 -0.3752 -0.3294
 2210TIP3    H130825   2.019   5.724   0.850  1.1511  2.6370 -0.6423
 2210TIP3    H230826   1.869   5.740   0.837  0.6897  0.4110  1.1300
 2211TIP3   OH230827   2.818   5.010   8.472  0.2092 -0.4485  0.5147
 2211TIP3    H130828   2.811   4.922   8.436 -1.7907 -0.0470 -0.2041
 2211TIP3    H230829   2.858   4.997   8.558  0.1711 -2.0159  0.3303
 2212TIP3   OH230830   2.472   2.711   9.476  0.0639  0.3881 -0.5039
 2212TIP3    H130831   2.427   2.640   9.430 -0.7710  0.5602  0.0229
 2212TIP3    H230832   2.540   2.668   9.527 -1.6858 -0.3265  1.3793
 2213TIP3   OH230833   6.015   1.645   8.903 -0.4534 -0.3403  0.0706
 2213TIP3    H130834   6.057   1.579   8.849 -0.9682  0.3053 -1.1552
 2213TIP3    H230835   5.987   1.713   8.841 -1.2664  0.3093  1.1124
 2214TIP3   OH230836   0.522   3.327   6.709 -0.0217  0.4189  0.8338
 2214TIP3    H130837   0.592   3.348   6.647  0.9414 -0.1119  1.7122
 2214TIP3    H230838   0.458   3.397   6.697 -0.8116 -0.6868 -2.1058
 2215TIP3   OH230839   6.669   4.807   1.118  0.4934 -0.1126  0.1094
 2215TIP3    H130840   6.585   4.806   1.071  0.4861  0.2282  0.1135
 2215TIP3    H230841   6.692   4.900   1.123  1.3652 -0.2645 -0.7853
 2216TIP3   OH230842   3.997   5.519   0.812  0.0697 -0.2124 -0.1799
 2216TIP3    H130843   3.926   5.462   0.781 -0.7042  0.4715  0.2960
 2216TIP3    H230844   4.054   5.460   0.862  0.1005 -0.8616 -0.9573
 2217TIP3   OH230845   0.730   3.794   7.425  0.0521 -0.6144  0.3413
 2217TIP3    H130846   0.699   3.706   7.445 -1.4079 -0.1963  0.0581
 2217TIP3    H230847   0.654   3.850   7.443  1.6306  0.9074  2.8793
 2218TIP3   OH230848   2.593   4.420   0.550  0.0763  0.1723  0.1740
 2218TIP3    H130849   2.684   4.394   0.561  0.3255 -0.0138 -1.9191
 2218TIP3    H230850   2.582   4.495   0.608  1.5879  0.2628  0.3802
 2219TIP3   OH230851   2.323   1.351   0.601  0.3277 -0.1534 -0.1258
 2219TIP3    H130852   2.304   1.392   0.685 -1.4120 -1.9289  0.4293
 2219TIP3    H230853   2.330   1.424   0.539  1.9138  1.2089  1.5438
 2220TIP3   OH230854   5.228   1.415   9.331  0.9122  0.2896 -0.4741
 2220TIP3    H130855   5.267   1.339   9.286 -0.0067 -0.8695  0.6270
 2220TIP3    H230856   5.266   1.490   9.286  2.3871 -0.8027 -1.1682
 2221TIP3   OH230857   6.439   1.210   1.199  0.3855  0.7140 -0.1148
 2221TIP3    H130858   6.351   1.192   1.165  0.8303  0.1395 -1.0008
 2221TIP3    H230859   6.452   1.145   1.267 -0.5283  1.8931  1.2484
 2222TIP3   OH230860   1.895   3.768   1.798  0.0939 -0.2273  0.1227
 2222TIP3    H130861   1.928   3.695   1.746  2.2918  1.1402 -0.5572
 2222TIP3    H230862   1.886   3.840   1.735 -2.5740 -0.0030  0.6557
 2223TIP3   OH230863   5.741   4.436   0.742  0.5414  0.5015  0.1015
 2223TIP3    H130864   5.750   4.462   0.834  0.8701  0.8296 -0.0251
 2223TIP3    H230865   5.662   4.382   0.741  1.7659 -1.4811  1.0247
 2224TIP3   OH230866   6.064   2.021   7.821 -0.4994  0.1717  0.2355
 2224TIP3    H130867   5.988   2.074   7.844  0.2033  0.9187  0.9294
 2224TIP3    H230868   6.029   1.933   7.808 -1.3796  0.3641  1.1877
 2225TIP3   OH230869   6.050   5.206   0.286 -1.1255 -0.0682 -0.4428
 2225TIP3    H130870   6.064   5.229   0.378 -1.5239  0.0092 -0.3980
 2225TIP3    H230871   5.955   5.195   0.279 -0.9693 -1.4746 -0.5222
 2226TIP3   OH230872   0.248   5.029   2.225 -0.0221 -0.0909  0.3729
 2226TIP3    H130873   0.216   4.951   2.270  1.4118 -0.5038  0.7408
 2226TIP3    H230874   0.344   5.021   2.228  0.1450  0.6485 -1.3787
 2227TIP3   OH230875   6.860   1.291   1.804 -0.2533 -0.0506 -0.0026
 2227TIP3    H130876   6.931   1.318   1.746  0.4290  0.5531  1.0791
 2227TIP3    H230877   6.815   1.373   1.826 -0.7798 -0.3303 -0.0448
 2228TIP3   OH230878   0.978   6.750   7.917  0.1769  0.2455  0.0575
 2228TIP3    H130879   0.978   6.842   7.893  1.3284  0.7925  1.9173
 2228TIP3    H230880   0.896   6.736   7.963 -0.9321 -0.2146 -1.9542
 2229TIP3   OH230881   0.256   7.396   7.873  0.4686  0.6284 -0.3726
 2229TIP3    H130882   0.292   7.479   7.843 -0.1527  1.2228  0.4850
 2229TIP3    H230883   0.309   7.330   7.829  0.2685  1.4474 -1.9500
 2230TIP3   OH230884   2.681   6.798   0.381 -0.1493 -0.0635 -0.5228
 2230TIP3    H130885   2.639   6.716   0.357 -0.6765 -0.2652  0.9601
 2230TIP3    H230886   2.707   6.786   0.473 -0.5182  1.5220 -0.1720
 2231TIP3   OH230887   3.530   5.480   2.361  0.0390  0.0687 -0.0125
 2231TIP3    H130888   3.576   5.560   2.387 -0.6218  1.0983 -1.7885
 2231TIP3    H230889   3.501   5.441   2.443  2.4071  0.3823  1.0460
 2232TIP3   OH230890   6.229   1.590   1.888 -0.0063 -0.2754 -0.3476
 2232TIP3    H130891   6.163   1.535   1.930 -0.6308 -1.7794 -3.0683
 2232TIP3    H230892   6.309   1.574   1.938 -1.1250 -0.2627  1.5370
 2233TIP3   OH230893   1.269   0.031   1.430 -0.0979 -1.2273 -0.3457
 2233TIP3    H130894   1.260   0.096   1.500  2.7487 -0.8110 -0.2737
 2233TIP3    H230895   1.199  -0.033   1.448 -2.0480  0.9989  0.4177
 2234TIP3   OH230896   0.074   2.005   8.684  0.4716 -0.7338  0.4805
 2234TIP3    H130897   0.147   2.043   8.635 -0.3376  0.5473  0.2295
 2234TIP3    H230898  -0.004   2.051   8.652 -0.3399 -1.4102  1.4027
 2235TIP3   OH230899   1.251   0.822   2.222 -0.5149  0.0235 -0.3120
 2235TIP3    H130900   1.160   0.795   2.209 -1.2942  0.3545  3.2936
 2235TIP3    H230901   1.296   0.741   2.247  0.1011 -0.0487 -1.6032
 2236TIP3   OH230902   1.564   6.130   0.315  0.7533  0.0770  0.0578
 2236TIP3    H130903   1.536   6.096   0.400  1.2148  2.4002  1.2395
 2236TIP3    H230904   1.659   6.127   0.318  0.8647  2.3279  0.6806
 2237TIP3   OH230905   6.382   1.758   9.482  0.4161 -0.3941  0.4872
 2237TIP3    H130906   6.340   1.828   9.533 -0.8288 -1.6363  1.2284
 2237TIP3    H230907   6.434   1.805   9.417  1.5569  1.2642  2.4403
 2238TIP3   OH230908   6.049   4.721   6.494 -0.3519  0.0829  0.0303
 2238TIP3    H130909   6.052   4.626   6.479  0.4914 -0.2796  2.1233
 2238TIP3    H230910   6.123   4.738   6.552 -0.7564  1.9710  0.0491
 2239TIP3   OH230911   0.342   3.853   7.916 -0.0846  0.0774  0.4968
 2239TIP3    H130912   0.396   3.822   7.989  0.8465  0.9951  0.2306
 2239TIP3    H230913   0.327   3.946   7.934 -0.0670  0.2533 -0.3339
 2240TIP3   OH230914   7.331   0.127   7.296 -0.2608 -0.1464  0.4925
 2240TIP3    H130915   7.301   0.189   7.362  1.1583 -0.7276  1.7372
 2240TIP3    H230916   7.309   0.041   7.333 -0.5922 -0.4504 -0.3879
 2241TIP3   OH230917   1.481   5.196   8.169 -0.7168 -0.2273 -0.0130
 2241TIP3    H130918   1.532   5.150   8.101 -2.0287  0.7878 -1.7655
 2241TIP3    H230919   1.545   5.215   8.237  0.9919 -0.1197 -1.5532
 2242TIP3   OH230920   4.014   5.158   8.623  0.7735  0.5793 -0.2089
 2242TIP3    H130921   4.032   5.113   8.705  1.1426 -0.3030 -0.7566
 2242TIP3    H230922   3.925   5.192   8.633  0.1645 -0.9749 -0.0774
 2243TIP3   OH230923   4.847   5.093   8.480  0.1610  0.0751 -0.0965
 2243TIP3    H130924   4.918   5.126   8.426 -0.3530 -0.8949 -1.4438
 2243TIP3    H230925   4.881   5.093   8.569  2.3216 -1.5167 -0.8428
 2244TIP3   OH230926   7.050   1.217   7.825  0.1889 -0.8399 -0.2979
 2244TIP3    H130927   7.118   1.179   7.881  1.7699  1.7902 -0.2337
 2244TIP3    H230928   7.097   1.282   7.773 -2.1161  0.2706 -1.0833
 2245TIP3   OH230929   3.424   4.749   1.251 -0.1834 -1.0559  0.3055
 2245TIP3    H130930   3.515   4.777   1.255  0.4659 -2.7955 -0.8480
 2245TIP3    H230931   3.405   4.714   1.338  0.0751 -0.2344  0.7004
 2246TIP3   OH230932   6.833   1.550   7.370  0.1314 -0.0710 -0.3390
 2246TIP3    H130933   6.880   1.526   7.291 -1.0168  1.2706 -1.4962
 2246TIP3    H230934   6.827   1.646   7.366 -2.2811 -0.1302 -0.0820
 2247TIP3   OH230935   0.848   1.152   0.969 -0.8760 -0.1321  0.5660
 2247TIP3    H130936   0.769   1.101   0.989 -0.5503  0.2828  3.3823
 2247TIP3    H230937   0.896   1.098   0.906 -2.5079 -1.2696  0.2131
 2248TIP3   OH230938   0.313   1.537   1.573 -0.1291 -0.2234  0.0889
 2248TIP3    H130939   0.370   1.527   1.649  0.8131  0.0738 -0.5638
 2248TIP3    H230940   0.285   1.628   1.576 -0.3590 -0.2992  0.2615
 2249TIP3   OH230941   2.617   0.603   7.896 -0.5097  0.3345 -0.2913
 2249TIP3    H130942   2.685   0.644   7.843 -1.2869  1.8462 -0.1621
 2249TIP3    H230943   2.569   0.676   7.934  0.8668 -0.5717  3.7212
 2250TIP3   OH230944   2.894   5.128   0.986  0.5030  0.1371  0.7115
 2250TIP3    H130945   2.812   5.079   0.987  0.7851 -0.4078 -0.3533
 2250TIP3    H230946   2.870   5.214   0.952  0.4771 -0.2808 -0.3788
 2251TIP3   OH230947   2.497   2.566   8.173 -0.1991  0.4226 -0.1354
 2251TIP3    H130948   2.402   2.576   8.165 -0.2998  0.4948  0.9680
 2251TIP3    H230949   2.508   2.485   8.224  0.3543  0.0767 -0.7801
 2252TIP3   OH230950   2.882   6.367   8.689  0.0182  0.9151  0.2865
 2252TIP3    H130951   2.842   6.282   8.708 -0.5010  0.9932 -0.4113
 2252TIP3    H230952   2.874   6.416   8.771  0.3535  0.2818  0.7042
 2253TIP3   OH230953   2.925   0.912   6.844 -0.0234 -0.8799  0.0765
 2253TIP3    H130954   2.936   0.974   6.773  0.9303 -0.7726  0.2978
 2253TIP3    H230955   2.997   0.933   6.905 -0.7284 -1.0609  0.9918
 2254TIP3   OH230956   1.895   0.185   1.793  0.0388 -0.6438  0.4009
 2254TIP3    H130957   1.905   0.249   1.864  0.5987  0.0257 -0.2685
 2254TIP3    H230958   1.823   0.219   1.739 -0.2422 -1.0402  0.5176
 2255TIP3   OH230959   5.913   3.611   6.763 -0.8458  0.3054 -0.0403
 2255TIP3    H130960   5.930   3.705   6.758 -0.9821  0.2749 -1.7680
 2255TIP3    H230961   5.835   3.603   6.817 -1.4243  1.2774 -0.6986
 2256TIP3   OH230962   2.167   0.220   2.461 -0.6700 -0.0915  0.0685
 2256TIP3    H130963   2.224   0.146   2.438  0.1046  0.1632  1.0798
 2256TIP3    H230964   2.227   0.286   2.495 -1.2287  1.4444 -1.7871
 2257TIP3   OH230965   6.066   1.489   0.186  0.1799 -0.1276 -0.1944
 2257TIP3    H130966   6.015   1.428   0.132  0.7953 -1.3622  0.5651
 2257TIP3    H230967   6.127   1.433   0.233 -0.6152  0.8331  2.1300
 2258TIP3   OH230968   6.068   5.573   1.899  0.0736  0.0056 -0.2616
 2258TIP3    H130969   5.998   5.616   1.849  0.2249 -0.1020 -0.5662
 2258TIP3    H230970   6.147   5.589   1.848  0.6697  1.9710  1.1311
 2259TIP3   OH230971   6.514   6.933   2.119  0.2210 -0.2270  0.0565
 2259TIP3    H130972   6.501   6.839   2.135 -0.8607 -0.4807 -1.9226
 2259TIP3    H230973   6.581   6.936   2.051 -2.2369  0.1357 -2.5665
 2260TIP3   OH230974   4.742   1.780   8.232  0.0502 -0.3215 -0.0075
 2260TIP3    H130975   4.801   1.709   8.255  1.0860  0.1463 -1.1295
 2260TIP3    H230976   4.696   1.749   8.154  0.1964  0.0743 -0.2533
 2261TIP3   OH230977   0.504   0.925   8.362  0.6065  0.2036  0.0203
 2261TIP3    H130978   0.409   0.921   8.373  0.6307 -1.5173 -0.1791
 2261TIP3    H230979   0.517   0.982   8.286 -0.3178 -0.2282 -0.4761
 2262TIP3   OH230980   7.131   5.814   8.083 -0.0604 -0.0446  0.6830
 2262TIP3    H130981   7.092   5.900   8.097 -1.3973 -0.2941 -1.0741
 2262TIP3    H230982   7.209   5.813   8.138 -1.1327  1.4820  2.3428
 2263TIP3   OH230983   5.893   4.578   7.476 -0.2796 -0.1275  0.0947
 2263TIP3    H130984   5.905   4.606   7.567 -3.1350 -2.1619  1.2566
 2263TIP3    H230985   5.851   4.652   7.433 -0.3626  0.2882  0.8740
 2264TIP3   OH230986   5.133   3.391   2.566  0.7687  0.4601 -0.1315
 2264TIP3    H130987   5.070   3.369   2.634 -1.4221 -0.1002 -2.1988
 2264TIP3    H230988   5.213   3.414   2.614 -1.2497  2.2693  2.7254
 2265TIP3   OH230989   7.302   3.911   7.598  0.1968  0.5273 -0.1935
 2265TIP3    H130990   7.236   3.972   7.632  1.0396  1.4636 -0.2091
 2265TIP3    H230991   7.378   3.965   7.580  0.9559 -0.5287 -0.2571
 2266TIP3   OH230992   3.217   3.326   9.556  0.4609 -0.0711  0.6016
 2266TIP3    H130993   3.134   3.367   9.580 -0.0157 -0.7306  0.1300
 2266TIP3    H230994   3.267   3.396   9.515 -0.6719 -0.1234 -0.9611
 2267TIP3   OH230995   6.108   1.767   0.094  0.7560 -0.0538  0.0881
 2267TIP3    H130996   6.181   1.818   0.128  0.1183  0.5638  0.5845
 2267TIP3    H230997   6.113   1.683   0.140  0.9996  0.0834  0.3117
 2268TIP3   OH230998   1.975   4.999   2.409  0.2766 -0.3045  0.2615
 2268TIP3    H130999   1.953   5.085   2.445  0.3250 -0.0677 -0.2534
 2268TIP3    H231000   2.028   5.019   2.331 -1.4762 -0.7141 -1.1055
 2269TIP3   OH231001   1.868   3.379   7.425 -0.2833  0.3378  0.6652
 2269TIP3    H131002   1.963   3.387   7.409 -0.7199  3.0254 -1.1644
 2269TIP3    H231003   1.841   3.306   7.369  0.4938  0.4091  0.1804
 2270TIP3   OH231004   1.856   0.857   7.951 -0.0699  0.0284 -0.2396
 2270TIP3    H131005   1.831   0.936   7.903  0.1066  0.1194 -0.1821
 2270TIP3    H231006   1.784   0.842   8.012  0.4717  0.8620  0.6262
 2271TIP3   OH231007   5.914   5.793   1.781 -0.1992 -0.1352  0.4166
 2271TIP3    H131008   5.834   5.846   1.774 -0.6376 -0.8555 -0.1716
 2271TIP3    H231009   5.958   5.806   1.697  0.7276  0.8867  1.0256
 2272TIP3   OH231010   0.636   1.136   9.633  0.4237  1.3751 -0.2393
 2272TIP3    H131011   0.684   1.063   9.594 -0.0619  1.1757 -0.4739
 2272TIP3    H231012   0.622   1.110   9.724 -2.1178 -0.0826 -0.9595
 2273TIP3   OH231013   1.599   7.332   9.648 -0.5185  0.3199  0.1737
 2273TIP3    H131014   1.619   7.425   9.653  1.1394  0.1129 -1.4823
 2273TIP3    H231015   1.591   7.304   9.739  0.0880  1.8541  0.7264
 2274TIP3   OH231016   4.666   1.616   2.030  0.4585 -0.3504 -0.8002
 2274TIP3    H131017   4.692   1.525   2.044 -1.5155 -0.9369 -0.7254
 2274TIP3    H231018   4.580   1.611   1.988  0.5813  1.4864 -1.3609
 2275TIP3   OH231019   6.626   0.773   1.468  0.6367  0.2056  0.0046
 2275TIP3    H131020   6.681   0.784   1.545 -2.1947  0.9541  2.0671
 2275TIP3    H231021   6.602   0.862   1.442 -0.9254 -0.1254  0.2225
 2276TIP3   OH231022   1.531   0.646   1.028  0.4282  0.0482  0.2549
 2276TIP3    H131023   1.490   0.616   1.109 -0.0075 -0.1871 -0.0416
 2276TIP3    H231024   1.625   0.635   1.042  0.2778 -2.4415 -0.1823
 2277TIP3   OH231025   2.049   0.455   1.752  0.0675 -0.3544  0.1380
 2277TIP3    H131026   1.981   0.440   1.687 -0.9451 -2.8175  1.5976
 2277TIP3    H231027   2.015   0.525   1.807 -0.0562  0.2344 -0.6673
 2278TIP3   OH231028   1.241   1.468   9.203 -0.2978 -0.0778  0.2514
 2278TIP3    H131029   1.327   1.451   9.242 -0.2201 -1.5909 -0.5178
 2278TIP3    H231030   1.182   1.408   9.247 -0.6579 -0.1398 -0.3062
 2279TIP3   OH231031   0.271   5.913   0.123  0.7101  0.3794  0.2146
 2279TIP3    H131032   0.290   6.000   0.088 -0.0024  0.7505  0.7229
 2279TIP3    H231033   0.192   5.885   0.076  1.1279 -0.1447 -0.1891
 2280TIP3   OH231034   6.418   2.887   8.860 -0.0741  0.1525  0.5860
 2280TIP3    H131035   6.403   2.854   8.949 -0.4971  0.6763  0.7154
 2280TIP3    H231036   6.334   2.925   8.835 -0.2405 -0.8239 -0.4060
 2281TIP3   OH231037   1.948   4.186   9.635  0.3437  0.4656  0.3964
 2281TIP3    H131038   1.856   4.205   9.616  0.6999  0.5408 -1.3371
 2281TIP3    H231039   1.988   4.273   9.644  0.4107  0.4354  0.3840
 2282TIP3   OH231040   4.828   3.641   9.041 -0.1195 -0.6573  0.1042
 2282TIP3    H131041   4.832   3.608   8.951  0.7062 -2.3387  0.7027
 2282TIP3    H231042   4.917   3.670   9.060 -0.5208  0.6686  0.0666
 2283TIP3   OH231043   0.572   4.573   2.677  0.0298  0.1318 -0.5455
 2283TIP3    H131044   0.609   4.567   2.765  1.0036 -1.5155 -1.0283
 2283TIP3    H231045   0.482   4.541   2.687  0.5090 -1.2073 -0.3380
 2284TIP3   OH231046   6.722   4.020   7.190  0.0633  0.2298 -0.4518
 2284TIP3    H131047   6.724   3.963   7.113 -0.6971  0.9856 -1.0496
 2284TIP3    H231048   6.689   4.104   7.157 -1.3293  0.2519  0.8906
 2285TIP3   OH231049   2.403   5.800   9.289 -0.2742  0.1839 -0.1233
 2285TIP3    H131050   2.483   5.772   9.246 -0.2878 -0.1126  0.0404
 2285TIP3    H231051   2.335   5.742   9.252 -0.3057  0.0133  0.2026
 2286TIP3   OH231052   5.603   5.640   7.259 -0.7901  0.2206 -0.7161
 2286TIP3    H131053   5.666   5.706   7.228 -1.6763  0.9804 -0.9628
 2286TIP3    H231054   5.543   5.628   7.185 -0.6393 -0.8796 -0.6714
 2287TIP3   OH231055   6.029   5.147   7.763 -0.0411 -0.1321 -0.2575
 2287TIP3    H131056   6.042   5.062   7.721  0.7920 -0.1112 -0.0573
 2287TIP3    H231057   6.117   5.181   7.777 -0.0873 -1.0129  3.3067
 2288TIP3   OH231058   0.609   5.038   9.322 -0.1159  0.5421 -0.1274
 2288TIP3    H131059   0.549   5.112   9.312 -0.5927  0.0311 -1.1698
 2288TIP3    H231060   0.561   4.976   9.377  0.0352  0.7291  0.2219
 2289TIP3   OH231061   4.778   6.332   0.519 -0.0137 -0.0414  0.0218
 2289TIP3    H131062   4.812   6.364   0.436 -0.7287  1.4518  0.2707
 2289TIP3    H231063   4.684   6.346   0.514 -0.0002  0.7732  1.3418
 2290TIP3   OH231064   2.664   2.616   8.772  0.3275 -0.5916 -0.1916
 2290TIP3    H131065   2.644   2.709   8.779 -2.3373 -1.0932 -0.1790
 2290TIP3    H231066   2.624   2.577   8.850  1.7307 -1.7139  0.0061
 2291TIP3   OH231067   6.856   2.932   7.994 -0.1365  0.3598  0.3832
 2291TIP3    H131068   6.807   2.979   7.927  0.6769  1.1658  0.3312
 2291TIP3    H231069   6.846   2.840   7.972 -2.4349  0.4228  0.9423
 2292TIP3   OH231070   4.130   3.334   8.321  0.2735  0.1406  0.0585
 2292TIP3    H131071   4.120   3.410   8.379  0.2373  1.3160 -1.4139
 2292TIP3    H231072   4.052   3.281   8.336  0.8475 -0.2374  1.9530
 2293TIP3   OH231073   5.447   4.003   1.935  0.6445  0.1619 -0.9030
 2293TIP3    H131074   5.517   4.066   1.954  1.7651 -0.6219 -2.3143
 2293TIP3    H231075   5.482   3.918   1.962 -0.4970 -0.0246  0.1079
 2294TIP3   OH231076   6.264   0.706   2.178  0.1369  0.0115 -0.3125
 2294TIP3    H131077   6.236   0.784   2.224  2.0765  0.9104 -0.5661
 2294TIP3    H231078   6.258   0.729   2.085  0.7941 -0.0900 -0.3876
 2295TIP3   OH231079   2.325   6.788   0.968  0.1334  1.1669  0.8664
 2295TIP3    H131080   2.413   6.824   0.972  1.2222 -1.3263  1.0853
 2295TIP3    H231081   2.326   6.730   0.892 -1.5174  1.5302  0.5218
 2296TIP3   OH231082   2.408   5.132   0.509 -0.0117 -0.4801 -0.3905
 2296TIP3    H131083   2.425   5.071   0.581 -1.1780  1.0561  1.2763
 2296TIP3    H231084   2.320   5.110   0.480  0.1138 -0.4985 -0.7619
 2297TIP3   OH231085   5.338   3.096   0.979  0.0745  0.1775 -0.1933
 2297TIP3    H131086   5.365   3.067   1.067 -0.6837 -3.0408 -0.8857
 2297TIP3    H231087   5.259   3.148   0.995 -0.6546 -1.2027  1.0458
 2298TIP3   OH231088   3.439   1.253   9.029  0.3158 -0.0497  0.2180
 2298TIP3    H131089   3.436   1.236   9.123  1.1876 -0.5039  0.1761
 2298TIP3    H231090   3.527   1.225   9.003  0.5112  1.2086 -0.5198
 2299TIP3   OH231091   4.201   6.854   7.291  0.1448  0.5424 -0.1030
 2299TIP3    H131092   4.133   6.920   7.298 -1.7696 -0.9421 -2.9306
 2299TIP3    H231093   4.232   6.859   7.201 -0.1975 -2.4015 -0.5054
 2300TIP3   OH231094   3.214   4.436   8.506 -0.5002  0.1286 -0.3501
 2300TIP3    H131095   3.197   4.372   8.575 -1.4548  0.4264 -0.2991
 2300TIP3    H231096   3.220   4.520   8.552  0.9585  0.0849 -0.3893
 2301TIP3   OH231097   0.190   2.414   8.107 -0.5115 -0.0092 -0.0728
 2301TIP3    H131098   0.253   2.397   8.037 -0.1667  1.6525 -0.2238
 2301TIP3    H231099   0.107   2.430   8.062 -0.3851  0.6299 -0.0944
 2302TIP3   OH231100   2.780   4.315   9.491 -0.3207  0.1626  0.1336
 2302TIP3    H131101   2.784   4.230   9.446 -1.4878 -0.1328  0.5703
 2302TIP3    H231102   2.776   4.293   9.584 -0.4908  0.7108  0.2575
 2303TIP3   OH231103   1.222   3.600   1.459  0.2608  0.1088 -0.2846
 2303TIP3    H131104   1.147   3.579   1.514  1.0563  0.5205  0.9869
 2303TIP3    H231105   1.222   3.696   1.455  1.0570  0.1335  0.2071
 2304TIP3   OH231106   3.293   6.776   8.610 -0.4650 -0.0694 -0.2277
 2304TIP3    H131107   3.347   6.849   8.643 -0.7194  1.1221 -2.2759
 2304TIP3    H231108   3.213   6.781   8.663  0.0359  0.3215  0.5231
 2305TIP3   OH231109   2.903   5.180   1.667  0.0783 -0.1708 -0.2240
 2305TIP3    H131110   2.824   5.170   1.614 -0.0310  0.0361 -0.1027
 2305TIP3    H231111   2.965   5.117   1.630 -0.0661 -0.1730 -0.4651
 2306TIP3   OH231112   1.382   2.049   0.639 -0.1718 -0.8499 -0.1226
 2306TIP3    H131113   1.385   2.137   0.601  0.4875 -0.8741 -0.1430
 2306TIP3    H231114   1.289   2.032   0.655 -0.2044  0.4752  1.3290
 2307TIP3   OH231115   4.028   4.189   8.211 -0.0811 -0.0218  0.4680
 2307TIP3    H131116   4.038   4.257   8.278  1.4204 -0.6645  0.9491
 2307TIP3    H231117   4.050   4.108   8.256 -0.2982 -0.6388 -0.4993
 2308TIP3   OH231118   6.088   2.626   9.607 -0.1269  0.2465 -0.4255
 2308TIP3    H131119   6.122   2.543   9.643 -2.0939 -0.6828 -0.6110
 2308TIP3    H231120   6.167   2.676   9.587  1.1135 -1.1548  0.6678
 2309TIP3   OH231121   5.782   6.245   1.111 -0.3490 -0.1904  0.1346
 2309TIP3    H131122   5.692   6.249   1.145 -0.7944  0.6676 -1.0893
 2309TIP3    H231123   5.831   6.306   1.167  0.2697 -2.9501  2.8912
 2310TIP3   OH231124   2.430   2.652   7.217 -0.6020  0.1616 -0.2897
 2310TIP3    H131125   2.414   2.719   7.151  0.9364  0.1375 -0.7377
 2310TIP3    H231126   2.438   2.700   7.299 -0.7674  0.3891 -0.4062
 2311TIP3   OH231127   1.592   6.082   2.643 -0.5212  0.4328 -0.1742
 2311TIP3    H131128   1.663   6.023   2.616 -1.3044 -0.1930 -0.9309
 2311TIP3    H231129   1.513   6.027   2.641 -1.4601  1.7204 -1.9215
 2312TIP3   OH231130   0.492   2.952   7.200  0.1256 -0.3959  0.0465
 2312TIP3    H131131   0.527   3.038   7.177 -0.0481  0.0888  1.5044
 2312TIP3    H231132   0.520   2.895   7.128  1.5703  0.5464 -0.1841
 2313TIP3   OH231133   0.567   3.269   0.463 -0.2087  0.0528  0.1845
 2313TIP3    H131134   0.626   3.321   0.409  0.0564 -1.3138 -0.8872
 2313TIP3    H231135   0.604   3.275   0.551  0.3614  0.8736 -0.0953
 2314TIP3   OH231136   7.169   1.509   6.996  0.1045  0.0266  0.5396
 2314TIP3    H131137   7.158   1.424   7.039 -0.7755  0.2542  0.7742
 2314TIP3    H231138   7.223   1.489   6.920  1.4023 -0.4435  1.5331
 2315TIP3   OH231139   6.256   5.420   7.872 -0.5305  0.2622  0.7313
 2315TIP3    H131140   6.210   5.404   7.789  0.1775 -2.1820  0.7554
 2315TIP3    H231141   6.202   5.377   7.938  0.4514 -0.3976  1.1176
 2316TIP3   OH231142   2.961   3.869   9.475 -0.0490 -0.0415  0.3331
 2316TIP3    H131143   2.890   3.816   9.439  0.6473  0.1359 -1.3909
 2316TIP3    H231144   2.985   3.824   9.556 -1.9741 -0.2023  0.8800
 2317TIP3   OH231145   2.206   2.184   9.035  0.2742 -0.8790  0.4123
 2317TIP3    H131146   2.259   2.208   8.959 -0.4001 -0.1445  0.1589
 2317TIP3    H231147   2.268   2.178   9.107  0.5536  1.3591  0.4331
 2318TIP3   OH231148   1.058   3.661   1.858  0.2365  0.3082 -0.5884
 2318TIP3    H131149   1.051   3.648   1.953  0.7396  2.0363 -0.2875
 2318TIP3    H231150   1.109   3.741   1.848 -0.7521  0.7751 -2.3152
 2319TIP3   OH231151   2.829   4.666   7.009 -0.0798 -0.1067 -0.3431
 2319TIP3    H131152   2.762   4.602   7.033  1.3735 -2.2327 -1.6288
 2319TIP3    H231153   2.844   4.651   6.916  1.0064  1.4856 -0.4649
 2320TIP3   OH231154   7.217   0.104   0.811  0.3396  0.1135 -0.0771
 2320TIP3    H131155   7.187   0.168   0.747  1.8860 -0.3365 -1.3350
 2320TIP3    H231156   7.189   0.139   0.895 -0.7804  1.2986 -0.9040
 2321TIP3   OH231157   4.701   5.020   7.456  0.3863  0.0103 -0.3781
 2321TIP3    H131158   4.748   5.100   7.434 -1.9557  1.3625 -0.8789
 2321TIP3    H231159   4.616   5.029   7.411 -1.0438 -1.4221  1.8342
 2322TIP3   OH231160   5.970   6.454   9.016  0.5497  0.3127 -0.1826
 2322TIP3    H131161   6.025   6.376   9.028 -1.0346 -1.0027 -1.0213
 2322TIP3    H231162   5.976   6.473   8.922 -0.7674 -0.1578 -0.3829
 2323TIP3   OH231163   4.153   0.921   0.762 -0.3056  0.0011  0.0315
 2323TIP3    H131164   4.204   0.900   0.841 -0.2945  1.3549  0.4022
 2323TIP3    H231165   4.082   0.857   0.762 -0.4881  0.1830  1.3146
 2324TIP3   OH231166   1.020   0.956   0.102  0.1366  0.4121  0.0285
 2324TIP3    H131167   1.014   1.051   0.089  0.3143  0.3468 -0.5546
 2324TIP3    H231168   1.111   0.934   0.083  0.2710  0.2220  0.8610
 2325TIP3   OH231169   1.539   5.687   8.421  0.5045 -0.4140 -0.0639
 2325TIP3    H131170   1.455   5.698   8.376  0.4448  0.4327  0.2372
 2325TIP3    H231171   1.597   5.650   8.354  0.0755 -0.3461 -0.4815
 2326TIP3   OH231172   3.770   3.088   6.725  0.1960  0.0191  0.1986
 2326TIP3    H131173   3.858   3.108   6.757 -0.1477  1.0653  0.5249
 2326TIP3    H231174   3.778   3.087   6.630  0.3944  0.9509  0.2001
 2327TIP3   OH231175   1.554   4.047   7.282  0.1376  0.0864  0.1531
 2327TIP3    H131176   1.462   4.066   7.267  0.2234 -0.0666 -0.6092
 2327TIP3    H231177   1.554   3.974   7.343 -0.2365  0.2186  0.3165
 2328TIP3   OH231178   6.686   1.286   2.107 -0.4239 -0.0570  0.6644
 2328TIP3    H131179   6.710   1.309   2.197 -0.0577  0.1317  0.5219
 2328TIP3    H231180   6.748   1.335   2.052 -0.4014 -0.4602  0.3220
 2329TIP3   OH231181   0.625   5.981   3.109 -0.0112  0.1533 -0.1463
 2329TIP3    H131182   0.539   5.990   3.068 -0.5923  0.5149  1.1163
 2329TIP3    H231183   0.630   5.890   3.136 -0.2482  0.2844  0.3333
 2330TIP3   OH231184   2.873   6.463   8.072  0.0405  0.4008  0.0882
 2330TIP3    H131185   2.854   6.535   8.012  0.0525 -0.0771 -0.5000
 2330TIP3    H231186   2.787   6.430   8.097  0.0226  1.0516  0.8924
 2331TIP3   OH231187   2.431   1.820   1.026 -0.4442 -0.5058 -0.3634
 2331TIP3    H131188   2.339   1.818   0.999 -0.0563 -1.7953 -1.7597
 2331TIP3    H231189   2.476   1.768   0.959  1.9315  3.2062 -1.9917
 2332TIP3   OH231190   4.112   5.010   7.372 -0.2816  0.2193  0.1008
 2332TIP3    H131191   4.019   5.034   7.376 -0.3904 -0.2505  0.3409
 2332TIP3    H231192   4.126   4.955   7.449 -0.0823 -0.6762 -0.5586
 2333TIP3   OH231193   5.072   7.388   2.132 -0.2018 -0.7447  0.1231
 2333TIP3    H131194   5.010   7.400   2.060 -2.9661 -0.7037  2.3261
 2333TIP3    H231195   5.081   7.293   2.140  1.4204 -0.7475 -1.2233
 2334TIP3   OH231196   1.272   4.152   0.932 -0.5403  0.0271 -0.0466
 2334TIP3    H131197   1.328   4.230   0.927  0.1387 -0.3162  1.4335
 2334TIP3    H231198   1.268   4.133   1.026 -1.7190 -0.9983 -0.2924
 2335TIP3   OH231199   4.547   5.273   9.041  0.0007  0.1446  0.4850
 2335TIP3    H131200   4.572   5.217   8.967 -0.3200  3.1739 -2.1495
 2335TIP3    H231201   4.467   5.233   9.076 -0.0594 -1.2032 -1.0667
 2336TIP3   OH231202   7.308   5.428   1.487 -0.0325  0.1904  0.4162
 2336TIP3    H131203   7.223   5.455   1.522 -0.1747 -1.3908  1.3901
 2336TIP3    H231204   7.298   5.436   1.392 -0.3162  2.6451  0.5807
 2337TIP3   OH231205   1.337   0.062   7.108  1.1779 -0.0981  0.8115
 2337TIP3    H131206   1.307   0.123   7.041 -0.8305 -1.5897  0.2481
 2337TIP3    H231207   1.279   0.079   7.182  0.4424 -1.4238  0.5634
 2338TIP3   OH231208   5.289   5.209   0.592 -0.3299  0.5011  0.4125
 2338TIP3    H131209   5.334   5.237   0.512  1.4647 -2.3775  0.2649
 2338TIP3    H231210   5.290   5.287   0.648  0.9057  1.8107 -1.3079
 2339TIP3   OH231211   6.516   1.901   9.321 -0.4550  0.2484  0.4654
 2339TIP3    H131212   6.569   1.980   9.335 -0.8153  0.4570  0.6594
 2339TIP3    H231213   6.544   1.868   9.236 -0.3178  0.5963  0.3762
 2340TIP3   OH231214   4.171   3.898   9.195  0.6448 -0.2210  0.4961
 2340TIP3    H131215   4.139   3.809   9.208  1.4972 -0.9417 -1.8515
 2340TIP3    H231216   4.102   3.941   9.144  1.2554 -0.3048 -0.4308
 2341TIP3   OH231217   0.712   0.890   8.120 -0.1303  0.2554  0.6344
 2341TIP3    H131218   0.743   0.934   8.040  1.8443 -1.5022  0.3582
 2341TIP3    H231219   0.789   0.886   8.176 -0.8394 -0.8901  1.5566
 2342TIP3   OH231220   5.226   2.149   6.986  0.0482 -0.4050  0.0902
 2342TIP3    H131221   5.310   2.191   6.967  0.0211 -0.5597 -0.3849
 2342TIP3    H231222   5.209   2.093   6.910 -0.3875 -0.5327  0.2755
 2343TIP3   OH231223   6.214   5.160   2.160  0.0265 -0.2312  0.6809
 2343TIP3    H131224   6.140   5.111   2.196 -0.5791  1.4986  1.9268
 2343TIP3    H231225   6.176   5.212   2.089  0.8314 -2.1143 -1.2224
 2344TIP3   OH231226   4.404   0.953   7.835  0.0268 -0.1688 -0.3506
 2344TIP3    H131227   4.350   1.028   7.811  2.1559  0.9594 -1.9460
 2344TIP3    H231228   4.437   0.975   7.922 -1.0302 -0.2920  0.0999
 2345TIP3   OH231229   1.537   4.906   6.961  0.4982  0.4563 -0.0983
 2345TIP3    H131230   1.479   4.837   6.930 -1.0952  1.8691 -0.4040
 2345TIP3    H231231   1.593   4.926   6.885  0.3013  0.1825 -0.3154
 2346TIP3   OH231232   7.242   0.090   8.742  0.4331  0.6634  0.7646
 2346TIP3    H131233   7.312   0.032   8.770  1.5046  0.7626 -1.4578
 2346TIP3    H231234   7.175   0.031   8.707  0.9891  0.6703 -0.3627
 2347TIP3   OH231235   1.340   3.498   0.766  0.2217 -0.6329  0.3955
 2347TIP3    H131236   1.282   3.529   0.836  1.2925  0.1797  0.9541
 2347TIP3    H231237   1.409   3.564   0.761  0.0016 -0.4928 -1.6866
 2348TIP3   OH231238   3.941   0.447   0.697 -0.0068  0.1159 -0.2001
 2348TIP3    H131239   3.992   0.421   0.774 -0.5757 -0.5273 -0.0268
 2348TIP3    H231240   4.000   0.430   0.623 -0.3247 -1.7027 -0.0943
 2349TIP3   OH231241   2.058   2.247   7.655 -0.0410  0.0761  0.4390
 2349TIP3    H131242   1.986   2.190   7.626  0.5205 -1.1049  1.2516
 2349TIP3    H231243   2.018   2.334   7.661 -1.2734 -0.4538  0.3677
 2350TIP3   OH231244   4.794   5.011   2.399  0.0982 -0.5407 -0.0145
 2350TIP3    H131245   4.743   4.930   2.392 -0.4748 -0.1081 -1.0813
 2350TIP3    H231246   4.729   5.081   2.396  0.7055  0.0073 -0.8993
 2351TIP3   OH231247   2.601   4.257   0.045  0.5078  0.6840 -0.4420
 2351TIP3    H131248   2.642   4.286   0.127 -0.1038  3.0398 -0.8751
 2351TIP3    H231249   2.520   4.308   0.041 -0.6601 -1.1794 -1.3672
 2352TIP3   OH231250   3.326   4.432   7.747 -0.2751 -0.6845  0.2802
 2352TIP3    H131251   3.328   4.386   7.831 -0.7591 -0.1820  0.5700
 2352TIP3    H231252   3.250   4.395   7.702 -1.6282  0.9254  1.1559
 2353TIP3   OH231253   1.334   2.772   0.507 -0.8361 -0.3677  0.2299
 2353TIP3    H131254   1.246   2.810   0.511 -1.0144 -0.8268  1.0204
 2353TIP3    H231255   1.337   2.711   0.581  0.6971  0.8070  1.1996
 2354TIP3   OH231256   5.523   5.641   7.962 -0.9381  0.5929  0.1236
 2354TIP3    H131257   5.553   5.581   8.030 -0.4873  1.5537  0.7890
 2354TIP3    H231258   5.507   5.585   7.886  0.8077 -0.2061  0.2931
 2355TIP3   OH231259   1.401   3.717   2.882 -0.2886  0.3373  0.4491
 2355TIP3    H131260   1.411   3.622   2.882 -1.2907  0.1702  2.4999
 2355TIP3    H231261   1.403   3.741   2.975 -3.0955  1.9237  0.2242
 2356TIP3   OH231262   6.865   5.091   1.609 -0.2200  0.0606  0.1738
 2356TIP3    H131263   6.813   5.123   1.682 -0.4460 -0.8237  0.4106
 2356TIP3    H231264   6.874   5.166   1.550 -0.8705  0.5019  0.6357
 2357TIP3   OH231265   7.018   1.217   2.035 -0.4726  0.1542  0.6318
 2357TIP3    H131266   6.997   1.274   1.960 -0.7223 -1.1805 -0.3524
 2357TIP3    H231267   6.974   1.134   2.015  2.1901 -1.3668  0.5545
 2358TIP3   OH231268   4.129   4.509   1.034  0.1002  0.2423 -0.5237
 2358TIP3    H131269   4.206   4.452   1.034  0.2615  0.4542 -0.9210
 2358TIP3    H231270   4.099   4.509   0.943 -0.6568 -0.2114 -0.2810
 2359TIP3   OH231271   4.632   6.842   0.126  0.0955 -0.1014 -0.2400
 2359TIP3    H131272   4.552   6.812   0.167  0.1757 -0.2605 -0.2019
 2359TIP3    H231273   4.659   6.917   0.179 -0.2910  0.2578 -0.5434
 2360TIP3   OH231274   1.574   1.560   8.962 -0.2046 -0.4613 -0.3802
 2360TIP3    H131275   1.660   1.542   8.999 -0.4064 -0.2097  0.2243
 2360TIP3    H231276   1.562   1.655   8.974 -0.8938 -0.6187  0.2780
 2361TIP3   OH231277   4.241   2.698   8.486  0.7507 -0.0620  0.1257
 2361TIP3    H131278   4.258   2.625   8.545 -1.7493 -0.0003  1.0103
 2361TIP3    H231279   4.171   2.667   8.429  3.4667 -0.3764 -3.4370
 2362TIP3   OH231280   2.292   5.483   2.571  0.4094  0.0236 -0.4640
 2362TIP3    H131281   2.237   5.559   2.591  0.7868 -0.5699  3.4668
 2362TIP3    H231282   2.234   5.408   2.583  0.6341 -0.4510 -2.0991
 2363TIP3   OH231283   1.178   4.785   8.046  0.1272  0.9343 -0.3015
 2363TIP3    H131284   1.167   4.696   8.081 -1.2190  0.7518 -1.1366
 2363TIP3    H231285   1.273   4.794   8.033  0.4975  0.3607  1.6585
 2364TIP3   OH231286   5.978   0.100   1.575  0.1592  0.0366 -0.5377
 2364TIP3    H131287   5.905   0.162   1.580  0.9628  0.9530  0.1842
 2364TIP3    H231288   5.948   0.023   1.623 -0.4960  0.2268 -0.6348
 2365TIP3   OH231289   3.439   7.416   9.660 -0.0733 -0.5073  0.2452
 2365TIP3    H131290   3.383   7.380   9.729  1.1333  0.7931  1.9777
 2365TIP3    H231291   3.379   7.449   9.594 -1.3363 -0.0354  1.5946
 2366TIP3   OH231292   5.081   5.507   8.056 -0.4756 -0.3756 -0.3040
 2366TIP3    H131293   5.084   5.532   7.963  0.7717  1.4294  0.1891
 2366TIP3    H231294   4.988   5.513   8.078 -0.7310 -0.3546 -1.2963
 2367TIP3   OH231295   6.854   3.346   1.416  0.4678  0.0036  0.3247
 2367TIP3    H131296   6.915   3.274   1.430 -1.0563 -1.3204  0.4938
 2367TIP3    H231297   6.863   3.368   1.323  2.1221  0.7531  0.6318
 2368TIP3   OH231298   5.557   0.572   8.983 -0.0292  0.3126  0.3145
 2368TIP3    H131299   5.635   0.559   9.038 -0.5822 -1.2974  0.7742
 2368TIP3    H231300   5.493   0.612   9.042 -0.3935 -0.7808  0.6869
 2369TIP3   OH231301   2.237   5.327   1.454 -0.0600 -0.5529  0.1693
 2369TIP3    H131302   2.211   5.235   1.448  1.7900 -1.0877 -0.3610
 2369TIP3    H231303   2.269   5.337   1.544  2.1195 -1.1708 -0.4702
 2370TIP3   OH231304   6.698   6.470   0.487  0.1706  0.6877 -0.0087
 2370TIP3    H131305   6.697   6.563   0.466 -0.7240  0.3091 -1.8567
 2370TIP3    H231306   6.784   6.439   0.456  0.6794  0.9769  1.0815
 2371TIP3   OH231307   4.557   5.930   8.915 -0.1770  0.0184  0.0967
 2371TIP3    H131308   4.633   5.981   8.942  1.8280 -2.3495 -0.6321
 2371TIP3    H231309   4.536   5.876   8.991  1.1163 -1.7522 -0.7343
 2372TIP3   OH231310   7.398   1.489   7.589  0.0505 -0.2195 -0.2041
 2372TIP3    H131311   7.493   1.497   7.574  0.3194 -2.6101 -0.1299
 2372TIP3    H231312   7.362   1.472   7.502 -0.1506 -0.5253 -0.0594
 2373TIP3   OH231313   1.059   6.395   1.062  0.4503 -0.6047  0.1086
 2373TIP3    H131314   1.105   6.324   1.106 -0.2151 -1.7593 -0.9745
 2373TIP3    H231315   1.004   6.434   1.130  0.5629 -1.3524  0.6431
 2374TIP3   OH231316   7.305   5.752   2.318  0.7678 -0.1583 -0.0328
 2374TIP3    H131317   7.313   5.670   2.367 -0.3260  0.1369  0.6710
 2374TIP3    H231318   7.214   5.753   2.286  0.7257  0.8355  0.0793
 2375TIP3   OH231319   4.105   1.098   2.579 -0.0088 -0.6144 -0.2343
 2375TIP3    H131320   4.173   1.122   2.643 -1.5599  1.0391  0.9200
 2375TIP3    H231321   4.154   1.074   2.501  1.9334 -0.3083  0.7999
 2376TIP3   OH231322   6.552   5.582   2.228 -0.3609  0.0246 -0.5353
 2376TIP3    H131323   6.581   5.673   2.220  1.3905 -0.3682  0.5471
 2376TIP3    H231324   6.510   5.562   2.145 -0.8246  1.8340 -0.7721
 2377TIP3   OH231325   0.818   4.122   0.622  0.0086 -0.1366  0.1427
 2377TIP3    H131326   0.787   4.157   0.706  0.1033 -1.2053  0.6398
 2377TIP3    H231327   0.750   4.060   0.596  0.1172 -0.0167 -0.4426
 2378TIP3   OH231328   1.326   4.085   9.663 -0.0393  0.2838  0.6611
 2378TIP3    H131329   1.401   4.026   9.652  0.2134  0.6700  0.2744
 2378TIP3    H231330   1.250   4.027   9.666  0.1029 -0.0069 -0.8280
 2379TIP3   OH231331   6.597   6.211   9.253  0.0572  0.9309  0.5399
 2379TIP3    H131332   6.665   6.231   9.188  1.4740  3.4765  2.6036
 2379TIP3    H231333   6.543   6.290   9.256  1.2404  1.7713  3.7157
 2380TIP3   OH231334   5.113   6.813   9.219 -0.4188  0.1071 -0.3001
 2380TIP3    H131335   5.030   6.818   9.267 -0.4134 -0.8820 -0.1802
 2380TIP3    H231336   5.089   6.783   9.132 -0.0703 -1.4107  0.1030
 2381TIP3   OH231337   1.139   5.075   8.140 -0.2900  0.1645  0.2055
 2381TIP3    H131338   1.160   5.001   8.082  0.0004 -0.2517  0.8379
 2381TIP3    H231339   1.045   5.069   8.153 -0.4572  0.6052 -0.6861
 2382TIP3   OH231340   1.029   3.036   0.082 -0.5142 -0.3311  0.0745
 2382TIP3    H131341   0.948   3.028   0.132 -0.3329  0.6985  0.5703
 2382TIP3    H231342   1.019   3.117   0.032  0.8361  0.7335  1.4158
 2383TIP3   OH231343   4.509   1.008   7.461 -0.4542  0.2467 -0.0245
 2383TIP3    H131344   4.534   1.064   7.388  1.5454 -1.8978 -1.1102
 2383TIP3    H231345   4.567   1.035   7.533  0.0314  0.0110 -0.3282
 2384TIP3   OH231346   3.255   2.858   2.505 -0.1456  0.9150 -0.2627
 2384TIP3    H131347   3.330   2.800   2.518 -1.6082 -1.2738 -1.0411
 2384TIP3    H231348   3.262   2.923   2.576  2.9047  1.3651 -0.8182
 2385TIP3   OH231349   3.281   5.639   9.428  0.1992 -0.4247 -0.4669
 2385TIP3    H131350   3.194   5.673   9.412 -0.3771 -2.1038 -1.1280
 2385TIP3    H231351   3.269   5.544   9.439  1.8408 -0.6082  0.1732
 2386TIP3   OH231352   2.629   3.013   9.634 -0.4739  0.1199  0.1212
 2386TIP3    H131353   2.684   2.972   9.701  0.2228 -1.1876 -1.1855
 2386TIP3    H231354   2.685   3.080   9.596 -1.4911  2.1797  2.0092
 2387TIP3   OH231355   4.326   6.398   7.797 -0.3259  0.5287 -0.7275
 2387TIP3    H131356   4.325   6.478   7.745  0.3597  0.8407 -0.2720
 2387TIP3    H231357   4.234   6.375   7.808 -0.4910  0.4246 -2.1136
 2388TIP3   OH231358   4.120   0.016   7.882  0.1471  0.6162  0.0698
 2388TIP3    H131359   4.166   0.046   7.803 -2.3685  0.4826 -1.5783
 2388TIP3    H231360   4.045   0.075   7.889  0.9078  1.3596  3.1117
 2389TIP3   OH231361   7.056   0.887   0.193 -0.5454 -0.2728 -0.1229
 2389TIP3    H131362   7.068   0.800   0.232 -0.2094 -0.1698  0.0077
 2389TIP3    H231363   6.966   0.910   0.215 -0.1996  0.0097  1.0684
 2390TIP3   OH231364   6.985   0.260   0.464  0.2057 -0.1967  0.0663
 2390TIP3    H131365   7.013   0.179   0.506  2.1745  0.6539  0.4948
 2390TIP3    H231366   6.983   0.240   0.371  0.9959 -0.6480  0.1410
 2391TIP3   OH231367   3.886   1.609   7.604  0.3922 -0.2799  0.1871
 2391TIP3    H131368   3.821   1.600   7.675  0.0797 -1.8081 -0.2552
 2391TIP3    H231369   3.835   1.642   7.530  0.2224 -0.9243  0.0091
 2392TIP3   OH231370   0.481   3.069   6.761  0.3370  0.3340  1.0492
 2392TIP3    H131371   0.394   3.079   6.801  0.1467  1.6678  0.3775
 2392TIP3    H231372   0.511   3.159   6.747  1.5181 -0.1098  0.6020
 2393TIP3   OH231373   6.848   7.331   2.686 -0.2796  0.5921  0.1205
 2393TIP3    H131374   6.893   7.357   2.766 -1.8362  0.7023  1.0078
 2393TIP3    H231375   6.760   7.368   2.695 -0.3652  0.9571 -1.8389
 2394TIP3   OH231376   3.422   1.839   7.701 -0.3909  0.1261 -0.2161
 2394TIP3    H131377   3.402   1.786   7.778  1.2515 -2.5565 -1.4695
 2394TIP3    H231378   3.337   1.859   7.662 -1.1253 -3.1084 -0.5486
 2395TIP3   OH231379   6.992   0.460   7.253  0.3862  0.3611 -0.7793
 2395TIP3    H131380   6.944   0.378   7.256  0.3986  0.3765  0.4382
 2395TIP3    H231381   6.926   0.525   7.228  0.7226 -0.2102 -3.4527
 2396TIP3   OH231382   2.179   3.766   2.079 -0.2112  0.0099 -0.2710
 2396TIP3    H131383   2.268   3.749   2.046 -0.9018 -2.0713 -1.2747
 2396TIP3    H231384   2.192   3.821   2.156  1.9521 -0.2002 -0.4145
 2397TIP3   OH231385   7.288   0.656   1.725  0.5083 -0.3229  0.0181
 2397TIP3    H131386   7.352   0.662   1.655  0.5509 -1.0328 -0.0107
 2397TIP3    H231387   7.340   0.664   1.805  0.9590 -2.8485  0.0753
 2398TIP3   OH231388   2.254   4.068   8.419  0.2732 -0.2059  0.5292
 2398TIP3    H131389   2.288   4.128   8.352  2.4409 -0.4173  1.3777
 2398TIP3    H231390   2.273   3.981   8.385 -0.9538 -0.4042  0.2844
 2399TIP3   OH231391   3.425   1.044   7.583 -0.0534  0.2240 -0.4876
 2399TIP3    H131392   3.331   1.064   7.580 -0.0546  0.1335 -1.0355
 2399TIP3    H231393   3.430   0.964   7.636 -0.3225 -0.0001 -0.8005
 2400TIP3   OH231394   0.722   7.379   9.257 -0.2234  0.6982  0.0884
 2400TIP3    H131395   0.714   7.357   9.164 -1.9815  1.4392  0.0187
 2400TIP3    H231396   0.795   7.440   9.261 -0.1615  0.7026 -0.8276
 2401TIP3   OH231397   4.666   2.026   8.927  0.4635 -0.0712 -0.1275
 2401TIP3    H131398   4.687   1.935   8.945  0.4376  0.1805  1.2312
 2401TIP3    H231399   4.584   2.023   8.878  0.6434 -0.7843 -0.3953
 2402TIP3   OH231400   5.463   1.577   2.257 -0.4685 -0.0627  0.0724
 2402TIP3    H131401   5.396   1.594   2.323  0.2200 -1.1133  1.0736
 2402TIP3    H231402   5.537   1.541   2.306  0.2011 -0.5248 -1.2276
 2403TIP3   OH231403   5.365   0.676   1.138  0.1707  0.0703 -0.3610
 2403TIP3    H131404   5.349   0.644   1.227 -1.3934 -0.2577 -0.7282
 2403TIP3    H231405   5.399   0.765   1.151 -1.4065  0.5794  0.5627
 2404TIP3   OH231406   3.859   4.195   1.629 -0.6545 -0.9150 -0.1710
 2404TIP3    H131407   3.781   4.139   1.631 -0.7598 -0.8143 -1.0862
 2404TIP3    H231408   3.929   4.137   1.600 -0.6943 -0.6613 -0.7882
 2405TIP3   OH231409   3.401   5.722   0.021  0.0027 -0.0935  0.0062
 2405TIP3    H131410   3.392   5.689  -0.069 -0.3775 -0.2656  0.1082
 2405TIP3    H231411   3.479   5.779   0.017 -0.4556  0.5113 -0.6125
 2406TIP3   OH231412   4.697   6.424   9.304  0.0652 -0.5371  0.4676
 2406TIP3    H131413   4.609   6.431   9.342  0.0740 -0.0423  0.3994
 2406TIP3    H231414   4.682   6.403   9.212  0.0444 -1.8160  0.7443
 2407TIP3   OH231415   2.361   6.712   0.266 -0.1512 -0.5717  0.2362
 2407TIP3    H131416   2.356   6.623   0.301  3.1801 -0.7289  0.6404
 2407TIP3    H231417   2.369   6.768   0.343 -0.4145 -0.1166 -0.0646
 2408TIP3   OH231418   2.548   5.392   7.125 -0.0696  0.0623 -0.2915
 2408TIP3    H131419   2.570   5.468   7.071 -0.8540  0.0560 -0.6317
 2408TIP3    H231420   2.462   5.413   7.162  0.6734  0.3108  1.4192
 2409TIP3   OH231421   2.203   6.131   2.097 -0.3328 -0.0453  0.2498
 2409TIP3    H131422   2.272   6.196   2.115 -0.1817 -0.5509  1.6793
 2409TIP3    H231423   2.196   6.082   2.179 -1.1596 -1.1709 -0.4760
 2410TIP3   OH231424   2.215   2.910   1.105  0.0306  0.5284 -0.1443
 2410TIP3    H131425   2.248   2.929   1.017 -0.1231 -0.8132 -0.5119
 2410TIP3    H231426   2.132   2.959   1.110 -0.1049  0.3844 -0.8501
 2411TIP3   OH231427   7.413   0.456   1.296  0.6340 -0.4499 -0.4253
 2411TIP3    H131428   7.427   0.419   1.383 -0.5105 -1.1717 -0.5196
 2411TIP3    H231429   7.327   0.498   1.302  0.7640 -0.0801 -1.0746
 2412TIP3   OH231430   4.351   4.297   8.908 -0.6424 -0.3141 -0.0117
 2412TIP3    H131431   4.380   4.287   8.817 -0.8931 -2.4350  0.0964
 2412TIP3    H231432   4.426   4.333   8.954  0.1545 -1.0772 -0.6873
 2413TIP3   OH231433   3.168   1.872   8.889 -0.4663  0.0523  0.3962
 2413TIP3    H131434   3.163   1.788   8.934  0.3073 -0.6311 -0.7412
 2413TIP3    H231435   3.160   1.937   8.959  0.3286 -0.9594  1.4621
 2414TIP3   OH231436   0.992   2.666   7.819 -0.7306 -0.8512 -0.0266
 2414TIP3    H131437   1.044   2.669   7.739 -1.4078 -0.9521 -0.4733
 2414TIP3    H231438   0.944   2.749   7.819 -1.3037 -1.1814 -0.1145
 2415TIP3   OH231439   6.654   4.634   1.367 -0.5372 -0.4154 -0.2243
 2415TIP3    H131440   6.690   4.722   1.354  1.8304 -1.1776  0.5978
 2415TIP3    H231441   6.593   4.622   1.294 -1.2641  2.0411 -0.1116
 2416TIP3   OH231442   2.020   4.588   0.797  0.0386 -0.1773 -0.1679
 2416TIP3    H131443   1.970   4.638   0.862  1.3981 -0.6334  1.2905
 2416TIP3    H231444   1.965   4.511   0.779 -0.5178  0.1281  0.1844
 2417TIP3   OH231445   5.073   5.091   6.983 -0.1744 -0.0550  0.1976
 2417TIP3    H131446   5.086   5.011   6.932  1.8443 -0.0382  0.6090
 2417TIP3    H231447   5.010   5.065   7.051  1.9857 -1.9935  1.6226
 2418TIP3   OH231448   1.634   6.045   7.420 -0.1857 -0.1734  0.6976
 2418TIP3    H131449   1.554   6.053   7.368  0.1204  0.3208  0.2937
 2418TIP3    H231450   1.617   5.971   7.478 -1.1186  0.2220  0.9448
 2419TIP3   OH231451   6.897   5.859   7.157 -0.3065 -0.3369  0.0830
 2419TIP3    H131452   6.941   5.839   7.239  0.0246 -0.9861 -0.2408
 2419TIP3    H231453   6.883   5.953   7.158 -2.6777 -0.6170  2.0786
 2420TIP3   OH231454   4.628   0.909   1.639  0.3721 -0.0378  0.3804
 2420TIP3    H131455   4.665   0.996   1.629  1.5397 -0.2902  2.0755
 2420TIP3    H231456   4.533   0.921   1.626  0.6550  1.2039 -0.7484
 2421TIP3   OH231457   2.860   0.847   9.327 -0.6075 -1.0892  0.1321
 2421TIP3    H131458   2.927   0.907   9.294 -2.8081  0.9939 -0.8695
 2421TIP3    H231459   2.906   0.764   9.341  1.8650 -0.1868 -1.8769
 2422TIP3   OH231460   3.771   7.102   1.606  0.1566 -0.2803 -0.0967
 2422TIP3    H131461   3.783   7.020   1.559 -0.6699  0.4745 -1.7036
 2422TIP3    H231462   3.842   7.158   1.574  0.2893 -0.1402  0.4430
 2423TIP3   OH231463   5.984   5.197   9.278  0.3762  0.3969  0.2959
 2423TIP3    H131464   5.914   5.250   9.240  1.4786  0.7286 -1.3664
 2423TIP3    H231465   6.040   5.261   9.324  1.3657  0.6557 -1.1883
 2424TIP3   OH231466   4.117   3.112   2.863  0.1171 -0.0954  0.8277
 2424TIP3    H131467   4.111   3.207   2.856 -0.3895 -0.1732 -0.0284
 2424TIP3    H231468   4.026   3.084   2.877 -0.1499 -0.5954 -1.4688
 2425TIP3   OH231469   5.839   0.322   1.478 -0.1438  0.3971  0.2461
 2425TIP3    H131470   5.928   0.328   1.445 -0.1780 -0.9878 -0.1630
 2425TIP3    H231471   5.784   0.339   1.401 -0.2237 -0.2721  0.1499
 2426TIP3   OH231472   1.675   0.694   8.100  0.1478  0.1902 -0.0199
 2426TIP3    H131473   1.622   0.686   8.021  0.3390 -1.6415  0.0026
 2426TIP3    H231474   1.700   0.605   8.122  0.9676  0.7565  1.5351
 2427TIP3   OH231475   0.113   3.480   1.803 -0.5389  0.4683 -0.0069
 2427TIP3    H131476   0.194   3.522   1.773  0.1420 -0.5556  0.3507
 2427TIP3    H231477   0.095   3.413   1.737 -1.8189  1.4983 -0.7691
 2428TIP3   OH231478   2.315   5.592   8.210 -0.0254  0.5891 -0.1738
 2428TIP3    H131479   2.316   5.563   8.302 -0.0079  0.4181 -0.2265
 2428TIP3    H231480   2.234   5.556   8.175  0.9911 -1.1991 -0.8104
 2429TIP3   OH231481   4.739   3.506   0.509 -0.6272 -0.2666  0.6356
 2429TIP3    H131482   4.693   3.422   0.510 -1.1466  0.0206  1.5905
 2429TIP3    H231483   4.770   3.518   0.598  0.6831 -0.0964  0.1762
 2430TIP3   OH231484   4.363   6.585   7.153  0.3927 -0.1167 -0.0485
 2430TIP3    H131485   4.315   6.658   7.116  3.5427  1.1424 -2.0811
 2430TIP3    H231486   4.338   6.510   7.099 -1.7711 -0.3175  1.1362
 2431TIP3   OH231487   0.039   3.179   1.991  0.1064 -0.5943  0.2444
 2431TIP3    H131488   0.089   3.255   2.020 -2.0600  1.0939 -0.1935
 2431TIP3    H231489   0.058   3.112   2.057  0.4776  1.0031  1.8535
 2432TIP3   OH231490   4.708   3.280   1.582  0.1461 -0.6913 -0.3361
 2432TIP3    H131491   4.774   3.308   1.517 -0.1608 -0.6207 -0.6208
 2432TIP3    H231492   4.675   3.362   1.619  1.4016 -0.7519  1.0247
 2433TIP3   OH231493   1.301   7.243   0.837  0.5046 -0.3668 -0.2621
 2433TIP3    H131494   1.265   7.212   0.754  0.1931 -0.2879 -0.1586
 2433TIP3    H231495   1.226   7.246   0.896  0.9286 -1.6201  0.3877
 2434TIP3   OH231496   3.009   6.632   1.090  0.0281 -0.2229 -0.2636
 2434TIP3    H131497   3.064   6.554   1.096 -0.4396 -0.5081  0.4698
 2434TIP3    H231498   3.037   6.686   1.164  0.5887  0.4693 -0.9657
 2435TIP3   OH231499   2.105   5.686   2.544  0.2933 -0.4738 -0.3549
 2435TIP3    H131500   2.041   5.725   2.603  0.9174  1.7507 -1.0176
 2435TIP3    H231501   2.057   5.620   2.495 -0.3497 -1.9982  2.2076
 2436TIP3   OH231502   2.852   3.356   1.923  0.1773 -0.0190 -0.0995
 2436TIP3    H131503   2.908   3.426   1.888  0.1121 -0.2809 -0.7481
 2436TIP3    H231504   2.910   3.281   1.932 -0.2087 -0.5386 -1.5583
 2437TIP3   OH231505   3.276   3.356   7.132  0.0607  0.3513 -0.0513
 2437TIP3    H131506   3.258   3.271   7.091  0.5210 -0.3351  1.1119
 2437TIP3    H231507   3.287   3.416   7.059 -2.0434 -0.1968 -0.8910
 2438TIP3   OH231508   0.459   7.176   0.057  0.1924  0.4476 -0.7569
 2438TIP3    H131509   0.461   7.203   0.149  0.7624  0.4779 -0.7766
 2438TIP3    H231510   0.405   7.242   0.013 -0.4601  0.1878 -0.3718
 2439TIP3   OH231511   4.411   1.022   2.063 -0.1185 -0.4280  0.2893
 2439TIP3    H131512   4.415   1.003   1.969 -0.5802 -0.3282  0.2501
 2439TIP3    H231513   4.395   0.937   2.104 -1.6705 -0.2263  0.1500
 2440TIP3   OH231514   5.645   6.257   7.903 -0.4325  0.1170 -0.5940
 2440TIP3    H131515   5.632   6.276   7.995  1.1677  1.6642 -0.6290
 2440TIP3    H231516   5.565   6.212   7.876 -0.5058 -1.3569  1.7572
 2441TIP3   OH231517   4.431   2.855   9.406 -0.7563  0.1845  0.1338
 2441TIP3    H131518   4.481   2.855   9.325  1.5974 -0.1264  1.4690
 2441TIP3    H231519   4.484   2.801   9.466 -2.3027  0.5367  1.9139
 2442TIP3   OH231520   5.875   1.779   7.114 -0.3756 -0.4612  0.5688
 2442TIP3    H131521   5.892   1.873   7.109  1.4960 -0.7939 -0.1388
 2442TIP3    H231522   5.908   1.744   7.031  0.8375 -1.9942  1.6438
 2443TIP3   OH231523   3.137   1.390   7.661  0.0065  0.4262  0.2152
 2443TIP3    H131524   3.068   1.432   7.712 -0.5676  1.5632 -1.4059
 2443TIP3    H231525   3.092   1.351   7.586  0.9301 -0.3688  0.0491
 2444TIP3   OH231526   5.795   6.943   0.637 -0.1723  0.2191 -0.1180
 2444TIP3    H131527   5.741   6.866   0.618  0.1128 -0.5234  1.8714
 2444TIP3    H231528   5.758   6.980   0.717  0.5505  1.3484 -0.2803
 2445TIP3   OH231529   1.134   7.062   7.556  0.4724  0.2845 -0.2069
 2445TIP3    H131530   1.145   7.157   7.555 -0.5679  0.4246 -1.0442
 2445TIP3    H231531   1.163   7.034   7.469 -0.2218 -0.0203 -0.3440
 2446TIP3   OH231532   4.680   1.435   9.132 -0.1732 -0.6494 -0.0235
 2446TIP3    H131533   4.714   1.450   9.220  2.6438 -1.1407 -0.9475
 2446TIP3    H231534   4.619   1.362   9.142 -2.0718  1.0335  1.8889
 2447TIP3   OH231535   2.359   4.846   1.814  0.2389  0.3389 -0.2554
 2447TIP3    H131536   2.266   4.829   1.804  0.5320 -1.3295 -0.4279
 2447TIP3    H231537   2.394   4.767   1.854  1.8884  0.1290 -1.9528
 2448TIP3   OH231538   2.758   6.729   9.353 -0.3110  0.2814  0.3920
 2448TIP3    H131539   2.735   6.793   9.419 -0.7575  2.6876 -1.9379
 2448TIP3    H231540   2.693   6.740   9.284  0.3071 -1.8736 -0.6565
 2449TIP3   OH231541   0.276   3.466   3.332  0.4705  0.4258  0.2009
 2449TIP3    H131542   0.338   3.477   3.405 -0.0958  1.0395  0.6026
 2449TIP3    H231543   0.318   3.511   3.259  1.3563 -0.7684 -0.0591
 2450TIP3   OH231544   3.528   4.967   9.465 -0.0323  0.8836  0.4449
 2450TIP3    H131545   3.501   4.918   9.387 -1.4594  1.4199  0.5846
 2450TIP3    H231546   3.593   5.030   9.432 -0.1842  0.7113 -0.1965
 2451TIP3   OH231547   0.627   7.348   1.602  0.4468 -0.3607 -0.2792
 2451TIP3    H131548   0.595   7.301   1.679  0.8817 -1.4806 -0.7517
 2451TIP3    H231549   0.703   7.297   1.574 -0.1847 -0.4594 -1.9275
 2452TIP3   OH231550   4.720   5.507   0.744 -0.0881 -0.4676  0.0648
 2452TIP3    H131551   4.735   5.587   0.794  0.0606 -0.5803  0.2040
 2452TIP3    H231552   4.651   5.461   0.792  2.0247 -1.9811  1.8808
 2453TIP3   OH231553   5.999   6.723   8.404  0.0959 -0.0978  0.2331
 2453TIP3    H131554   5.994   6.734   8.309 -1.5243 -1.6794  0.0793
 2453TIP3    H231555   5.932   6.782   8.438  0.1643 -0.0749  0.3262
 2454TIP3   OH231556   6.780   2.489   7.714 -0.0874  0.0380 -0.3444
 2454TIP3    H131557   6.758   2.499   7.806  0.3969 -0.5714 -0.1535
 2454TIP3    H231558   6.876   2.479   7.713 -0.2263 -1.6043 -0.7400
 2455TIP3   OH231559   2.742   6.475   9.472  0.7750  0.5221 -0.0947
 2455TIP3    H131560   2.824   6.426   9.474  0.4833 -0.0217 -0.8638
 2455TIP3    H231561   2.763   6.556   9.427  1.0439  0.6791  0.3140
 2456TIP3   OH231562   1.878   5.563   0.531 -0.1240 -0.2683 -0.7512
 2456TIP3    H131563   1.920   5.504   0.593  0.6657  1.9381  0.9319
 2456TIP3    H231564   1.950   5.605   0.484 -0.6612 -0.5409 -1.8712
 2457TIP3   OH231565   0.823   7.330   7.732  0.7562 -0.4746  0.0788
 2457TIP3    H131566   0.811   7.260   7.667  0.1812  0.2166 -0.5832
 2457TIP3    H231567   0.897   7.381   7.699 -1.0977  1.3936 -1.4839
 2458TIP3   OH231568   0.734   2.404   7.270  0.4587  0.2235 -0.0986
 2458TIP3    H131569   0.792   2.478   7.287  1.4168 -0.1612 -1.4509
 2458TIP3    H231570   0.707   2.416   7.179 -2.1249  0.7141  0.6546
 2459TIP3   OH231571   2.687   4.699   8.158  0.3700  0.7880 -0.0246
 2459TIP3    H131572   2.592   4.705   8.149  0.3327 -0.3625 -0.4596
 2459TIP3    H231573   2.705   4.606   8.164  1.5563  0.9454 -0.8478
 2460TIP3   OH231574   4.798   4.523   9.332  0.2672 -0.6541  0.8832
 2460TIP3    H131575   4.730   4.591   9.333  0.2001 -0.6282 -1.2136
 2460TIP3    H231576   4.868   4.561   9.279  0.4396 -2.0318  0.1073
 2461TIP3   OH231577   6.986   3.497   7.037 -0.0969 -0.2679 -0.3006
 2461TIP3    H131578   7.043   3.569   7.009 -0.3142 -0.5372 -1.4739
 2461TIP3    H231579   6.965   3.450   6.957 -1.4210 -0.5844  0.2027
 2462TIP3   OH231580   7.399   5.188   1.581 -0.3094 -0.3874 -0.2356
 2462TIP3    H131581   7.364   5.277   1.574 -0.7883 -0.3239  2.1170
 2462TIP3    H231582   7.391   5.152   1.492 -1.3202  1.4731 -0.9525
 2463TIP3   OH231583   7.041   0.351   1.982  0.1861  0.1866  0.0625
 2463TIP3    H131584   7.128   0.356   1.942 -0.1441 -0.1660 -0.7279
 2463TIP3    H231585   7.013   0.442   1.989  0.7904  0.3316  0.7223
 2464TIP3   OH231586   1.019   7.018   8.484 -0.4311  0.0778 -0.3960
 2464TIP3    H131587   1.048   6.931   8.456  0.5222  0.2842 -0.0676
 2464TIP3    H231588   1.023   7.071   8.404  2.0849  0.6140  0.0163
 2465TIP3   OH231589   0.406   3.030   0.481  0.1821  0.0335  0.4494
 2465TIP3    H131590   0.477   3.093   0.484 -0.9831  1.3539  1.9169
 2465TIP3    H231591   0.414   2.981   0.563 -0.0746 -0.4322  0.2028
 2466TIP3   OH231592   6.742   4.807   1.719  0.4365 -0.1261 -0.1014
 2466TIP3    H131593   6.738   4.823   1.813 -0.0155 -0.1339 -0.1188
 2466TIP3    H231594   6.819   4.857   1.689 -1.0901  2.3004 -0.2231
 2467TIP3   OH231595   5.344   4.126   1.708  0.0771 -0.5228  0.3920
 2467TIP3    H131596   5.353   4.065   1.781 -1.4688  1.0213  1.9794
 2467TIP3    H231597   5.257   4.107   1.672 -0.2932  0.4963  0.7158
 2468TIP3   OH231598   2.593   2.851   8.052  0.0907 -0.2192 -0.3293
 2468TIP3    H131599   2.568   2.759   8.060 -0.0122 -0.1719 -0.1031
 2468TIP3    H231600   2.672   2.859   8.106 -0.7486  0.1575  0.8887
 2469TIP3   OH231601   1.109   2.400   0.177 -0.7525  0.3398  0.0323
 2469TIP3    H131602   1.104   2.332   0.244 -2.0357  1.5306  1.2388
 2469TIP3    H231603   1.187   2.451   0.201 -0.3994 -0.0837 -0.2272
 2470TIP3   OH231604   0.164   3.338   7.266 -0.6270 -0.2682 -0.4365
 2470TIP3    H131605   0.169   3.248   7.235  0.0067  0.0699 -1.3567
 2470TIP3    H231606   0.248   3.353   7.309 -0.8339 -0.1955 -0.0562
 2471TIP3   OH231607   5.219   1.924   8.385  0.0113 -0.2368 -0.1747
 2471TIP3    H131608   5.169   1.853   8.426 -0.3054 -0.2331 -0.5423
 2471TIP3    H231609   5.182   2.004   8.421  0.5816 -0.2652  0.4795
 2472TIP3   OH231610   1.065   0.573   6.821  0.0841  0.1506  0.1497
 2472TIP3    H131611   0.991   0.512   6.821  0.5822 -0.5166  1.6138
 2472TIP3    H231612   1.072   0.603   6.731 -0.4858 -1.6019 -0.5208
 2473TIP3   OH231613   0.906   1.387   7.043  0.4798  0.4870  0.0191
 2473TIP3    H131614   0.946   1.473   7.033 -1.9693  1.4624 -2.4814
 2473TIP3    H231615   0.937   1.337   6.967 -1.7987  0.8107 -1.1961
 2474TIP3   OH231616   1.409   0.309   7.999  0.0580 -0.3314 -0.4018
 2474TIP3    H131617   1.405   0.402   7.976  0.3810 -0.2255 -0.0531
 2474TIP3    H231618   1.432   0.265   7.918  2.9778  0.2054  0.0268
 2475TIP3   OH231619   0.458   6.995   8.788 -0.0509 -0.0402 -0.2695
 2475TIP3    H131620   0.383   6.963   8.839  0.2153 -0.0702  0.1106
 2475TIP3    H231621   0.472   6.928   8.721 -1.6780  0.9625 -1.7033
 2476TIP3   OH231622   2.338   2.831   0.487 -0.5232 -0.1128 -0.2095
 2476TIP3    H131623   2.292   2.838   0.570 -0.0765 -0.3522  0.0613
 2476TIP3    H231624   2.313   2.745   0.453 -0.5251 -0.1103 -0.2144
 2477TIP3   OH231625   5.911   4.561   9.620 -0.0993 -0.7299 -0.0599
 2477TIP3    H131626   5.843   4.620   9.652 -0.6942 -2.3692  1.8938
 2477TIP3    H231627   5.992   4.594   9.659 -0.3048 -0.7629  0.3922
 2478TIP3   OH231628   4.281   1.216   8.480  0.7608  0.2927  0.3153
 2478TIP3    H131629   4.203   1.225   8.535 -0.0142 -0.3072 -0.6644
 2478TIP3    H231630   4.336   1.291   8.504 -0.8791  1.7241 -0.2145
 2479TIP3   OH231631   6.076   2.374   0.544 -0.1164  0.3484 -0.0853
 2479TIP3    H131632   6.086   2.280   0.529 -0.5679  0.1249  0.9326
 2479TIP3    H231633   6.132   2.392   0.620 -1.0136  0.6471  0.5162
 2480TIP3   OH231634   6.238   6.802   2.301 -0.4452  0.0461 -0.1841
 2480TIP3    H131635   6.283   6.777   2.382  0.9342  1.1336 -0.5623
 2480TIP3    H231636   6.160   6.849   2.330 -0.8126 -0.9377  0.4947
 2481TIP3   OH231637   5.775   6.999   7.444 -0.5207  0.4473 -1.0361
 2481TIP3    H131638   5.722   6.923   7.424  0.2856 -0.3345 -0.3018
 2481TIP3    H231639   5.814   7.024   7.360 -0.4252 -0.2446 -1.2066
 2482TIP3   OH231640   1.299   1.388   6.966  0.0124  0.4575 -0.4094
 2482TIP3    H131641   1.317   1.459   6.904 -0.0247  0.8848  0.0637
 2482TIP3    H231642   1.271   1.314   6.911  1.2496  0.4067 -1.0057
 2483TIP3   OH231643   0.006   5.352   3.093 -0.3060 -0.3825  0.1903
 2483TIP3    H131644  -0.004   5.321   3.003  0.1508 -0.0553  0.0193
 2483TIP3    H231645  -0.025   5.280   3.147 -0.1008 -0.7860 -0.2184
 2484TIP3   OH231646   4.416   3.763   7.339  0.2909  0.1889 -0.0119
 2484TIP3    H131647   4.461   3.706   7.276  1.1474  1.0322 -0.1862
 2484TIP3    H231648   4.333   3.785   7.296  0.1757 -0.5039 -0.1611
 2485TIP3   OH231649   6.084   4.091   0.879 -0.0295 -0.1719  0.0626
 2485TIP3    H131650   6.116   4.171   0.837  0.2615 -0.7819 -0.8902
 2485TIP3    H231651   6.053   4.037   0.806  0.2402 -1.1390  0.6652
 2486TIP3   OH231652   4.924   2.239   2.041 -0.0188 -0.1872 -0.0133
 2486TIP3    H131653   4.961   2.165   1.992 -2.9132 -0.2120 -2.4252
 2486TIP3    H231654   4.943   2.316   1.986 -0.8869  0.1905  0.1972
 2487TIP3   OH231655   5.360   0.779   9.108  0.5019  0.0774 -0.1851
 2487TIP3    H131656   5.301   0.827   9.050  0.7001  1.5530  0.7860
 2487TIP3    H231657   5.395   0.846   9.167  3.1708 -0.7160 -0.7169
 2488TIP3   OH231658   1.337   7.144   1.439 -0.4761  0.2602  0.1883
 2488TIP3    H131659   1.350   7.141   1.345  0.7155 -0.2600  0.3547
 2488TIP3    H231660   1.248   7.178   1.450 -1.2880 -1.2752 -1.1567
 2489TIP3   OH231661   2.969   6.827   0.540  0.4818  0.2550 -0.5019
 2489TIP3    H131662   2.895   6.798   0.593  0.0721  1.0870 -0.5925
 2489TIP3    H231663   2.970   6.767   0.465 -0.1565  0.2775 -0.5368
 2490TIP3   OH231664   0.285   4.766   0.419 -0.1011 -0.3390  0.8135
 2490TIP3    H131665   0.293   4.672   0.401  0.3195 -0.2422  0.4981
 2490TIP3    H231666   0.196   4.788   0.393  0.4633 -0.2017 -1.1778
 2491TIP3   OH231667   6.339   2.662   7.774  0.2384  0.2204  0.7167
 2491TIP3    H131668   6.401   2.711   7.827  0.2958 -1.5133  2.3707
 2491TIP3    H231669   6.356   2.570   7.795 -0.0231 -0.5669 -2.0325
 2492TIP3   OH231670   7.235   0.915   6.866 -0.6692 -0.2668 -0.0955
 2492TIP3    H131671   7.283   0.934   6.786  1.8964 -0.7298  1.2098
 2492TIP3    H231672   7.176   0.989   6.878 -0.4186  0.2572 -1.8758
 2493TIP3   OH231673   0.929   5.322   1.083  0.4897 -0.0727  0.0328
 2493TIP3    H131674   0.844   5.349   1.118  0.6327 -0.3677  0.6278
 2493TIP3    H231675   0.908   5.269   1.006  0.1284 -0.1865  0.2069
 2494TIP3   OH231676   3.639   6.748   8.291 -0.2764  0.0131 -0.0482
 2494TIP3    H131677   3.544   6.747   8.298 -0.2694  1.2720  0.6008
 2494TIP3    H231678   3.670   6.732   8.380  0.0999  0.2919 -0.1257
 2495TIP3   OH231679   3.644   0.940   8.793 -0.2377  0.0951 -0.1680
 2495TIP3    H131680   3.735   0.910   8.801 -0.4600 -0.6329 -0.2369
 2495TIP3    H231681   3.599   0.900   8.867 -0.4555  0.6506  0.0027
 2496TIP3   OH231682   6.097   0.368   8.443  0.3070  0.6682  0.1524
 2496TIP3    H131683   6.069   0.377   8.352 -0.5555 -0.2021  0.3042
 2496TIP3    H231684   6.107   0.457   8.474  1.6879  0.9957 -1.0922
 2497TIP3   OH231685   1.901   1.385   7.738  0.1720 -0.0650 -0.4018
 2497TIP3    H131686   1.815   1.421   7.718  0.6461  1.9213  0.8679
 2497TIP3    H231687   1.940   1.366   7.652 -0.5412  1.4741 -1.0957
 2498TIP3   OH231688   7.016   6.426   2.124 -0.3094 -0.4069  0.1977
 2498TIP3    H131689   7.071   6.423   2.046 -0.6591 -0.4115 -0.0510
 2498TIP3    H231690   6.989   6.517   2.132 -0.4790 -0.4532  0.1661
 2499TIP3   OH231691   1.911   6.332   8.904 -0.9999  0.0482 -0.5304
 2499TIP3    H131692   1.954   6.407   8.862  0.3490  0.2415  1.1155
 2499TIP3    H231693   1.830   6.369   8.940 -1.3159  0.2555 -1.4210
 2500TIP3   OH231694   6.357   7.089   1.263  0.6768  0.3998 -0.1401
 2500TIP3    H131695   6.351   7.050   1.176  0.5317  1.5365 -0.6542
 2500TIP3    H231696   6.352   7.014   1.323  0.5368 -0.3734 -1.0905
 2501TIP3   OH231697   4.916   3.241   8.873 -0.0381  0.5375 -0.5013
 2501TIP3    H131698   4.838   3.274   8.829 -0.3116  0.0968 -0.3564
 2501TIP3    H231699   4.882   3.176   8.935  0.3267  1.2252  0.4417
 2502TIP3   OH231700   5.614   3.174   8.872 -0.4118  0.0414  0.0840
 2502TIP3    H131701   5.526   3.169   8.832 -0.1680  1.8990 -0.7720
 2502TIP3    H231702   5.611   3.251   8.928  0.6507  0.0491  0.1483
 2503TIP3   OH231703   2.942   1.680   0.132 -1.2978 -0.1857 -0.1223
 2503TIP3    H131704   2.857   1.651   0.166 -0.2328 -3.1664  0.2027
 2503TIP3    H231705   2.959   1.762   0.179 -2.4274 -1.3044  2.4543
 2504TIP3   OH231706   3.177   1.409   8.043 -0.9854  0.1343 -0.1496
 2504TIP3    H131707   3.174   1.447   8.131  0.2896 -0.3335  0.1152
 2504TIP3    H231708   3.260   1.362   8.040 -0.4550  1.0841 -2.0020
 2505TIP3   OH231709   1.484   6.286   9.246 -0.5283 -0.5416 -0.0060
 2505TIP3    H131710   1.438   6.335   9.178 -2.5199 -2.3675 -0.0790
 2505TIP3    H231711   1.520   6.210   9.201  0.2918 -0.5001  0.5589
 2506TIP3   OH231712   4.179   3.446   1.752  0.3585 -0.2359  0.2479
 2506TIP3    H131713   4.097   3.491   1.732  0.6045  0.4359  0.7359
 2506TIP3    H231714   4.162   3.354   1.730  0.7480  0.4589 -3.5789
 2507TIP3   OH231715   0.266   0.128   6.901  0.0324 -0.2237 -0.5638
 2507TIP3    H131716   0.180   0.143   6.940 -0.4705 -0.2334 -1.6383
 2507TIP3    H231717   0.258   0.044   6.855  0.9007 -0.6827  0.0771
 2508TIP3   OH231718   0.306   3.128   7.509  0.2705 -0.0007  0.4453
 2508TIP3    H131719   0.361   3.177   7.448  0.1699 -0.7972 -0.3225
 2508TIP3    H231720   0.239   3.087   7.453  1.6928 -2.9027  0.6616
 2509TIP3   OH231721   0.740   5.618   0.410  0.5254 -0.5621 -0.6640
 2509TIP3    H131722   0.646   5.613   0.428  0.5499 -0.1456 -0.4070
 2509TIP3    H231723   0.781   5.616   0.496  0.6846  0.6322 -0.6945
 2510TIP3   OH231724   4.515   2.157   2.138 -0.1362  0.0824  0.2219
 2510TIP3    H131725   4.499   2.121   2.225  0.3882 -1.0391 -0.1233
 2510TIP3    H231726   4.588   2.218   2.150  0.7191 -0.9371  0.4009
 2511TIP3   OH231727   1.412   3.819   0.189  0.1110 -0.0675  0.2620
 2511TIP3    H131728   1.388   3.727   0.200  0.0485 -0.1158 -0.2378
 2511TIP3    H231729   1.336   3.859   0.146  0.5351 -0.0049 -0.4429
 2512TIP3   OH231730   6.002   4.842   1.435 -0.4020  0.6159  0.2212
 2512TIP3    H131731   6.054   4.893   1.497  0.6038  0.6454 -0.6110
 2512TIP3    H231732   6.065   4.780   1.397 -1.3033 -0.3379  0.2306
 2513TIP3   OH231733   3.974   2.092   9.604  0.3598 -0.1894  0.0791
 2513TIP3    H131734   3.983   2.024   9.671  0.1387  1.3414  1.7544
 2513TIP3    H231735   3.881   2.093   9.583  0.3390 -0.3208  0.1633
 2514TIP3   OH231736   3.678   6.241   8.915 -0.0267 -0.3125 -0.1642
 2514TIP3    H131737   3.710   6.235   8.825 -1.1717 -0.7978 -0.5527
 2514TIP3    H231738   3.738   6.303   8.957  1.8504 -1.7052 -0.6475
 2515TIP3   OH231739   5.836   5.318   9.531  0.0597  0.2272 -0.5670
 2515TIP3    H131740   5.931   5.315   9.543 -0.0779 -0.3592  0.4419
 2515TIP3    H231741   5.810   5.227   9.521 -0.3339  0.4239 -1.5163
 2516TIP3   OH231742   5.826   2.399   1.436  0.2759  0.6912  0.1247
 2516TIP3    H131743   5.882   2.418   1.360 -0.1142 -0.5842 -0.5171
 2516TIP3    H231744   5.790   2.484   1.461 -2.0068  0.8534 -3.0470
 2517TIP3   OH231745   2.932   3.827   8.507 -0.0034 -0.3884  0.4301
 2517TIP3    H131746   2.917   3.815   8.601 -0.7486  0.8761  0.4883
 2517TIP3    H231747   3.027   3.832   8.499  0.0642 -0.3719  1.1346
 2518TIP3   OH231748   3.686   7.378   1.992 -0.0365 -0.1585 -0.3385
 2518TIP3    H131749   3.644   7.299   2.026 -0.7663 -0.1068 -1.0861
 2518TIP3    H231750   3.755   7.398   2.056  0.2591 -1.4729 -0.2209
 2519TIP3   OH231751   1.697   3.006   6.776  0.4213  0.3466 -0.3074
 2519TIP3    H131752   1.713   2.953   6.854  2.7959  1.5158  0.1191
 2519TIP3    H231753   1.621   3.059   6.798  0.4327 -0.0780  0.8194
 2520TIP3   OH231754   7.239   4.366   0.097 -0.0724 -0.6920 -0.2096
 2520TIP3    H131755   7.325   4.369   0.055  0.6329 -2.0349  1.0349
 2520TIP3    H231756   7.247   4.425   0.172  0.5028 -2.3808  1.1133
 2521TIP3   OH231757   4.022   4.368   1.388  0.4103 -0.5352 -0.1767
 2521TIP3    H131758   4.113   4.390   1.406  1.6326 -3.4576 -2.1141
 2521TIP3    H231759   3.993   4.320   1.466  0.1266  1.2514  0.8673
 2522TIP3   OH231760   5.662   5.056   7.837  0.3958  0.3281  1.0042
 2522TIP3    H131761   5.710   4.974   7.836  1.0420  0.6286 -1.8951
 2522TIP3    H231762   5.688   5.099   7.919  1.9750 -1.2509  1.3783
 2523TIP3   OH231763   6.639   7.216   7.453  0.1819  0.2681  0.2418
 2523TIP3    H131764   6.644   7.154   7.526  0.0835 -1.7445 -1.3597
 2523TIP3    H231765   6.623   7.300   7.494  2.3392 -0.3856  2.6779
 2524TIP3   OH231766   6.040   6.439   2.768 -0.2160 -0.3133 -0.2565
 2524TIP3    H131767   6.057   6.364   2.711 -0.7851 -1.3515  0.8957
 2524TIP3    H231768   5.947   6.457   2.756 -0.6075 -1.2881  1.2009
 2525TIP3   OH231769   2.925   3.557   7.851  0.4678 -0.3723  0.2098
 2525TIP3    H131770   2.908   3.464   7.837 -1.3264 -0.3140  1.5858
 2525TIP3    H231771   2.974   3.561   7.933  1.7108 -0.1442 -0.5163
 2526TIP3   OH231772   3.256   5.362   1.541  0.3765 -0.3905 -0.6475
 2526TIP3    H131773   3.267   5.324   1.629 -0.1857  1.2900  0.1931
 2526TIP3    H231774   3.174   5.410   1.546 -0.5114 -1.5946 -2.6410
 2527TIP3   OH231775   3.145   5.130   7.893 -0.2030 -0.0655 -0.3797
 2527TIP3    H131776   3.174   5.189   7.824  0.1875 -0.5294 -0.6116
 2527TIP3    H231777   3.163   5.042   7.860  2.8361 -0.3018  1.4665
 2528TIP3   OH231778   1.177   1.354   7.203  0.8676 -0.4215  0.5473
 2528TIP3    H131779   1.226   1.357   7.121  0.3827  1.4688  0.2756
 2528TIP3    H231780   1.086   1.344   7.176  0.8525 -1.4976  0.9508
 2529TIP3   OH231781   4.358   0.897   1.630 -0.1378  0.2238 -0.3799
 2529TIP3    H131782   4.347   0.807   1.601  2.0570  0.4336 -2.0830
 2529TIP3    H231783   4.273   0.939   1.614 -0.2161 -0.7166 -2.7851
 2530TIP3   OH231784   2.401   3.183   1.950 -0.1162 -0.5326  0.2642
 2530TIP3    H131785   2.485   3.140   1.964  0.1847  0.1066  0.4931
 2530TIP3    H231786   2.382   3.170   1.857 -0.0046 -1.0970  0.3168
 2531TIP3   OH231787   7.075   7.307   0.319 -0.4025  0.2234 -0.3466
 2531TIP3    H131788   7.094   7.232   0.263 -1.7095 -1.0486  0.8472
 2531TIP3    H231789   6.980   7.308   0.328 -0.2951  0.9754  1.0547
 2532TIP3   OH231790   5.361   7.237   8.332 -0.3170 -0.3661 -0.0682
 2532TIP3    H131791   5.271   7.216   8.356 -0.5415  0.5323 -0.0714
 2532TIP3    H231792   5.409   7.237   8.415 -0.9542  2.0779  0.3794
 2533TIP3   OH231793   5.146   1.516   6.669 -0.0772  0.4918  0.2278
 2533TIP3    H131794   5.146   1.610   6.686  0.0196  0.6995 -0.8193
 2533TIP3    H231795   5.072   1.503   6.609  0.2738 -0.0050 -0.1002
 2534TIP3   OH231796   5.241   5.403   0.766 -0.1509 -0.0093 -0.4012
 2534TIP3    H131797   5.172   5.460   0.733  0.7845  0.6257 -1.3278
 2534TIP3    H231798   5.198   5.350   0.833 -1.0741  1.6866  0.4032
 2535TIP3   OH231799   7.390   3.436   2.254 -0.4381 -0.7503 -0.1974
 2535TIP3    H131800   7.427   3.349   2.239 -0.0860 -0.6120 -0.1640
 2535TIP3    H231801   7.305   3.434   2.210 -0.8027 -1.3742  0.5075
 2536TIP3   OH231802   0.125   6.668   8.732 -0.0291  0.1517 -0.6956
 2536TIP3    H131803   0.144   6.669   8.638 -0.9987  2.3200 -0.9262
 2536TIP3    H231804   0.197   6.618   8.771  1.2691  0.6123 -2.4193
 2537TIP3   OH231805   4.625   6.298   7.277 -0.4586  0.6768 -0.3464
 2537TIP3    H131806   4.594   6.288   7.187 -0.0662  1.6362 -0.6065
 2537TIP3    H231807   4.705   6.246   7.281 -0.9295 -0.0562 -0.2984
 2538TIP3   OH231808   6.239   3.494   1.993  0.4149  0.0717  0.3682
 2538TIP3    H131809   6.309   3.535   1.942  0.8996  0.2366  1.1522
 2538TIP3    H231810   6.171   3.561   1.998  1.6117  1.2361  2.5144
 2539TIP3   OH231811   4.701   2.088   0.770 -0.0411 -0.5605  0.1553
 2539TIP3    H131812   4.714   2.182   0.777  0.0126 -0.6129  0.8435
 2539TIP3    H231813   4.668   2.062   0.856 -0.0263 -1.1722 -0.0205
 2540TIP3   OH231814   5.020   6.403   7.566  0.4163 -0.3950 -0.2444
 2540TIP3    H131815   4.955   6.364   7.507 -0.0922  2.2631 -1.5872
 2540TIP3    H231816   5.084   6.334   7.579 -0.7256 -1.8841 -1.9660
 2541TIP3   OH231817   0.980   5.106   7.819  0.3689 -0.0672  0.7902
 2541TIP3    H131818   0.957   5.085   7.910 -0.6446  1.8955  1.0579
 2541TIP3    H231819   1.007   5.023   7.781 -0.6328 -1.2300  2.4648
 2542TIP3   OH231820   1.917   1.109   7.533 -0.2179  0.1132  0.4011
 2542TIP3    H131821   1.992   1.093   7.475 -0.2373 -0.5117  0.5400
 2542TIP3    H231822   1.870   1.182   7.492  0.5368  0.5983  0.3909
 2543TIP3   OH231823   5.946   0.658   1.345  0.2753  0.4652  0.3448
 2543TIP3    H131824   5.851   0.649   1.346  0.4145 -1.3492  0.0974
 2543TIP3    H231825   5.965   0.703   1.263 -0.2453 -1.2062 -0.7309
 2544TIP3   OH231826   3.514   4.306   0.778  0.3822  0.2923 -0.1536
 2544TIP3    H131827   3.598   4.267   0.750  0.4491 -0.8556  1.4995
 2544TIP3    H231828   3.513   4.294   0.873  0.1089  3.8567  0.4367
 2545TIP3   OH231829   2.741   3.792   1.600 -0.2457 -0.4870 -0.2199
 2545TIP3    H131830   2.712   3.704   1.574  0.6250 -1.5347  2.0942
 2545TIP3    H231831   2.821   3.807   1.549 -0.0424 -1.3136 -0.1586
 2546TIP3   OH231832   3.634   2.995   9.243  0.3306  0.4994  0.6201
 2546TIP3    H131833   3.613   3.009   9.151  0.6778 -2.8383 -0.1114
 2546TIP3    H231834   3.553   2.962   9.282  0.9434 -0.9953  0.7095
 2547TIP3   OH231835   0.349   5.364   1.587 -0.0407  0.1471  0.1780
 2547TIP3    H131836   0.445   5.355   1.593 -0.0433 -0.2045 -0.2318
 2547TIP3    H231837   0.329   5.343   1.496 -0.6978 -1.5713  0.6861
 2548TIP3   OH231838   0.561   1.803   2.330  0.1113 -0.1505 -0.2396
 2548TIP3    H131839   0.510   1.884   2.321  2.0428  1.1237 -0.3583
 2548TIP3    H231840   0.620   1.804   2.254 -0.6836 -2.3635 -0.9550
 2549TIP3   OH231841   1.589   1.856   0.650  0.2151 -1.0478  0.3167
 2549TIP3    H131842   1.511   1.908   0.632  0.9556 -0.1945 -0.5122
 2549TIP3    H231843   1.555   1.769   0.670 -0.9152 -0.9079 -0.8287
 2550TIP3   OH231844   6.915   6.347   0.399  0.1091 -0.5153 -0.4094
 2550TIP3    H131845   6.967   6.274   0.434 -0.6581 -1.2321 -0.7219
 2550TIP3    H231846   6.957   6.366   0.315  1.3016  0.5054  0.3815
 2551TIP3   OH231847   6.368   1.506   6.943 -0.9247  0.6317 -0.0599
 2551TIP3    H131848   6.320   1.531   7.022 -1.4913 -0.5418 -0.0044
 2551TIP3    H231849   6.453   1.549   6.951 -0.4900 -0.4871  1.8272
 2552TIP3   OH231850   7.127   1.092   8.728 -0.3094  0.7455  0.5699
 2552TIP3    H131851   7.122   1.002   8.695  1.9425  0.0052  2.0069
 2552TIP3    H231852   7.165   1.142   8.656 -0.3721  0.2963  0.2192
 2553TIP3   OH231853   5.453   4.400   9.306  0.3097  0.0083 -0.0772
 2553TIP3    H131854   5.402   4.475   9.275  0.6655  0.0829 -0.4864
 2553TIP3    H231855   5.529   4.439   9.351  0.7649 -0.1035 -0.7415
 2554TIP3   OH231856   0.778   4.027   7.176 -0.0221 -0.3359  0.0692
 2554TIP3    H131857   0.722   3.989   7.244  3.2514 -2.2021  1.9939
 2554TIP3    H231858   0.831   3.953   7.145  0.8752  1.1502 -2.1983
 2555TIP3   OH231859   4.211   6.237   8.115  0.2398  0.4112 -0.0501
 2555TIP3    H131860   4.170   6.307   8.064  1.7763  1.6271  0.3093
 2555TIP3    H231861   4.195   6.261   8.206  1.3682  0.7158  0.0883
 2556TIP3   OH231862   0.667   6.418   7.159  0.5024 -0.3322 -0.0661
 2556TIP3    H131863   0.600   6.458   7.104  0.1918  0.1940  0.6706
 2556TIP3    H231864   0.706   6.350   7.104  0.6273  0.5844 -1.1417
 2557TIP3   OH231865   3.771   2.980   8.213  0.1547  0.0976 -0.2019
 2557TIP3    H131866   3.795   2.941   8.128 -1.8400  0.2931 -0.8889
 2557TIP3    H231867   3.745   2.905   8.266  2.0641 -0.1068  0.5255
 2558TIP3   OH231868   6.634   4.972   0.387  0.9697 -0.2031 -0.2834
 2558TIP3    H131869   6.701   5.012   0.442 -0.0138  0.6530  0.3235
 2558TIP3    H231870   6.617   4.887   0.428  0.9205  0.0303  0.1836
 2559TIP3   OH231871   3.589   7.152   0.058  0.0199 -0.0031  0.0894
 2559TIP3    H131872   3.532   7.114   0.126  0.4922 -0.4937  0.2184
 2559TIP3    H231873   3.545   7.233   0.033  0.1510  0.5084  1.4311
 2560TIP3   OH231874   4.743   3.078   0.720 -0.1102 -0.0217  0.1777
 2560TIP3    H131875   4.725   3.057   0.628  1.6183 -0.6733 -0.0587
 2560TIP3    H231876   4.678   3.029   0.769  0.1412 -1.2282 -0.6409
 2561TIP3   OH231877   1.916   3.007   0.171 -0.5496 -0.6258 -0.1174
 2561TIP3    H131878   1.932   2.940   0.237  0.6827 -2.1956 -1.9176
 2561TIP3    H231879   2.001   3.019   0.128 -0.8746  1.7126 -0.2215
 2562TIP3   OH231880   1.102   7.212   1.061 -0.4293 -0.4163 -0.2832
 2562TIP3    H131881   1.044   7.285   1.079 -0.7435 -0.8273  0.3703
 2562TIP3    H231882   1.057   7.162   0.993 -0.9120 -0.8263  0.3426
 2563TIP3   OH231883   6.682   2.888   9.020  0.0559 -0.0412 -0.1341
 2563TIP3    H131884   6.759   2.871   9.075 -0.8066  0.8891  1.4368
 2563TIP3    H231885   6.707   2.964   8.967 -0.0404  0.7921  0.9789
 2564TIP3   OH231886   7.361   3.606   0.140  0.3859 -0.1452  0.9485
 2564TIP3    H131887   7.300   3.597   0.066 -0.1478 -0.2664  1.3985
 2564TIP3    H231888   7.331   3.542   0.204 -0.1843  1.0758  1.9593
 2565TIP3   OH231889   4.945   3.547   8.766 -0.1218 -0.3203 -0.4859
 2565TIP3    H131890   4.960   3.508   8.680 -0.0173  0.0018 -0.6150
 2565TIP3    H231891   4.852   3.531   8.783 -0.1752 -0.2672 -0.7178
 2566TIP3   OH231892   0.935   5.844   8.296  0.6895 -0.1489  0.4243
 2566TIP3    H131893   1.019   5.889   8.294  0.7997 -0.3472  0.5609
 2566TIP3    H231894   0.904   5.847   8.205  2.2322 -2.6797 -0.2687
 2567TIP3   OH231895   6.156   0.628   0.215  0.1464  0.1378 -0.0806
 2567TIP3    H131896   6.074   0.594   0.252 -0.8822  1.4328 -1.1128
 2567TIP3    H231897   6.163   0.717   0.249  0.8879  0.2085 -0.4005
 2568TIP3   OH231898   4.103   2.605   9.036 -0.5512  0.2491  0.4752
 2568TIP3    H131899   4.171   2.539   9.049 -0.0167  0.8142  0.5915
 2568TIP3    H231900   4.145   2.673   8.984 -1.6724 -0.4054 -1.3829
 2569TIP3   OH231901   1.111   4.706   0.269 -0.8106 -0.3779  0.1653
 2569TIP3    H131902   1.054   4.774   0.233  0.5889  0.2027 -1.0489
 2569TIP3    H231903   1.111   4.637   0.203 -0.7943 -0.7686  0.5652
 2570TIP3   OH231904   1.448   4.553   9.637 -0.7236 -0.1607 -0.3858
 2570TIP3    H131905   1.378   4.488   9.627 -1.4346  0.3921  0.8029
 2570TIP3    H231906   1.466   4.554   9.731  1.9887 -1.4060 -0.8120
 2571TIP3   OH231907   2.236   3.339   1.145  0.2180 -0.3425 -0.3260
 2571TIP3    H131908   2.150   3.326   1.185  0.6931  0.5509  1.0810
 2571TIP3    H231909   2.227   3.304   1.057 -1.1687 -1.5911  0.2553
 2572TIP3   OH231910   3.298   6.126   2.754  0.3236 -0.2762  0.0668
 2572TIP3    H131911   3.343   6.174   2.685  1.1503 -0.5130  0.4289
 2572TIP3    H231912   3.245   6.193   2.799  0.6880  0.1037 -0.0627
 2573TIP3   OH231913   1.656   3.272   0.720 -0.8920  0.1365  0.7773
 2573TIP3    H131914   1.682   3.256   0.629  1.2337  2.8347  0.8257
 2573TIP3    H231915   1.582   3.212   0.733 -1.8376  0.2284 -2.9635
 2574TIP3   OH231916   2.713   6.197   7.830 -0.0082 -0.1210 -0.0553
 2574TIP3    H131917   2.773   6.195   7.756 -0.8294 -0.4670 -0.7378
 2574TIP3    H231918   2.646   6.262   7.804 -0.5908 -0.6361  0.1378
 2575TIP3   OH231919   5.419   4.946   7.924 -0.5490 -0.1538 -0.4140
 2575TIP3    H131920   5.507   4.974   7.899  0.1668 -2.5087 -0.7916
 2575TIP3    H231921   5.400   4.996   8.003  1.8380 -0.7850  0.6513
 2576TIP3   OH231922   2.104   1.665   7.871  0.2553  0.5424  0.3112
 2576TIP3    H131923   2.197   1.646   7.861  0.4735  1.5076  0.4201
 2576TIP3    H231924   2.079   1.709   7.790  0.1080  1.0868  0.6486
 2577TIP3   OH231925   6.098   0.095   8.634 -0.2667  0.3260  0.2516
 2577TIP3    H131926   6.012   0.135   8.638 -0.8269 -0.6513 -1.1648
 2577TIP3    H231927   6.134   0.124   8.550 -0.2431 -1.1968 -0.3040
 2578TIP3   OH231928   6.575   5.649   0.419 -0.1291  0.4549 -0.2071
 2578TIP3    H131929   6.567   5.742   0.398  0.0818  0.5726  0.2205
 2578TIP3    H231930   6.558   5.604   0.336  0.5160  0.8998 -0.5854
 2579TIP3   OH231931   0.155   6.679   1.720  0.1511  0.2581  0.0036
 2579TIP3    H131932   0.120   6.729   1.646 -0.8416 -0.1092  0.2058
 2579TIP3    H231933   0.179   6.594   1.683 -0.7624 -0.0846  0.1691
 2580TIP3   OH231934   4.551   2.489   2.346  0.1715  0.1071  0.4545
 2580TIP3    H131935   4.535   2.561   2.407 -0.9269  0.4605 -0.2154
 2580TIP3    H231936   4.496   2.417   2.378 -1.6534  0.8030 -0.9574
 2581TIP3   OH231937   4.981   6.936   0.600 -0.2532 -0.6102 -0.2839
 2581TIP3    H131938   4.931   6.906   0.676 -0.3563  0.0712 -0.0816
 2581TIP3    H231939   4.945   6.886   0.527  0.0604 -1.5047  0.1578
 2582TIP3   OH231940   2.101   3.661   7.610  0.5276 -0.0729  0.0090
 2582TIP3    H131941   2.123   3.728   7.675  0.9008 -0.5812  0.4273
 2582TIP3    H231942   2.012   3.635   7.632  0.0750  0.8743 -0.6844
 2583TIP3   OH231943   0.037   0.675   1.511 -0.5315  0.0691 -0.2177
 2583TIP3    H131944   0.016   0.711   1.425 -0.8286  1.3274  0.3465
 2583TIP3    H231945   0.122   0.632   1.499 -0.2689  0.7669 -0.9995
 2584TIP3   OH231946   6.277   2.353   1.456  0.0852  0.3711 -0.1434
 2584TIP3    H131947   6.314   2.269   1.429  1.8710  0.8376  0.6940
 2584TIP3    H231948   6.223   2.381   1.382 -1.3972 -1.9671 -0.0259
 2585TIP3   OH231949   4.541   1.470   2.734 -0.2116  0.1961  0.2474
 2585TIP3    H131950   4.459   1.468   2.684  0.8217  1.2130 -1.6394
 2585TIP3    H231951   4.587   1.390   2.708  0.3536  0.7548 -0.5351
 2586TIP3   OH231952   5.316   7.343   8.720  0.2884 -0.1881  0.4809
 2586TIP3    H131953   5.376   7.406   8.761  0.2576  0.3269 -0.2510
 2586TIP3    H231954   5.315   7.269   8.781  0.8201  0.2494  1.0434
 2587TIP3   OH231955   0.294   0.851   3.218  0.1867  0.3384  0.0922
 2587TIP3    H131956   0.296   0.947   3.222 -0.8747  0.3730 -0.0180
 2587TIP3    H231957   0.384   0.826   3.195  0.0829  1.4016 -1.6858
 2588TIP3   OH231958   7.262   4.782   8.292  0.5353 -0.0082  0.5086
 2588TIP3    H131959   7.320   4.705   8.293  0.4052 -0.1818 -1.2325
 2588TIP3    H231960   7.199   4.762   8.223 -0.5194  0.9635  1.1771
 2589TIP3   OH231961   3.884   4.269   1.883 -0.0762 -0.3065 -0.0596
 2589TIP3    H131962   3.891   4.364   1.872 -1.4340 -0.2187 -0.4062
 2589TIP3    H231963   3.870   4.236   1.794 -0.2016 -0.7595  0.1236
 2590TIP3   OH231964   5.394   5.317   1.286 -0.3097 -0.2594  0.1400
 2590TIP3    H131965   5.402   5.266   1.205  0.1396 -0.6825  0.4509
 2590TIP3    H231966   5.472   5.295   1.337 -0.3853  0.3173  0.5176
 2591TIP3   OH231967   2.318   3.556   1.336  0.0094 -0.1866  0.2545
 2591TIP3    H131968   2.255   3.501   1.288 -0.8412 -0.3001  1.4634
 2591TIP3    H231969   2.356   3.497   1.401  0.4326  0.2074  0.3638
 2592TIP3   OH231970   1.695   6.638   7.461  0.4129  0.2901  0.0249
 2592TIP3    H131971   1.751   6.652   7.538  1.5961  0.5235 -0.8422
 2592TIP3    H231972   1.668   6.547   7.467  0.3413  0.3600  0.8204
 2593TIP3   OH231973   3.097   4.636   7.804  0.4027  0.8567  0.0442
 2593TIP3    H131974   3.166   4.573   7.782  0.6400  0.8499  0.8040
 2593TIP3    H231975   3.042   4.639   7.725  0.7134  0.1352 -0.2088
 2594TIP3   OH231976   4.725   0.696   0.591 -0.0161  0.4083  0.4148
 2594TIP3    H131977   4.748   0.789   0.596 -0.0471  0.7266 -2.8498
 2594TIP3    H231978   4.724   0.677   0.497  0.0380 -2.9367  0.9717
 2595TIP3   OH231979   2.742   2.616   9.348  0.2611 -0.1586  0.0577
 2595TIP3    H131980   2.777   2.530   9.328  1.1832  0.3720 -0.6758
 2595TIP3    H231981   2.699   2.645   9.268 -1.6777 -0.6771  0.8526
 2596TIP3   OH231982   5.070   7.247   0.757  0.0229  0.0826  0.2705
 2596TIP3    H131983   5.048   7.252   0.664 -0.9897 -0.3605  0.4764
 2596TIP3    H231984   5.001   7.298   0.801  0.3078  0.0145  0.8084
 2597TIP3   OH231985   3.300   7.362   2.639  0.5404  0.6262  0.0013
 2597TIP3    H131986   3.307   7.456   2.625  0.7558  0.4816 -0.9332
 2597TIP3    H231987   3.389   7.333   2.658  0.5197  0.5694  0.0132
 2598TIP3   OH231988   4.712   3.084   0.041  0.5053  0.1481 -0.0744
 2598TIP3    H131989   4.618   3.085   0.026  0.8257 -0.3233 -2.4837
 2598TIP3    H231990   4.751   3.080  -0.046  2.7951  1.0230  0.8189
 2599TIP3   OH231991   5.353   4.186   9.464  0.9691 -0.2136  0.6242
 2599TIP3    H131992   5.404   4.215   9.540  1.0863 -0.4308  0.6286
 2599TIP3    H231993   5.349   4.263   9.407  2.9659 -0.7338 -0.2831
 2600TIP3   OH231994   4.416   3.939   6.757  0.0976  0.1469 -0.0896
 2600TIP3    H131995   4.484   3.882   6.721  0.5407 -0.1537  1.1368
 2600TIP3    H231996   4.386   3.992   6.683  0.3570 -1.0059 -1.0444
 2601TIP3   OH231997   4.097   2.484   8.141 -0.0030 -0.4011  0.3853
 2601TIP3    H131998   4.080   2.411   8.082 -0.4741  0.8480 -1.0889
 2601TIP3    H231999   4.192   2.482   8.155  0.4461  0.4229 -2.0525
 2602TIP3   OH232000   0.375   5.525   6.161 -0.0023  0.0682 -0.6920
 2602TIP3    H132001   0.313   5.486   6.100  0.6586 -1.0105 -0.6987
 2602TIP3    H232002   0.452   5.468   6.157 -0.7217 -1.3898  2.7912
 2603TIP3   OH232003   2.758   1.585   0.319 -0.0058 -0.0153 -0.2308
 2603TIP3    H132004   2.708   1.505   0.302 -0.8962  0.1113  1.6060
 2603TIP3    H232005   2.832   1.556   0.373  0.3327  0.2399 -0.5528
 2604TIP3   OH232006   6.980   6.720   1.729 -0.0956 -0.0705  0.2067
 2604TIP3    H132007   7.040   6.746   1.799 -0.4879  0.6881  0.2797
 2604TIP3    H232008   7.036   6.681   1.662  0.5231  0.8347  0.1742
 2605TIP3   OH232009   0.253   1.325   3.013 -0.0583 -0.1072  0.3439
 2605TIP3    H132010   0.302   1.380   2.952  0.0520  0.1414  0.6545
 2605TIP3    H232011   0.295   1.340   3.098  0.3485 -1.1056  0.3416
 2606TIP3   OH232012   3.139   2.470   0.947 -0.8691  0.6161 -0.8247
 2606TIP3    H132013   3.201   2.402   0.920 -0.3744  1.4170 -1.7836
 2606TIP3    H232014   3.075   2.474   0.875 -1.8933 -0.0157  0.0293
 2607TIP3   OH232015   2.335   4.407   0.913 -0.0245  0.3415  0.0640
 2607TIP3    H132016   2.411   4.413   0.970  0.6364  1.3852 -0.8888
 2607TIP3    H232017   2.320   4.497   0.883 -0.2575 -0.1874 -1.5035
 2608TIP3   OH232018   5.190   6.118   1.549 -0.0066  0.5654  0.3397
 2608TIP3    H132019   5.100   6.146   1.536 -0.0269  0.7809  0.9210
 2608TIP3    H232020   5.242   6.186   1.504 -0.0802  1.2600  1.2754
 2609TIP3   OH232021   5.036   7.148   9.630 -0.1042 -0.6100  0.5116
 2609TIP3    H132022   5.119   7.101   9.629  0.3336  0.1198 -1.4333
 2609TIP3    H232023   4.995   7.126   9.547 -1.4181 -0.1749  1.0198
 2610TIP3   OH232024   4.656   3.614   7.655 -0.6328  0.9093  0.5255
 2610TIP3    H132025   4.736   3.566   7.676 -2.1629 -1.8247  0.5609
 2610TIP3    H232026   4.654   3.686   7.718  0.6997 -0.2649  2.0077
 2611TIP3   OH232027   0.937   4.925   1.365 -0.0574  0.8144  0.6502
 2611TIP3    H132028   1.019   4.915   1.318  0.6220  1.7876  1.5849
 2611TIP3    H232029   0.872   4.881   1.310  0.9529  0.6805 -0.4700
 2612TIP3   OH232030   3.302   0.713   8.888 -0.1197 -0.6185  0.2342
 2612TIP3    H132031   3.355   0.638   8.862  0.3407 -0.8676  1.7688
 2612TIP3    H232032   3.287   0.699   8.982 -1.9420  0.0349  0.0737
 2613TIP3   OH232033   5.804   3.301   7.397  0.0389  0.3165  0.3074
 2613TIP3    H132034   5.767   3.301   7.485  1.9303 -0.5899  1.1433
 2613TIP3    H232035   5.886   3.349   7.405  1.8276 -2.4350 -0.1834
 2614TIP3   OH232036   6.514   3.903   3.052  0.2782  0.4586 -0.4415
 2614TIP3    H132037   6.557   3.938   3.130  1.5713 -1.9495  0.0298
 2614TIP3    H232038   6.571   3.929   2.979  1.5426 -1.0206 -0.0353
 2615TIP3   OH232039   1.909   5.951   8.463  0.0278 -0.3331  0.6616
 2615TIP3    H132040   1.931   5.984   8.550 -0.9839 -0.0687  0.8308
 2615TIP3    H232041   1.849   5.879   8.480  1.4554 -1.6806  0.2534
 2616TIP3   OH232042   5.998   6.145   8.123  0.0524  0.2055 -0.1512
 2616TIP3    H132043   5.952   6.226   8.101  0.6209  0.3588 -0.7944
 2616TIP3    H232044   5.948   6.076   8.079 -0.2345  0.2399  0.1172
 2617TIP3   OH232045   0.260   1.567   8.222 -0.5059  1.0739 -0.0906
 2617TIP3    H132046   0.354   1.579   8.207 -0.3557  0.5793  0.4379
 2617TIP3    H232047   0.251   1.564   8.317 -1.1676  1.9508 -0.1044
 2618TIP3   OH232048   6.729   1.396   7.573  0.2426  0.0174  0.4046
 2618TIP3    H132049   6.781   1.444   7.637  0.3637 -0.5719  0.7527
 2618TIP3    H232050   6.764   1.424   7.488 -0.8882  1.9198  0.5131
 2619TIP3   OH232051   4.674   0.164   7.458 -0.8962  0.2836  0.0532
 2619TIP3    H132052   4.643   0.252   7.479  0.9148  1.0144 -0.1493
 2619TIP3    H232053   4.668   0.159   7.363 -0.6935  0.3143  0.0387
 2620TIP3   OH232054   4.407   1.228   2.472 -0.0525  0.0702  0.3776
 2620TIP3    H132055   4.378   1.247   2.383 -0.9079  0.1704  0.6638
 2620TIP3    H232056   4.368   1.297   2.525 -0.2067 -0.4318  0.9317
 2621TIP3   OH232057   1.277   6.968   7.351  0.0191  0.1173  0.2338
 2621TIP3    H132058   1.349   6.905   7.353 -1.0780 -1.2831 -0.9553
 2621TIP3    H232059   1.221   6.937   7.279  1.8891  5.2712 -4.1486
 2622TIP3   OH232060   2.895   3.192   0.045 -0.0390 -0.6087 -0.6055
 2622TIP3    H132061   2.820   3.224   0.095 -0.5984 -1.0796 -1.1211
 2622TIP3    H232062   2.925   3.269  -0.004  1.6454  0.3384  1.7367
 2623TIP3   OH232063   7.292   5.459   0.407 -0.4142  0.4181 -0.2262
 2623TIP3    H132064   7.217   5.505   0.444 -1.9799 -1.5543 -0.7458
 2623TIP3    H232065   7.258   5.417   0.328  0.9915 -1.2589 -0.0108
 2624TIP3   OH232066   4.444   3.304   7.973 -0.0261 -0.2639  0.1329
 2624TIP3    H132067   4.400   3.385   7.947  0.5632  0.4652  1.3599
 2624TIP3    H232068   4.527   3.306   7.927  0.0964 -0.0427  0.3618
 2625TIP3   OH232069   5.531   5.457   0.894 -0.1824  0.0293  0.1546
 2625TIP3    H132070   5.455   5.474   0.950  0.7443 -2.2360  2.3228
 2625TIP3    H232071   5.505   5.383   0.840  0.3572 -0.6023  0.7394
 2626TIP3   OH232072   1.638   3.448   0.157 -0.1097 -0.1224 -0.3555
 2626TIP3    H132073   1.643   3.366   0.205 -0.7077  1.3409  2.4026
 2626TIP3    H232074   1.718   3.495   0.179 -0.8489  1.0018  0.0659
 2627TIP3   OH232075   4.881   7.403   9.086  0.5372  0.3435 -0.5576
 2627TIP3    H132076   4.900   7.310   9.072  1.9912  1.0323 -4.2956
 2627TIP3    H232077   4.785   7.408   9.079  0.3130 -0.9443  0.8864
 2628TIP3   OH232078   4.794   0.135   1.442 -0.1032 -0.0965 -0.1530
 2628TIP3    H132079   4.815   0.043   1.430 -0.8710 -0.2045 -0.7887
 2628TIP3    H232080   4.770   0.143   1.534 -1.0008 -0.7477 -0.3204
 2629TIP3   OH232081   3.344   3.381   1.359  0.2821 -0.6641 -0.0124
 2629TIP3    H132082   3.414   3.439   1.389  0.5558 -0.2717 -1.3230
 2629TIP3    H232083   3.330   3.321   1.431  1.8368 -0.6185  0.3635
 2630TIP3   OH232084   2.153   6.601   0.735  0.2466  0.0409  0.0893
 2630TIP3    H132085   2.125   6.510   0.728  0.4328  0.1019 -2.4405
 2630TIP3    H232086   2.072   6.650   0.749 -0.2840 -0.3076 -1.4727
 2631TIP3   OH232087   6.172   3.617   0.255  0.0936  0.1586  0.1332
 2631TIP3    H132088   6.254   3.665   0.254 -0.3076  0.8480 -0.1834
 2631TIP3    H232089   6.196   3.529   0.287  0.5898  1.0011  2.2849
 2632TIP3   OH232090   0.105   4.084   7.570 -0.1180  0.5068 -0.3263
 2632TIP3    H132091   0.130   4.128   7.489  0.0918 -0.8906 -1.0551
 2632TIP3    H232092   0.179   4.096   7.629  0.8369 -0.5854 -1.2405
 2633TIP3   OH232093   6.356   6.396   9.104  0.3199 -0.5816 -0.3237
 2633TIP3    H132094   6.378   6.489   9.100 -0.6188 -0.3356 -0.1325
 2633TIP3    H232095   6.292   6.389   9.175  0.5354 -1.4107 -0.1978
 2634TIP3   OH232096   3.230   6.862   0.598 -1.1300 -0.2300 -0.0679
 2634TIP3    H132097   3.230   6.794   0.666 -2.1331  0.9690  1.1841
 2634TIP3    H232098   3.138   6.875   0.576 -1.2258  2.3056  1.4358
 2635TIP3   OH232099   1.405   5.338   1.611  0.0659 -0.3032  0.1820
 2635TIP3    H132100   1.451   5.414   1.645  0.3600 -0.8668  1.0797
 2635TIP3    H232101   1.475   5.277   1.586 -0.1044  0.3168 -2.0638
 2636TIP3   OH232102   0.644   2.754   8.583 -0.2878  0.4213  0.1899
 2636TIP3    H132103   0.563   2.751   8.531  0.5835  0.7222 -1.2165
 2636TIP3    H232104   0.712   2.780   8.521  0.9589 -0.1196  1.2820
 2637TIP3   OH232105   5.611   1.558   0.915  0.1227 -0.0753  0.3594
 2637TIP3    H132106   5.637   1.514   0.996 -1.0529 -1.3009  0.1255
 2637TIP3    H232107   5.642   1.500   0.846  3.1158  2.0333 -0.2693
 2638TIP3   OH232108   3.252   5.845   6.948 -0.0693  0.1198  0.0902
 2638TIP3    H132109   3.191   5.872   6.880  0.7158  0.8434 -0.3543
 2638TIP3    H232110   3.301   5.925   6.969  1.5427 -0.6775 -0.4273
 2639TIP3   OH232111   7.380   1.734   8.403  0.3022  0.0075  0.1462
 2639TIP3    H132112   7.392   1.639   8.400 -1.7601 -0.2662 -1.4429
 2639TIP3    H232113   7.303   1.747   8.458 -0.8988  0.5189 -1.5559
 2640TIP3   OH232114   0.151   0.770   0.454  0.2492  0.0922  0.4171
 2640TIP3    H132115   0.243   0.780   0.432  0.3282 -1.9947 -0.3988
 2640TIP3    H232116   0.104   0.789   0.372 -0.0258  0.6626  0.6999
 2641TIP3   OH232117   4.949   5.245   2.018 -0.4887  0.4046  1.0361
 2641TIP3    H132118   4.983   5.163   2.054  0.7848  0.2047 -0.5093
 2641TIP3    H232119   5.005   5.313   2.055 -1.6767  0.6611  2.4862
 2642TIP3   OH232120   6.137   0.625   8.085  0.5030 -0.0474 -0.0383
 2642TIP3    H132121   6.045   0.648   8.069  0.8340 -0.4907 -3.0589
 2642TIP3    H232122   6.135   0.530   8.098  0.5500 -0.0967 -0.3806
 2643TIP3   OH232123   6.265   0.471   6.600 -0.2668  0.0121 -0.7276
 2643TIP3    H132124   6.223   0.386   6.614 -0.9267  0.4423 -0.0156
 2643TIP3    H232125   6.210   0.514   6.535 -0.1260  0.0233 -0.8385
 2644TIP3   OH232126   5.617   1.773   7.248  0.0944 -0.2375 -0.2300
 2644TIP3    H132127   5.566   1.794   7.170 -1.7038  0.7407  1.1436
 2644TIP3    H232128   5.707   1.795   7.224 -0.5818  1.1540 -1.6515
 2645TIP3   OH232129   5.588   7.325   8.550 -0.3893 -0.3298  0.0328
 2645TIP3    H132130   5.521   7.359   8.609 -0.0636  1.3326 -0.5003
 2645TIP3    H232131   5.604   7.396   8.488  0.6333 -1.3290 -0.9077
 2646TIP3   OH232132   5.460   5.901   7.381 -0.0231  0.1297 -0.6141
 2646TIP3    H132133   5.501   5.852   7.310  1.3932 -2.3346  1.7048
 2646TIP3    H232134   5.366   5.892   7.367  0.2076  0.5069 -2.6241
 2647TIP3   OH232135   1.339   4.725   6.902 -0.2600 -0.3105  0.3355
 2647TIP3    H132136   1.400   4.666   6.857  0.4664  0.8899 -0.3029
 2647TIP3    H232137   1.253   4.690   6.881  0.1133 -0.4493 -1.0670
 2648TIP3   OH232138   4.839   4.283   0.979  0.3418  0.3912 -0.2345
 2648TIP3    H132139   4.903   4.343   0.941  1.3228  0.1535  0.9736
 2648TIP3    H232140   4.760   4.335   0.990 -0.0684  0.4239 -2.7153
 2649TIP3   OH232141   6.374   4.956   7.344  0.4400 -0.1115 -0.0293
 2649TIP3    H132142   6.400   4.895   7.274  1.0375  0.9293 -0.7463
 2649TIP3    H232143   6.306   5.010   7.304 -0.3095 -0.4919  0.7029
 2650TIP3   OH232144   5.537   6.854   7.811  0.2862  0.5978 -0.4747
 2650TIP3    H132145   5.604   6.910   7.850 -0.7843  1.1187  0.6656
 2650TIP3    H232146   5.466   6.913   7.786 -0.4668 -0.1217 -0.1124
 2651TIP3   OH232147   2.765   5.199   7.826 -0.2852  0.6962  0.3279
 2651TIP3    H132148   2.682   5.157   7.845 -0.6784  0.9597 -0.7501
 2651TIP3    H232149   2.797   5.156   7.746  0.2696  1.0775  0.3339
 2652TIP3   OH232150   5.435   3.319   8.489 -0.6652 -0.0318 -0.5697
 2652TIP3    H132151   5.403   3.358   8.408  0.4296  0.8760 -0.5928
 2652TIP3    H232152   5.526   3.294   8.470 -0.9433 -1.4596 -0.1545
 2653TIP3   OH232153   4.347   5.069   7.224 -0.0150  0.7357  0.2641
 2653TIP3    H132154   4.293   5.038   7.297 -1.4578  0.0011 -1.0573
 2653TIP3    H232155   4.310   5.155   7.202 -0.3713  0.4252 -0.3637
 2654TIP3   OH232156   4.203   0.964   7.494 -0.2720 -0.3085  0.0277
 2654TIP3    H132157   4.149   1.009   7.558  0.7072  0.8226  0.0829
 2654TIP3    H232158   4.277   1.023   7.479  0.7914 -1.6761 -0.2740
 2655TIP3   OH232159   2.426   7.103   0.181 -0.3933 -0.1632  0.0890
 2655TIP3    H132160   2.482   7.118   0.257  0.4253  0.0670 -0.5427
 2655TIP3    H232161   2.342   7.143   0.204 -0.2921 -0.4687  1.0333
 2656TIP3   OH232162   3.525   3.231   9.076 -0.7184  0.7991  0.2554
 2656TIP3    H132163   3.520   3.232   9.172  0.0190 -0.1972  0.3112
 2656TIP3    H232164   3.615   3.258   9.056  0.1221 -1.9714 -0.0338
 2657TIP3   OH232165   5.197   3.345   1.238  0.5089 -0.2147 -0.2334
 2657TIP3    H132166   5.107   3.314   1.245  0.7217 -0.6867  0.5664
 2657TIP3    H232167   5.192   3.439   1.253  0.2363 -0.3610  0.6442
 2658TIP3   OH232168   3.875   0.431   9.242  0.3810  0.1437  0.0699
 2658TIP3    H132169   3.920   0.426   9.158 -0.2221  2.9666 -0.5566
 2658TIP3    H232170   3.916   0.505   9.286 -1.7570  1.0982  0.6089
 2659TIP3   OH232171   6.793   4.326   7.784  0.1101  0.1335  0.0355
 2659TIP3    H132172   6.792   4.263   7.856  1.3303  0.8588  0.7124
 2659TIP3    H232173   6.701   4.347   7.770 -0.2879 -1.4692  0.0716
 2660TIP3   OH232174   1.292   4.067   2.452 -0.1373  0.2250 -0.1969
 2660TIP3    H132175   1.336   4.140   2.408  0.7159  0.7683  1.4847
 2660TIP3    H232176   1.235   4.030   2.385  0.2202  1.7536 -1.4035
 2661TIP3   OH232177   6.776   5.323   8.491  0.1111  0.4511  0.0727
 2661TIP3    H132178   6.784   5.393   8.426  0.5311  1.7013  1.3981
 2661TIP3    H232179   6.864   5.314   8.527  0.3715 -1.7419 -0.9885
 2662TIP3   OH232180   4.067   7.290   1.929 -0.3872 -0.5252  0.0053
 2662TIP3    H132181   4.118   7.316   2.005  0.7052 -0.4814 -0.7156
 2662TIP3    H232182   4.132   7.279   1.859 -1.3993 -0.1221 -1.0366
 2663TIP3   OH232183   6.844   1.530   0.017 -0.6621  0.2788  0.2333
 2663TIP3    H132184   6.751   1.541   0.037 -0.4878  2.0163  0.2369
 2663TIP3    H232185   6.846   1.506  -0.076 -1.0866  1.3326 -0.0639
 2664TIP3   OH232186   5.160   5.963   0.020 -0.4849 -0.3035  0.7070
 2664TIP3    H132187   5.219   5.996  -0.047 -0.5080 -0.7154  0.4824
 2664TIP3    H232188   5.088   5.924  -0.028 -0.1357 -1.2823  0.9469
 2665TIP3   OH232189   6.994   3.232   8.856 -0.0289 -0.1141  0.0125
 2665TIP3    H132190   7.025   3.220   8.766 -0.7308 -1.4186 -0.0663
 2665TIP3    H232191   7.023   3.321   8.879 -0.1812  0.3955 -1.6290
 2666TIP3   OH232192   1.762   1.232   8.965  0.2964  0.2111  0.2613
 2666TIP3    H132193   1.694   1.221   8.900  0.4998  0.7207 -0.0425
 2666TIP3    H232194   1.807   1.147   8.967 -0.4647 -0.2010  0.6155
 2667TIP3   OH232195   3.170   5.452   6.489 -0.5826  0.3232  0.0742
 2667TIP3    H132196   3.102   5.405   6.537 -0.6538 -1.0825 -1.3325
 2667TIP3    H232197   3.122   5.502   6.422 -0.2950  0.0114 -0.3678
 2668TIP3   OH232198   5.624   5.096   8.412 -0.3100  0.2121  0.2441
 2668TIP3    H132199   5.606   5.188   8.433  0.3008  0.9047 -1.9968
 2668TIP3    H232200   5.537   5.058   8.397 -0.5110  1.7889 -3.7580
 2669TIP3   OH232201   6.043   7.094   0.749  0.0297  0.3909  0.0998
 2669TIP3    H132202   5.994   7.014   0.728 -0.9131  1.1932 -0.8951
 2669TIP3    H232203   5.980   7.165   0.735  0.1644  1.2329  2.9884
 2670TIP3   OH232204   2.179   3.388   7.386  0.0330 -0.2313  0.1356
 2670TIP3    H132205   2.256   3.371   7.441  0.6204  0.2341 -0.5329
 2670TIP3    H232206   2.183   3.482   7.369 -0.8059 -0.1669  0.2692
 2671TIP3   OH232207   5.778   0.099   7.481  0.1134  0.0018 -0.3548
 2671TIP3    H132208   5.707   0.134   7.535 -0.1862  0.1231 -0.8244
 2671TIP3    H232209   5.754   0.007   7.467  0.2371 -0.0534 -0.2063
 2672TIP3   OH232210   2.894   0.223   6.957 -0.4929 -0.2380  0.2425
 2672TIP3    H132211   2.982   0.215   6.920  0.1651  1.0132  1.4495
 2672TIP3    H232212   2.847   0.278   6.895 -0.1487 -0.1994  0.0114
 2673TIP3   OH232213   6.332   4.068   0.501  0.1067 -0.0708  0.0557
 2673TIP3    H132214   6.382   4.015   0.440 -1.1401 -0.0390 -1.0572
 2673TIP3    H232215   6.334   4.156   0.464  2.1718  0.7483  1.8908
 2674TIP3   OH232216   2.606   7.290   1.311 -0.6375 -0.1639 -0.5583
 2674TIP3    H132217   2.610   7.249   1.397 -0.9335  1.6773  0.3924
 2674TIP3    H232218   2.577   7.221   1.252  0.2158 -1.6370  0.6980
 2675TIP3   OH232219   6.259   2.522   7.187 -0.3700 -0.2428 -0.2334
 2675TIP3    H132220   6.189   2.575   7.225 -0.7655  0.1434 -1.4713
 2675TIP3    H232221   6.237   2.515   7.094  2.3218  1.6663 -1.1421
 2676TIP3   OH232222   2.903   2.802   9.107  0.1722 -0.3991 -0.2228
 2676TIP3    H132223   2.818   2.778   9.144  0.0346  0.6717  0.1856
 2676TIP3    H232224   2.918   2.736   9.039 -1.3202 -0.2081 -0.7940
 2677TIP3   OH232225   4.079   5.888   9.288  0.7250 -0.1292  0.1141
 2677TIP3    H132226   4.009   5.846   9.238  0.7184  0.4313 -0.3518
 2677TIP3    H232227   4.140   5.816   9.309  0.9724 -0.2957 -1.0986
 2678TIP3   OH232228   6.038   1.456   7.842 -0.4796  0.6046 -0.6864
 2678TIP3    H132229   5.943   1.459   7.858 -0.3291 -1.3201  0.9411
 2678TIP3    H232230   6.049   1.384   7.780 -0.0452  0.4744 -0.4592
 2679TIP3   OH232231   6.819   6.795   2.711 -0.6601 -0.0053  0.0701
 2679TIP3    H132232   6.848   6.880   2.744 -1.8601  0.2604  0.4764
 2679TIP3    H232233   6.729   6.809   2.682 -0.8220 -1.0929 -0.0129
 2680TIP3   OH232234   5.138   5.260   7.442  0.3756  0.0251  0.3505
 2680TIP3    H132235   5.161   5.237   7.352  1.2042 -0.3451  0.6430
 2680TIP3    H232236   5.208   5.320   7.469  0.1478  0.1086  0.7618
 2681TIP3   OH232237   3.806   2.783   8.539 -0.3750 -0.6361  0.4952
 2681TIP3    H132238   3.857   2.742   8.609  0.5162 -0.6651 -0.1519
 2681TIP3    H232239   3.817   2.725   8.464  2.6907  1.6853 -1.1126
 2682TIP3   OH232240   3.880   7.347   2.232 -0.4267  0.3976  0.2022
 2682TIP3    H132241   3.859   7.371   2.322 -0.5232 -4.4879  1.7677
 2682TIP3    H232242   3.970   7.379   2.220 -1.3286  3.5621  0.8542
 2683TIP3   OH232243   5.373   3.243   2.308  0.1786  0.3187 -0.4797
 2683TIP3    H132244   5.464   3.271   2.308  0.2995 -0.0399  0.5209
 2683TIP3    H232245   5.363   3.193   2.389 -0.6619 -0.4588 -1.0431
 2684TIP3   OH232246   4.839   3.637   0.276 -0.2592 -0.6188  0.0052
 2684TIP3    H132247   4.823   3.589   0.357 -0.3531 -0.6666 -0.0417
 2684TIP3    H232248   4.779   3.598   0.212  0.1451 -0.8876 -0.2065
 2685TIP3   OH232249   0.461   0.684   8.924 -0.1725 -0.5059 -0.1226
 2685TIP3    H132250   0.493   0.690   9.014 -0.8774 -0.9471  0.1705
 2685TIP3    H232251   0.434   0.773   8.902  0.9398 -0.1912 -0.2671
 2686TIP3   OH232252   3.055   7.054   7.946 -0.1777 -0.5051 -0.5941
 2686TIP3    H132253   3.048   7.149   7.939 -0.5807 -0.4375  0.5362
 2686TIP3    H232254   3.134   7.039   7.998 -0.0370 -0.8041 -0.8863
 2687TIP3   OH232255   4.369   1.992   8.219  0.2995 -0.5830 -0.3128
 2687TIP3    H132256   4.323   1.971   8.300  0.9988  0.4489  0.3766
 2687TIP3    H232257   4.306   2.042   8.168  0.8663  1.6337  1.0177
 2688TIP3   OH232258   6.148   2.958   9.443 -0.4708 -0.3166  0.2183
 2688TIP3    H132259   6.166   3.051   9.429 -3.2231  0.6917  2.3608
 2688TIP3    H232260   6.157   2.919   9.357  3.0036  1.4320 -0.3766
 2689TIP3   OH232261   6.526   6.679   1.981  0.0706  0.0057 -0.8220
 2689TIP3    H132262   6.609   6.677   1.934  1.1365  0.1946  0.9627
 2689TIP3    H232263   6.495   6.588   1.978  2.1889 -0.9219  1.4945
 2690TIP3   OH232264   1.477   2.968   1.189  0.4464 -0.4872  0.0482
 2690TIP3    H132265   1.421   2.911   1.242  0.2983 -0.1778  0.2318
 2690TIP3    H232266   1.560   2.922   1.184  0.5700 -0.3715  0.8298
 2691TIP3   OH232267   3.485   6.352   8.001  0.4384 -0.3716  0.0607
 2691TIP3    H132268   3.515   6.416   8.066  1.8568 -0.9474 -0.0015
 2691TIP3    H232269   3.473   6.402   7.921 -0.6474  0.2147  0.5617
 2692TIP3   OH232270   7.053   4.735   8.111  0.5578  0.2990  0.0538
 2692TIP3    H132271   7.064   4.792   8.035  1.3207  0.2698  0.1371
 2692TIP3    H232272   6.960   4.742   8.133 -0.0224 -0.8913 -1.8247
 2693TIP3   OH232273   5.391   1.796   7.649  0.8760  0.2954  0.3631
 2693TIP3    H132274   5.337   1.857   7.699  2.1755  0.9310  1.0669
 2693TIP3    H232275   5.428   1.850   7.579 -2.2985 -0.9584 -2.4905
 2694TIP3   OH232276   3.326   6.728   9.003 -0.2330  0.2520 -0.7094
 2694TIP3    H132277   3.312   6.665   9.073 -0.4648  2.4145  1.3029
 2694TIP3    H232278   3.420   6.721   8.984  0.3969  1.3702  1.6600
 2695TIP3   OH232279   5.299   6.883   8.431 -0.0536  0.3792  0.0314
 2695TIP3    H132280   5.237   6.949   8.463 -0.8236 -0.4090  0.2248
 2695TIP3    H232281   5.267   6.861   8.344 -0.0558 -0.0415  0.1361
 2696TIP3   OH232282   0.042   3.654   1.571 -0.0484  0.4557 -0.0542
 2696TIP3    H132283  -0.005   3.723   1.524 -1.1626 -0.2280  0.0201
 2696TIP3    H232284  -0.026   3.591   1.595  1.2516 -2.3605 -2.9631
 2697TIP3   OH232285   4.089   5.952   2.676 -0.9346 -0.3689 -0.0403
 2697TIP3    H132286   4.096   6.045   2.652 -0.1232 -0.7801 -1.4687
 2697TIP3    H232287   4.017   5.950   2.739 -0.4810  1.3354  0.6042
 2698TIP3   OH232288   5.000   5.039   2.184  0.0944  0.1679  0.0683
 2698TIP3    H132289   5.068   4.997   2.237 -2.2863 -1.9912  1.6529
 2698TIP3    H232290   4.924   5.044   2.242 -0.8077  3.7842 -1.1599
 2699TIP3   OH232291   6.434   3.455   0.428 -0.5831  0.4472  0.2821
 2699TIP3    H132292   6.418   3.527   0.366 -0.9183  1.1855  1.2099
 2699TIP3    H232293   6.368   3.389   0.405  1.1471 -0.6148 -2.0644
 2700TIP3   OH232294   3.790   4.205   9.008  0.4212  0.0171 -0.3187
 2700TIP3    H132295   3.697   4.184   9.007  0.4284 -0.1168 -2.3716
 2700TIP3    H232296   3.796   4.289   9.054 -1.0272  1.2022 -2.1518
 2701TIP3   OH232297   2.677   4.909   1.549 -0.4627  0.5707 -0.8477
 2701TIP3    H132298   2.582   4.912   1.537 -0.8546  1.1114  1.8026
 2701TIP3    H232299   2.689   4.888   1.642  2.0392 -0.3620 -1.2866
 2702TIP3   OH232300   0.640   0.001   0.654 -0.1255 -0.1399  0.4600
 2702TIP3    H132301   0.698  -0.067   0.689 -0.9631 -0.7253  0.7458
 2702TIP3    H232302   0.597   0.038   0.732  0.2574  0.6726  0.3020
 2703TIP3   OH232303   3.465   2.142   9.225 -0.0968  0.5316  0.0760
 2703TIP3    H132304   3.533   2.207   9.244 -0.7374  1.3818 -0.4763
 2703TIP3    H232305   3.413   2.181   9.156  0.6033 -1.3612 -1.6289
 2704TIP3   OH232306   1.030   1.444   1.650  0.0059 -0.3789  0.4178
 2704TIP3    H132307   1.096   1.376   1.659 -0.0693 -0.3108  1.7708
 2704TIP3    H232308   1.077   1.518   1.610  0.2640 -0.9539 -0.3716
 2705TIP3   OH232309   7.400   1.402   9.407 -0.4842  0.7174 -0.5025
 2705TIP3    H132310   7.344   1.468   9.367 -1.3400  1.0613  1.1828
 2705TIP3    H232311   7.443   1.448   9.480 -0.6284 -0.4042  0.3181
 2706TIP3   OH232312   2.251   2.814   1.383 -0.4608  0.0316  0.4133
 2706TIP3    H132313   2.242   2.845   1.293 -0.3731 -1.4157 -0.1235
 2706TIP3    H232314   2.239   2.892   1.437  1.7634  1.3972 -0.9060
 2707TIP3   OH232315   2.580   4.670   6.866 -0.0676 -0.2311  0.6106
 2707TIP3    H132316   2.496   4.625   6.854 -0.8520  1.1227  0.8552
 2707TIP3    H232317   2.568   4.721   6.946  0.8217  0.3898  0.3583
 2708TIP3   OH232318   1.883   3.490   9.326  0.2187  0.1311  0.5144
 2708TIP3    H132319   1.871   3.541   9.406  1.2436  0.6087  0.3782
 2708TIP3    H232320   1.795   3.484   9.288 -0.4029 -0.6292  1.9728
 2709TIP3   OH232321   3.138   6.011   7.749  0.4397  0.0133 -0.8871
 2709TIP3    H132322   3.072   5.986   7.814  0.5462  0.1356 -0.7307
 2709TIP3    H232323   3.120   6.103   7.730  1.0229  0.2559 -0.2930
 2710TIP3   OH232324   2.424   3.092   7.273 -0.0976  0.3512  0.4418
 2710TIP3    H132325   2.515   3.075   7.250 -0.2908  1.5341 -1.4303
 2710TIP3    H232326   2.383   3.115   7.190 -2.6420 -2.2249  0.8037
 2711TIP3   OH232327   2.391   7.094   8.164  0.2831  0.1242 -0.6441
 2711TIP3    H132328   2.454   7.166   8.173  1.9244 -1.0137 -2.2729
 2711TIP3    H232329   2.440   7.024   8.121 -1.1487 -2.1434  1.1828
 2712TIP3   OH232330   1.107   0.167   7.234  0.0047  0.3341 -0.4351
 2712TIP3    H132331   1.016   0.137   7.246  0.1508  0.5074  1.3773
 2712TIP3    H232332   1.099   0.248   7.184 -0.5975 -1.1251 -2.8897
 2713TIP3   OH232333   3.899   4.482   0.005  0.2065  0.0863 -0.3625
 2713TIP3    H132334   3.866   4.393  -0.006  1.1070 -0.1455 -1.3202
 2713TIP3    H232335   3.966   4.492  -0.063 -0.4371  1.7592 -0.8041
 2714TIP3   OH232336   3.589   3.537   9.658 -0.3540 -0.0036 -0.5505
 2714TIP3    H132337   3.562   3.624   9.689 -0.9647  0.2600 -1.7654
 2714TIP3    H232338   3.536   3.522   9.579  1.7805 -0.2314 -2.0270
 2715TIP3   OH232339   1.120   0.892   1.581 -0.6680  0.2558 -0.4673
 2715TIP3    H132340   1.096   0.805   1.613  2.3097  0.6185  3.3560
 2715TIP3    H232341   1.084   0.953   1.646 -1.5913  1.9256 -2.3861
 2716TIP3   OH232342   5.745   6.418   9.445 -0.1791  0.1870 -0.0002
 2716TIP3    H132343   5.669   6.366   9.471 -1.1764  1.9390  0.7016
 2716TIP3    H232344   5.813   6.352   9.427 -0.7246 -1.3093  2.8493
 2717TIP3   OH232345   2.579   6.545   1.733  0.3415 -0.5386  0.0247
 2717TIP3    H132346   2.613   6.464   1.695  1.4717 -0.6186  1.1391
 2717TIP3    H232347   2.653   6.581   1.782  0.2302  1.7532 -1.3063
 2718TIP3   OH232348   1.332   6.783   7.624  0.3050  0.2699  0.0886
 2718TIP3    H132349   1.291   6.862   7.587 -1.9162 -0.5107  0.6943
 2718TIP3    H232350   1.300   6.781   7.715 -0.5581 -1.8442 -0.2116
 2719TIP3   OH232351   3.954   6.638   8.245 -0.7617  0.1136  0.0094
 2719TIP3    H132352   3.886   6.587   8.290 -0.7321 -0.5634 -0.6898
 2719TIP3    H232353   3.905   6.708   8.200 -1.3383 -1.7204 -2.4176
 2720TIP3   OH232354   4.108   5.493   2.174  0.4992 -0.4696 -0.0334
 2720TIP3    H132355   4.195   5.455   2.184  1.0255  0.7519  0.2223
 2720TIP3    H232356   4.049   5.429   2.212  1.3614 -1.0110  0.4227
 2721TIP3   OH232357   6.987   2.323   1.241 -0.1155 -0.5663  1.2956
 2721TIP3    H132358   7.056   2.274   1.197 -0.3988 -0.4866  0.7567
 2721TIP3    H232359   7.025   2.345   1.326  0.5366 -0.4989  0.9996
 2722TIP3   OH232360   4.080   0.132   1.890  0.3453 -0.0302 -0.3538
 2722TIP3    H132361   4.175   0.140   1.896  0.3027 -0.2617  0.8082
 2722TIP3    H232362   4.059   0.056   1.944 -0.5887  0.5601  0.1322
 2723TIP3   OH232363   5.596   1.048   0.441  0.1950 -0.5902 -0.2327
 2723TIP3    H132364   5.636   1.105   0.375  0.0932  0.7385  0.8120
 2723TIP3    H232365   5.543   0.987   0.390  2.5131 -1.6213 -1.5816
 2724TIP3   OH232366   7.144   6.773   7.365 -0.4711  0.2522  0.1218
 2724TIP3    H132367   7.102   6.736   7.443 -1.7003  1.7794  0.2334
 2724TIP3    H232368   7.210   6.709   7.340 -1.2640 -1.0975  1.3791
 2725TIP3   OH232369   5.001   2.677   1.628 -0.2258  0.1121 -0.6673
 2725TIP3    H132370   4.911   2.710   1.637 -1.2829 -2.6800  0.0753
 2725TIP3    H232371   5.047   2.712   1.704  0.0591  3.4255 -2.1977
 2726TIP3   OH232372   2.212   6.204   6.772  0.1265 -0.4565 -0.0450
 2726TIP3    H132373   2.280   6.137   6.769  3.4692  2.6435 -0.7156
 2726TIP3    H232374   2.222   6.245   6.858 -1.3510 -0.2748  0.0773
 2727TIP3   OH232375   3.456   4.255   2.288  0.2173 -0.8640  0.1209
 2727TIP3    H132376   3.415   4.211   2.214  2.0935 -0.3883 -1.2727
 2727TIP3    H232377   3.429   4.204   2.364 -1.8908 -1.2817 -0.8315
 2728TIP3   OH232378   4.618   3.738   0.441  0.3270  0.2949  0.4746
 2728TIP3    H132379   4.566   3.734   0.361 -2.5768  1.7054  2.1032
 2728TIP3    H232380   4.645   3.648   0.457 -2.7821 -0.8481  0.0796
 2729TIP3   OH232381   2.795   4.084   9.347  0.3284  0.5125 -0.0517
 2729TIP3    H132382   2.711   4.046   9.376  0.7426 -0.0313  0.4540
 2729TIP3    H232383   2.856   4.011   9.348  1.2329  1.2549  1.3191
 2730TIP3   OH232384   3.621   5.136   8.881  0.2578 -0.8532 -1.4883
 2730TIP3    H132385   3.559   5.185   8.935  2.2072 -1.4657  1.5346
 2730TIP3    H232386   3.569   5.064   8.844 -1.0673 -0.8359  0.2025
 2731TIP3   OH232387   3.945   2.851   7.145  0.6224 -0.1274 -0.3843
 2731TIP3    H132388   3.957   2.895   7.061  1.6184  2.4962  1.0140
 2731TIP3    H232389   3.851   2.853   7.160  0.6215  1.6883 -0.3617
 2732TIP3   OH232390   1.126   5.725   7.740  0.0290 -0.1213 -0.3077
 2732TIP3    H132391   1.059   5.659   7.757  0.7218 -0.4440  1.3487
 2732TIP3    H232392   1.088   5.807   7.770  0.9243 -0.5573  2.2470
 2733TIP3   OH232393   5.486   2.953   0.584 -0.2782 -0.0789  0.2404
 2733TIP3    H132394   5.502   2.978   0.675 -0.1174 -2.2673  0.8772
 2733TIP3    H232395   5.403   2.905   0.586  0.5757 -1.6770 -0.4153
 2734TIP3   OH232396   2.731   7.078   2.944 -0.1321  0.1022  0.0909
 2734TIP3    H132397   2.646   7.111   2.916 -0.1446  0.6594  0.7703
 2734TIP3    H232398   2.722   6.983   2.939 -0.4072  0.1692 -0.9538
 2735TIP3   OH232399   0.563   2.034   8.625  0.1042  0.0804 -0.2901
 2735TIP3    H132400   0.622   2.068   8.558  0.9966  0.0335  0.4507
 2735TIP3    H232401   0.583   1.941   8.630  1.5050  0.4278  1.4317
 2736TIP3   OH232402   4.320   2.313   7.561  0.0818 -0.0080  0.4700
 2736TIP3    H132403   4.288   2.394   7.520 -0.1193 -0.2352  0.1790
 2736TIP3    H232404   4.371   2.344   7.637  1.8978  0.5335 -0.8772
 2737TIP3   OH232405   6.565   0.008   1.206 -0.1742  0.2024 -0.6337
 2737TIP3    H132406   6.571   0.023   1.300  0.2477 -0.0364 -0.6185
 2737TIP3    H232407   6.511   0.080   1.173 -1.4550 -0.4486 -0.0231
 2738TIP3   OH232408   3.451   1.858   8.578  0.3211  0.0617  0.1591
 2738TIP3    H132409   3.441   1.948   8.546  1.0235 -0.3363 -1.2759
 2738TIP3    H232410   3.442   1.804   8.500  2.6434 -0.9239  0.4856
 2739TIP3   OH232411   4.923   4.122   7.420 -0.3664 -0.5735  0.0898
 2739TIP3    H132412   4.994   4.104   7.358  0.4283  1.5691  0.3221
 2739TIP3    H232413   4.911   4.039   7.466  2.8972 -0.7302  0.9320
 2740TIP3   OH232414   1.901   2.146   1.562 -0.2586 -0.2784  0.1566
 2740TIP3    H132415   1.871   2.163   1.472 -0.4361  1.6664  0.5405
 2740TIP3    H232416   1.940   2.228   1.590 -0.7754 -0.6385  2.0906
 2741TIP3   OH232417   4.931   6.396   8.461  0.4782 -0.1274  0.1488
 2741TIP3    H132418   4.940   6.305   8.433  1.2717 -0.4804  1.4506
 2741TIP3    H232419   5.019   6.421   8.489 -0.4450 -0.3599  3.7819
 2742TIP3   OH232420   3.164   2.536   0.502 -0.1107 -0.1809 -0.8143
 2742TIP3    H132421   3.205   2.597   0.442  0.4993 -0.9784 -1.2364
 2742TIP3    H232422   3.229   2.466   0.513 -1.0211 -1.0607 -0.8422
 2743TIP3   OH232423   4.639   4.743   9.424 -0.0496  0.3343 -0.0272
 2743TIP3    H132424   4.636   4.816   9.362 -1.9959  0.6314  0.3647
 2743TIP3    H232425   4.658   4.784   9.508 -1.1129  0.4232  0.1881
 2744TIP3   OH232426   4.415   5.654   2.002  0.6520 -0.1285 -0.5509
 2744TIP3    H132427   4.420   5.749   2.014  1.2691  0.1074 -2.3808
 2744TIP3    H232428   4.457   5.618   2.080 -0.7256  1.0422  0.7907
 2745TIP3   OH232429   0.927   2.618   0.849 -0.2659 -0.2387  0.0070
 2745TIP3    H132430   0.987   2.673   0.798 -0.8683  0.2488 -0.1871
 2745TIP3    H232431   0.845   2.620   0.800 -1.3761  1.5483  1.7755
 2746TIP3   OH232432   7.194   0.481   7.445 -0.1313  0.6645  0.0157
 2746TIP3    H132433   7.139   0.466   7.368 -0.7297  0.9772  0.3738
 2746TIP3    H232434   7.172   0.409   7.504  1.2434 -0.3024 -0.5854
 2747TIP3   OH232435   4.140   3.279   9.546 -0.2334 -0.0028 -0.1611
 2747TIP3    H132436   4.138   3.186   9.524 -0.6701 -0.4291  1.5107
 2747TIP3    H232437   4.105   3.323   9.469  2.5632 -0.9355 -2.0976
 2748TIP3   OH232438   3.272   6.145   1.018  0.3517  0.3260  0.0110
 2748TIP3    H132439   3.324   6.219   0.985  1.9538 -0.1265  1.3743
 2748TIP3    H232440   3.241   6.100   0.939 -0.6282  2.3741 -0.8596
 2749TIP3   OH232441   6.597   7.174   9.099  0.0629 -0.1836  0.3923
 2749TIP3    H132442   6.566   7.262   9.123 -1.4274 -0.5782 -0.0122
 2749TIP3    H232443   6.602   7.176   9.003  2.2488  0.1540  0.4627
 2750TIP3   OH232444   1.809   5.467   0.864  0.3930  0.4267 -0.0911
 2750TIP3    H132445   1.872   5.394   0.867 -1.7542 -1.5091  2.6654
 2750TIP3    H232446   1.807   5.500   0.954 -1.8445  1.0047 -0.3106
 2751TIP3   OH232447   1.940   2.023   0.048  0.2885 -0.2120  0.7658
 2751TIP3    H132448   1.911   2.058  -0.036 -0.6140 -2.5125  0.0407
 2751TIP3    H232449   1.862   2.023   0.103  0.1905 -1.2841  0.6501
 2752TIP3   OH232450   1.035   4.097   8.693 -0.5713 -0.5289 -0.2234
 2752TIP3    H132451   1.049   4.152   8.770  0.3336  0.2108 -0.8884
 2752TIP3    H232452   0.985   4.154   8.633 -0.0356 -0.5912 -0.7342
 2753TIP3   OH232453   6.788   2.460   8.654  0.1757  0.4662 -0.5113
 2753TIP3    H132454   6.835   2.513   8.591  0.5813 -0.5614 -1.0980
 2753TIP3    H232455   6.854   2.402   8.691 -0.3535 -0.0102 -0.2905
 2754TIP3   OH232456   0.041   0.887   6.650  0.7199 -0.0922  0.1156
 2754TIP3    H132457   0.134   0.903   6.634  0.3700  0.4092 -1.6025
 2754TIP3    H232458   0.038   0.797   6.684  1.8351 -0.0686  0.3179
 2755TIP3   OH232459   1.345   2.943   7.543  0.4661 -0.3011 -0.1242
 2755TIP3    H132460   1.362   2.956   7.636  2.3388  0.3588 -0.5225
 2755TIP3    H232461   1.383   2.857   7.524 -0.4797 -0.7219 -0.1651
 2756TIP3   OH232462   5.672   0.120   8.315 -0.0190  0.1550  0.1163
 2756TIP3    H132463   5.588   0.161   8.336 -0.4544 -1.1152  0.9850
 2756TIP3    H232464   5.649   0.046   8.259 -0.0087 -2.5516  3.3642
 2757TIP3   OH232465   1.777   6.816   1.596 -0.3711  0.7336 -0.0302
 2757TIP3    H132466   1.751   6.751   1.662 -0.5588  0.8264 -0.0123
 2757TIP3    H232467   1.838   6.769   1.540 -2.2686 -0.2111 -1.4305
 2758TIP3   OH232468   4.034   3.169   1.715  0.2124  0.0796  0.0439
 2758TIP3    H132469   4.083   3.131   1.642  0.1014  0.2779 -0.1342
 2758TIP3    H232470   3.967   3.104   1.735 -0.1769  0.3164 -0.4690
 2759TIP3   OH232471   1.308   4.695   2.494  0.4461  0.0839  0.5118
 2759TIP3    H132472   1.253   4.748   2.552 -0.8712 -0.7600  0.0704
 2759TIP3    H232473   1.253   4.620   2.471  2.0502 -1.1742  0.6400
 2760TIP3   OH232474   5.531   6.836   8.285  0.3258 -0.4930  0.3650
 2760TIP3    H132475   5.501   6.877   8.205 -0.8316 -1.7641  0.1164
 2760TIP3    H232476   5.464   6.856   8.350  0.1258 -1.3543  0.4305
 2761TIP3   OH232477   0.113   5.102   0.194  0.0021 -0.1737  0.0104
 2761TIP3    H132478   0.108   5.176   0.254  0.9695 -0.0434 -0.0657
 2761TIP3    H232479   0.089   5.138   0.109  1.9643  0.4234 -0.3270
 2762TIP3   OH232480   7.095   2.572   0.374 -0.7210  0.1462 -0.4576
 2762TIP3    H132481   7.137   2.506   0.319 -0.4704 -0.0475 -0.0454
 2762TIP3    H232482   7.002   2.556   0.364 -0.7674  1.3024 -2.2670
 2763TIP3   OH232483   2.038   4.120   3.056  0.0067  0.0189  0.3105
 2763TIP3    H132484   2.109   4.110   3.119  0.6699  0.4233 -0.3582
 2763TIP3    H232485   2.014   4.030   3.034  0.9240 -0.1344 -0.1220
 2764TIP3   OH232486   2.135   3.113   1.409 -0.5140  0.1415  0.3064
 2764TIP3    H132487   2.076   3.051   1.451 -1.4687  1.0239  0.3010
 2764TIP3    H232488   2.087   3.146   1.333 -0.0895  1.0004  0.3941
 2765TIP3   OH232489   2.482   1.368   1.905 -0.1118  0.7175  0.4033
 2765TIP3    H132490   2.569   1.408   1.900  0.0353  0.5534  1.4178
 2765TIP3    H232491   2.499   1.274   1.906 -0.3655  0.6574 -0.4067
 2766TIP3   OH232492   4.852   4.605   0.658  0.4244  0.0572 -0.0424
 2766TIP3    H132493   4.766   4.645   0.673  0.3488  1.0478 -2.6076
 2766TIP3    H232494   4.913   4.660   0.709 -0.2151  0.7066  0.0387
 2767TIP3   OH232495   6.893   1.877   7.144 -0.3882  0.2307 -0.0458
 2767TIP3    H132496   6.904   1.972   7.151  0.5029  0.0436  1.8800
 2767TIP3    H232497   6.869   1.862   7.053  2.7088  2.0089 -1.3217
 2768TIP3   OH232498   6.638   6.500   6.609  0.2285  0.4556  0.0044
 2768TIP3    H132499   6.568   6.440   6.584  0.6790  0.2655 -0.8281
 2768TIP3    H232500   6.719   6.452   6.593  0.5736  0.8782  0.4208
 2769TIP3   OH232501   0.949   0.845   6.804  0.1354  0.1835  0.1647
 2769TIP3    H132502   0.995   0.840   6.720 -0.6144 -0.9298 -0.2080
 2769TIP3    H232503   0.897   0.925   6.798  0.9618  0.7299  0.0498
 2770TIP3   OH232504   3.048   6.848   1.567  0.0791  0.6250 -0.1952
 2770TIP3    H132505   3.055   6.923   1.627  0.9418  0.4834 -0.1149
 2770TIP3    H232506   3.136   6.838   1.530  0.1030 -0.6536  0.1625
 2771TIP3   OH232507   0.063   4.572   1.444 -0.5936  0.4801  0.2264
 2771TIP3    H132508   0.092   4.528   1.364 -1.1988 -0.0979  0.3172
 2771TIP3    H232509   0.127   4.642   1.457  0.6445 -0.6202  0.3070
 2772TIP3   OH232510   2.391   2.588   7.576  0.0404  0.0675  0.3672
 2772TIP3    H132511   2.390   2.665   7.518  1.2034  0.4876  0.8778
 2772TIP3    H232512   2.363   2.622   7.661  2.2955  0.3553  1.0515
 2773TIP3   OH232513   2.093   5.268   8.906 -0.0646  0.0268  0.1083
 2773TIP3    H132514   2.006   5.231   8.895 -0.4961  1.1371 -0.2865
 2773TIP3    H232515   2.124   5.285   8.816  1.1348 -1.6331  0.1633
 2774TIP3   OH232516   3.668   4.284   0.370  0.1015 -0.1289 -0.1845
 2774TIP3    H132517   3.703   4.373   0.361  1.9902 -0.9118 -0.9634
 2774TIP3    H232518   3.609   4.274   0.295 -0.7233  0.6841  0.3207
 2775TIP3   OH232519   3.074   2.825   2.274 -0.3262  0.2247 -0.1031
 2775TIP3    H132520   3.108   2.819   2.363 -0.1236  0.4981 -0.1626
 2775TIP3    H232521   3.062   2.919   2.259  0.2047  0.2197 -0.5743
 2776TIP3   OH232522   6.471   5.606   1.971 -0.0792  0.1399 -0.1348
 2776TIP3    H132523   6.443   5.525   1.927  1.2716 -1.4091  1.6629
 2776TIP3    H232524   6.474   5.672   1.902  0.9501 -1.8983 -2.1548
 2777TIP3   OH232525   4.235   6.613   1.935 -0.4740  0.2747  0.1615
 2777TIP3    H132526   4.272   6.701   1.942  0.9884 -0.3861  1.1904
 2777TIP3    H232527   4.195   6.596   2.020  0.7959 -0.6876  0.6057
 2778TIP3   OH232528   5.610   7.110   0.230 -0.0727  0.4664  0.0432
 2778TIP3    H132529   5.666   7.160   0.289 -0.6212  1.6699 -0.4222
 2778TIP3    H232530   5.627   7.149   0.143 -0.3771 -0.2805 -0.3561
 2779TIP3   OH232531   1.343   4.991   8.431 -0.2784  0.2496 -0.1614
 2779TIP3    H132532   1.389   4.923   8.382 -4.0778 -2.1424 -0.8350
 2779TIP3    H232533   1.350   4.964   8.522  0.5499  0.5920 -0.1076
 2780TIP3   OH232534   1.320   2.353   6.626  0.1718  0.1925 -0.1175
 2780TIP3    H132535   1.293   2.263   6.606  2.1419 -0.2784 -0.8489
 2780TIP3    H232536   1.278   2.373   6.709  0.3099 -1.6908  0.4387
 2781TIP3   OH232537   5.412   1.038   9.664 -0.4386 -0.3473  0.0766
 2781TIP3    H132538   5.434   1.058   9.573  1.2914  0.6621  0.6788
 2781TIP3    H232539   5.329   1.084   9.679 -0.5274 -0.1812 -0.8655
 2782TIP3   OH232540   0.898   5.574   8.326 -0.7722 -0.2715 -0.1248
 2782TIP3    H132541   0.906   5.572   8.422 -2.4138 -1.5935  0.0275
 2782TIP3    H232542   0.909   5.666   8.303  3.4741 -0.3232  0.8878
 2783TIP3   OH232543   2.510   5.132   9.498  0.2577 -0.3882  0.0655
 2783TIP3    H132544   2.535   5.166   9.584 -0.1166 -3.4189  1.5119
 2783TIP3    H232545   2.418   5.107   9.508  0.5432 -1.9115 -0.7569
 2784TIP3   OH232546   2.865   0.477   1.337  0.0269  0.0358 -0.1593
 2784TIP3    H132547   2.940   0.421   1.316  1.1023  1.6668 -0.8257
 2784TIP3    H232548   2.849   0.527   1.257  1.2736  3.0628  1.3131
 2785TIP3   OH232549   5.075   2.008   8.075 -0.1324 -0.2774  0.0757
 2785TIP3    H132550   4.993   1.979   8.116 -1.0179 -0.9245 -2.0072
 2785TIP3    H232551   5.053   2.092   8.034  0.4268 -0.1352  0.0651
 2786TIP3   OH232552   3.395   4.978   8.882 -0.1872  0.2533  0.2207
 2786TIP3    H132553   3.375   5.031   8.960 -0.4534  1.4133 -0.5975
 2786TIP3    H232554   3.326   4.911   8.880 -0.3722  0.4173  0.7975
 2787TIP3   OH232555   2.085   6.169   1.310  0.0891  0.6289  0.1416
 2787TIP3    H132556   2.083   6.185   1.404 -0.2806  1.2769  0.0302
 2787TIP3    H232557   2.101   6.075   1.302 -0.5503  0.4422  0.8632
 2788TIP3   OH232558   0.698   6.803   8.924 -0.0786 -0.2928 -0.0470
 2788TIP3    H132559   0.679   6.896   8.935 -0.5194 -0.2861 -0.8405
 2788TIP3    H232560   0.793   6.796   8.936  0.0397  0.3475 -0.5721
 2789TIP3   OH232561   4.783   1.338   1.096 -0.0814  0.3693  0.2703
 2789TIP3    H132562   4.814   1.249   1.108  0.5077  0.6009  0.5105
 2789TIP3    H232563   4.731   1.335   1.015  1.5674  0.2158 -0.8270
 2790TIP3   OH232564   2.598   5.160   9.158 -1.0461  0.2806 -0.2538
 2790TIP3    H132565   2.596   5.241   9.210 -1.5404  1.1511 -1.5890
 2790TIP3    H232566   2.515   5.159   9.111 -0.3535 -0.1759 -1.5012
 2791TIP3   OH232567   5.151   0.864   2.286 -0.0587  0.0701 -0.0687
 2791TIP3    H132568   5.218   0.907   2.340 -0.3555  0.9859 -0.4011
 2791TIP3    H232569   5.128   0.786   2.335  0.3576  0.3894  0.6688
 2792TIP3   OH232570   1.966   0.384   0.796  0.4700 -1.0399  0.0110
 2792TIP3    H132571   1.996   0.296   0.772  1.4414 -0.5521 -0.6523
 2792TIP3    H232572   2.010   0.442   0.734  0.0351 -0.0600  0.5913
 2793TIP3   OH232573   2.711   0.162   8.297  0.5981  0.1229 -0.3619
 2793TIP3    H132574   2.693   0.108   8.220 -1.3478  0.4324 -0.1778
 2793TIP3    H232575   2.707   0.101   8.371 -0.0838  0.2419 -0.2930
 2794TIP3   OH232576   6.357   5.715   1.399  0.4776 -1.0054  0.1532
 2794TIP3    H132577   6.315   5.747   1.319 -0.5471  0.4653  1.2202
 2794TIP3    H232578   6.374   5.623   1.381 -1.9050 -1.3290 -0.9335
 2795TIP3   OH232579   7.351   3.880   1.457 -0.1142  0.0174 -0.6919
 2795TIP3    H132580   7.391   3.965   1.439  0.0878  0.4326  1.5191
 2795TIP3    H232581   7.305   3.891   1.540 -0.8174 -1.8002 -0.7759
 2796TIP3   OH232582   4.520   0.701   7.088  0.2262 -0.1589 -0.4140
 2796TIP3    H132583   4.504   0.744   7.172  2.7546  1.7544 -0.7836
 2796TIP3    H232584   4.586   0.635   7.107 -0.1596 -0.6237 -0.6818
 2797TIP3   OH232585   5.955   1.352   1.827  0.0994 -0.0116  0.5813
 2797TIP3    H132586   6.010   1.376   1.901  0.2962 -0.9461  0.7484
 2797TIP3    H232587   6.016   1.329   1.757 -0.0616 -0.8560  0.7047
 2798TIP3   OH232588   6.200   2.043   0.219  0.4156  0.4175 -0.3617
 2798TIP3    H132589   6.178   2.112   0.156  2.7328  1.6902  0.0878
 2798TIP3    H232590   6.191   2.085   0.305 -0.5209 -0.6260  0.0807
 2799TIP3   OH232591   0.118   7.019   2.749  0.0339  0.3456  0.4177
 2799TIP3    H132592   0.056   7.074   2.797 -0.2894 -0.2775  0.7283
 2799TIP3    H232593   0.104   6.930   2.784  2.1116  0.3886  1.5818
 2800TIP3   OH232594   6.227   5.989   7.044 -0.5027 -0.1466 -0.5517
 2800TIP3    H132595   6.197   6.015   7.131  1.1375 -2.6575  0.8924
 2800TIP3    H232596   6.269   6.067   7.008 -0.9830  0.8735  1.0046
 2801TIP3   OH232597   0.831   2.294   1.869 -0.1756  0.4449 -0.1017
 2801TIP3    H132598   0.782   2.241   1.807 -1.5294  0.0484  1.2465
 2801TIP3    H232599   0.846   2.377   1.824  0.4082 -0.4260 -1.5689
 2802TIP3   OH232600   4.962   0.085   7.499 -0.1221 -0.3136 -0.4715
 2802TIP3    H132601   4.878   0.118   7.469 -0.1173 -1.6177 -2.0818
 2802TIP3    H232602   5.025   0.112   7.432  0.4541 -0.7232 -0.1137
 2803TIP3   OH232603   4.765   2.597   9.264  0.7802 -0.4640  0.1384
 2803TIP3    H132604   4.750   2.591   9.359  1.1121 -3.3564  0.0891
 2803TIP3    H232605   4.857   2.575   9.253  0.7207 -0.2357 -0.8750
 2804TIP3   OH232606   1.329   4.776   8.904 -0.6770 -0.1439 -0.3118
 2804TIP3    H132607   1.349   4.800   8.995  1.4615  0.9484 -1.0050
 2804TIP3    H232608   1.308   4.683   8.908  2.0582 -0.8039  1.0173
 2805TIP3   OH232609   3.395   5.754   2.057  0.4814 -0.2303 -1.0013
 2805TIP3    H132610   3.368   5.806   2.133  0.1625  1.0426 -1.9447
 2805TIP3    H232611   3.418   5.668   2.093  3.2493  1.1865  0.9828
 2806TIP3   OH232612   4.599   0.497   7.771  0.4565  0.4063  0.5971
 2806TIP3    H132613   4.592   0.482   7.865  0.7793 -1.8823  0.3194
 2806TIP3    H232614   4.603   0.592   7.762 -3.0092  0.9182  2.6354
 2807TIP3   OH232615   5.909   1.201   7.096  0.3223 -0.3330 -0.1449
 2807TIP3    H132616   5.834   1.141   7.098  1.8798 -2.4558 -0.9492
 2807TIP3    H232617   5.972   1.161   7.156  0.2753  2.3020  1.8310
 2808TIP3   OH232618   1.542   3.321   0.994  0.3182 -0.0282 -0.3000
 2808TIP3    H132619   1.584   3.290   0.914  0.2936 -0.2008 -0.2463
 2808TIP3    H232620   1.449   3.326   0.971  0.2886 -0.2382 -0.2342
 2809TIP3   OH232621   7.163   6.026   7.862 -0.8502 -0.2990  0.1896
 2809TIP3    H132622   7.196   5.989   7.945  2.2292 -2.5360 -1.7844
 2809TIP3    H232623   7.193   6.117   7.863 -1.6077 -0.0310  1.8397
 2810TIP3   OH232624   5.845   6.395   1.559  0.5408 -0.3586 -0.8199
 2810TIP3    H132625   5.939   6.404   1.548  0.7057 -0.4759  0.3861
 2810TIP3    H232626   5.809   6.477   1.526  1.2082  0.3758  0.2171
 2811TIP3   OH232627   4.111   6.611   2.209 -0.5440  0.1871 -0.3825
 2811TIP3    H132628   4.038   6.573   2.258 -1.2952 -1.0589 -2.3784
 2811TIP3    H232629   4.113   6.702   2.238 -2.4307  0.0756  0.2686
 2812TIP3   OH232630   1.195   3.466   7.843  0.2787 -0.0729  0.1282
 2812TIP3    H132631   1.281   3.464   7.800 -0.0880 -0.3619 -0.5941
 2812TIP3    H232632   1.198   3.395   7.908  1.2768  1.1286  1.4718
 2813TIP3   OH232633   1.824   0.633   1.622  0.4422 -0.3513 -0.0068
 2813TIP3    H132634   1.855   0.631   1.532  0.1320 -2.8475 -0.1214
 2813TIP3    H232635   1.792   0.544   1.639  1.4717 -0.2872  2.9007
 2814TIP3   OH232636   0.778   0.010   0.107 -0.3551  0.2913 -0.8591
 2814TIP3    H132637   0.726   0.006   0.187 -0.2161 -0.0511 -0.7844
 2814TIP3    H232638   0.826   0.092   0.113  0.1872 -0.0647 -0.2624
 2815TIP3   OH232639   6.865   6.240   7.824 -0.7649 -0.1192  0.0383
 2815TIP3    H132640   6.810   6.203   7.892 -0.5741  0.0611  0.2936
 2815TIP3    H232641   6.869   6.334   7.844  1.0639 -0.3762  1.0687
 2816TIP3   OH232642   7.038   5.754   9.106  0.1561 -0.4712  0.0130
 2816TIP3    H132643   7.040   5.835   9.158 -0.4435  0.7549 -1.7665
 2816TIP3    H232644   6.945   5.740   9.088  0.2262 -1.7734  0.5555
 2817TIP3   OH232645   2.955   4.652   7.563  0.1419 -0.0753 -0.2307
 2817TIP3    H132646   2.899   4.725   7.588  1.7755  1.6217 -1.2734
 2817TIP3    H232647   2.907   4.609   7.492 -0.9451 -0.1661  0.5470
 2818TIP3   OH232648   1.086   2.303   2.425  0.4492  0.5081 -0.3171
 2818TIP3    H132649   0.996   2.298   2.393  0.3616  1.8109 -0.3207
 2818TIP3    H232650   1.084   2.256   2.509 -0.8703  2.6281  0.9503
 2819TIP3   OH232651   7.325   4.953   8.723 -0.0839 -0.6010  0.0282
 2819TIP3    H132652   7.419   4.939   8.725 -0.1470 -1.0800 -0.3962
 2819TIP3    H232653   7.289   4.874   8.683 -0.4104  0.8519 -2.7892
 2820TIP3   OH232654   3.629   4.464   7.352  0.0694  0.4456 -0.1807
 2820TIP3    H132655   3.604   4.374   7.332  1.5358  0.1765 -0.9645
 2820TIP3    H232656   3.614   4.473   7.446  2.2044 -1.4681  0.4543
 2821TIP3   OH232657   6.551   6.750   0.678 -0.5255 -0.3455 -0.0588
 2821TIP3    H132658   6.627   6.806   0.691  0.2380 -0.9226 -1.7388
 2821TIP3    H232659   6.526   6.763   0.587 -1.6431 -1.1458  0.1051
 2822TIP3   OH232660   0.462   2.063   2.819  0.1971 -0.1709  0.0771
 2822TIP3    H132661   0.430   2.056   2.908 -0.6583 -0.6781 -0.2650
 2822TIP3    H232662   0.384   2.080   2.766  0.6532 -0.1819 -0.6145
 2823TIP3   OH232663   5.695   3.650   0.714  0.2107  0.0724  0.3097
 2823TIP3    H132664   5.614   3.657   0.765 -0.1980  1.8387 -0.5292
 2823TIP3    H232665   5.765   3.662   0.779 -0.1819 -1.0247  0.9671
 2824TIP3   OH232666   3.843   3.789   1.331 -0.5480  0.3096 -0.3224
 2824TIP3    H132667   3.819   3.702   1.300  0.1118 -0.4731  1.2351
 2824TIP3    H232668   3.780   3.848   1.290 -0.8121 -0.8384 -1.6648
 2825TIP3   OH232669   3.157   6.542   8.811 -0.0088  0.6069  0.5863
 2825TIP3    H132670   3.242   6.581   8.829  0.9467 -1.3969  0.7119
 2825TIP3    H232671   3.105   6.613   8.773  0.9235  2.4822  2.6197
 2826TIP3   OH232672   1.350   5.795   7.443 -0.0452 -0.2481 -0.1489
 2826TIP3    H132673   1.307   5.880   7.436 -1.5929 -0.8963  0.8990
 2826TIP3    H232674   1.280   5.735   7.469  1.7472 -1.0495  3.4594
 2827TIP3   OH232675   4.049   4.049   7.900 -0.2867 -0.1350 -0.1644
 2827TIP3    H132676   4.098   4.130   7.883  0.2155  0.3130  2.8888
 2827TIP3    H232677   4.041   4.045   7.995 -0.7777 -3.4403 -0.2205
 2828TIP3   OH232678   3.872   5.777   9.128 -0.0940 -0.0458 -0.3066
 2828TIP3    H132679   3.908   5.688   9.131  0.6619  0.1978 -1.3556
 2828TIP3    H232680   3.796   5.771   9.071 -2.2311 -0.6859  2.4019
 2829TIP3   OH232681   2.953   2.303   8.365  0.6296  0.2978  0.2277
 2829TIP3    H132682   2.883   2.368   8.351  0.2784  0.0197  0.6803
 2829TIP3    H232683   2.927   2.229   8.309  1.5390  0.9073 -1.0627
 2830TIP3   OH232684   1.838   6.387   8.587  0.2733  0.2144  0.5699
 2830TIP3    H132685   1.917   6.365   8.636 -0.4693  0.1198  1.7888
 2830TIP3    H232686   1.816   6.476   8.615 -1.0710 -0.4329  1.7422
 2831TIP3   OH232687   1.757   3.386   8.037 -0.2204 -0.0752  0.4614
 2831TIP3    H132688   1.793   3.302   8.068  0.3671 -0.0395 -0.1158
 2831TIP3    H232689   1.791   3.396   7.949 -0.5636  0.6205  0.4017
 2832TIP3   OH232690   5.875   4.337   1.953 -0.4288 -0.1252 -0.4251
 2832TIP3    H132691   5.891   4.428   1.927  0.2777 -0.2724 -0.5201
 2832TIP3    H232692   5.855   4.292   1.871  1.0844 -0.4365 -0.6635
 2833TIP3   OH232693   5.352   7.308   7.525  0.1404 -0.6126 -0.1899
 2833TIP3    H132694   5.305   7.322   7.607 -1.2175 -2.0305 -0.6703
 2833TIP3    H232695   5.431   7.260   7.550  0.6403  0.4990  0.4567
 2834TIP3   OH232696   5.567   0.850   2.798  0.5373 -0.2159 -0.2280
 2834TIP3    H132697   5.563   0.756   2.816 -0.6577 -0.6312 -2.2737
 2834TIP3    H232698   5.503   0.889   2.857 -0.4246 -0.9755 -0.7403
 2835TIP3   OH232699   5.998   3.758   0.461  0.0122  0.5198  0.5162
 2835TIP3    H132700   6.060   3.731   0.393 -0.2036 -2.1999  1.2882
 2835TIP3    H232701   5.922   3.789   0.412  0.4772  0.1684 -0.4665
 2836TIP3   OH232702   5.001   2.779   9.444  0.3409 -0.0470  0.6071
 2836TIP3    H132703   5.075   2.720   9.425 -0.0127 -0.2071 -0.3327
 2836TIP3    H232704   5.041   2.855   9.486  1.1606  0.1997 -0.5618
 2837TIP3   OH232705   7.148   4.204   1.807  0.1501  0.4749 -0.5119
 2837TIP3    H132706   7.117   4.277   1.861 -2.5032  1.8769 -3.5899
 2837TIP3    H232707   7.217   4.243   1.753  0.6042 -0.0575 -0.3231
 2838TIP3   OH232708   4.786   4.244   1.348 -0.6844 -0.5494 -0.0122
 2838TIP3    H132709   4.849   4.295   1.296 -0.0498 -0.8590  0.4365
 2838TIP3    H232710   4.740   4.191   1.284  0.6201 -1.5003 -0.2188
 2839TIP3   OH232711   1.386   1.894   0.214 -0.1845  0.5114 -0.4813
 2839TIP3    H132712   1.360   1.873   0.304  2.9286 -0.9928  0.2338
 2839TIP3    H232713   1.341   1.829   0.160 -1.2665  0.7611  0.0918
 2840TIP3   OH232714   6.188   5.367   1.174  0.8034 -1.1420 -0.5015
 2840TIP3    H132715   6.177   5.352   1.080 -1.2200 -1.8529 -0.1909
 2840TIP3    H232716   6.158   5.286   1.215  0.5015 -0.3846  0.8161
 2841TIP3   OH232717   7.175   4.097   0.179 -0.0808 -0.4250 -0.5577
 2841TIP3    H132718   7.196   4.179   0.134  1.2513 -1.5469 -2.0871
 2841TIP3    H232719   7.081   4.085   0.165 -0.1652  0.4954 -0.8565
 2842TIP3   OH232720   0.453   2.008   8.343  0.8435 -0.5369 -0.2677
 2842TIP3    H132721   0.542   1.989   8.372  0.8538  0.0551  0.1256
 2842TIP3    H232722   0.431   1.937   8.283  2.1282  0.1014 -1.5596
 2843TIP3   OH232723   1.625   2.581   8.841 -0.6287 -1.0106  0.2415
 2843TIP3    H132724   1.711   2.550   8.813  0.3846  1.7183  0.0184
 2843TIP3    H232725   1.638   2.606   8.933 -1.7679 -2.3347  0.8179
 2844TIP3   OH232726   3.832   2.039   2.439 -0.0254 -0.4576 -0.0171
 2844TIP3    H132727   3.851   2.133   2.431  0.5597 -0.5928 -0.2456
 2844TIP3    H232728   3.859   2.017   2.528 -0.6574 -0.3011  0.2198
 2845TIP3   OH232729   7.405   5.788   9.420  0.2582 -0.3146  0.4921
 2845TIP3    H132730   7.344   5.757   9.486 -0.2030  0.0672  0.2535
 2845TIP3    H232731   7.420   5.713   9.363  0.1121 -0.4432  0.6253
 2846TIP3   OH232732   5.080   7.221   0.482 -0.0144 -0.0251  0.0634
 2846TIP3    H132733   5.016   7.150   0.478 -0.3489  0.2510  0.4113
 2846TIP3    H232734   5.136   7.207   0.406  0.1882 -0.9069  0.3609
 2847TIP3   OH232735   4.007   4.032   0.962  0.2567 -0.2549 -0.0261
 2847TIP3    H132736   4.046   4.061   1.045  0.4253 -0.7997  0.0897
 2847TIP3    H232737   3.927   3.987   0.989  0.6509 -1.0204 -0.1021
 2848TIP3   OH232738   3.654   1.285   8.065 -0.6616  0.1291  0.4661
 2848TIP3    H132739   3.691   1.367   8.097 -1.0626  0.1989  0.7581
 2848TIP3    H232740   3.692   1.218   8.123 -0.4626  0.1243  0.3311
 2849TIP3   OH232741   7.290   2.707   8.050 -0.0441  0.2322 -0.3419
 2849TIP3    H132742   7.370   2.758   8.061 -0.3824  0.2567  3.1232
 2849TIP3    H232743   7.220   2.772   8.052 -0.3487 -0.1190  1.5832
 2850TIP3   OH232744   2.839   4.382   7.948  0.0818  0.1769  0.0173
 2850TIP3    H132745   2.872   4.450   7.890 -1.3527  2.3363  1.5623
 2850TIP3    H232746   2.754   4.415   7.978 -0.7940 -2.4354  0.6662
 2851TIP3   OH232747   4.008   6.602   1.439 -0.0563 -0.5563  0.0337
 2851TIP3    H132748   4.087   6.656   1.431 -1.5044  1.7278  0.3467
 2851TIP3    H232749   4.025   6.548   1.517  1.4995 -0.6929 -0.3642
 2852TIP3   OH232750   2.422   4.306   1.471 -0.2155 -0.6274 -0.1765
 2852TIP3    H132751   2.373   4.268   1.544  0.5538 -0.9685  0.1712
 2852TIP3    H232752   2.455   4.231   1.422 -0.6988 -0.3985 -0.8594
 2853TIP3   OH232753   5.207   6.173   8.495  0.2297 -0.2798 -0.1450
 2853TIP3    H132754   5.113   6.156   8.494 -0.0188  0.6949  1.4982
 2853TIP3    H232755   5.216   6.262   8.463  0.4778 -0.0589  0.5078
 2854TIP3   OH232756   3.050   4.418   7.057  0.2235  0.2630  0.0083
 2854TIP3    H132757   3.111   4.431   7.129 -0.7788  2.0068  0.5983
 2854TIP3    H232758   3.053   4.500   7.007 -1.1792  0.1569 -0.2943
 2855TIP3   OH232759   5.624   6.647   8.661 -0.2118 -0.1605  0.3441
 2855TIP3    H132760   5.629   6.613   8.750 -2.4962  0.7239  0.8818
 2855TIP3    H232761   5.577   6.730   8.670  1.3525  0.9964 -1.4533
 2856TIP3   OH232762   4.274   2.876   9.159  0.4987 -0.0892 -0.0492
 2856TIP3    H132763   4.352   2.822   9.159 -0.1824 -1.1202  1.2294
 2856TIP3    H232764   4.235   2.863   9.245 -1.2981  0.0683 -0.7842
 2857TIP3   OH232765   2.628   4.519   2.424  0.5000 -0.3718  0.0307
 2857TIP3    H132766   2.566   4.450   2.447 -0.5103  0.2125 -0.8386
 2857TIP3    H232767   2.621   4.583   2.494  0.5227 -0.5685  0.2123
 2858TIP3   OH232768   6.491   6.453   7.159 -0.3528 -0.2729 -0.1089
 2858TIP3    H132769   6.560   6.458   7.093 -0.5565 -0.0216 -0.3050
 2858TIP3    H232770   6.513   6.375   7.210 -0.8687 -1.1900 -1.2430
 2859TIP3   OH232771   2.055   3.355   0.185  1.1837  0.3208 -0.2715
 2859TIP3    H132772   2.012   3.290   0.130 -2.2956  0.9602  1.4283
 2859TIP3    H232773   2.104   3.304   0.250 -0.7972 -0.6667  0.5171
 2860TIP3   OH232774   1.004   6.555   0.690  0.3762  0.0578  0.2958
 2860TIP3    H132775   0.999   6.608   0.769  1.8783  0.0903  0.3941
 2860TIP3    H232776   1.060   6.481   0.714 -1.1819 -1.2822 -0.0180
 2861TIP3   OH232777   2.993   5.622   7.581 -0.8538 -0.1316  0.1094
 2861TIP3    H132778   2.934   5.591   7.649 -4.4093  2.0410 -1.7264
 2861TIP3    H232779   3.010   5.544   7.528 -0.0322 -1.2914  1.9431
 2862TIP3   OH232780   5.439   3.925   0.228  0.1628  0.3799  0.4580
 2862TIP3    H132781   5.502   3.984   0.187 -0.5153 -0.2836 -1.7295
 2862TIP3    H232782   5.359   3.936   0.175 -0.5204 -1.1644  1.1118
 2863TIP3   OH232783   4.371   3.892   8.924 -0.2342 -0.3852 -0.5403
 2863TIP3    H132784   4.419   3.974   8.940 -2.4084  0.8740 -0.0336
 2863TIP3    H232785   4.359   3.854   9.011 -2.9155  1.0412 -0.1784
 2864TIP3   OH232786   3.863   7.219   2.570 -0.0678 -0.3088  0.0533
 2864TIP3    H132787   3.942   7.176   2.603  0.4096  0.4119 -0.1252
 2864TIP3    H232788   3.894   7.303   2.535 -0.7447 -0.4958 -1.0487
 2865TIP3   OH232789   2.992   2.272   8.000  0.2464 -0.0422 -0.5836
 2865TIP3    H132790   2.899   2.251   7.995  0.1823  0.0163  0.2485
 2865TIP3    H232791   3.017   2.250   8.090  0.6085  1.6452 -0.2250
 2866TIP3   OH232792   1.904   2.278   9.277  0.3554  0.1401  0.9308
 2866TIP3    H132793   1.856   2.360   9.290  0.5378  0.1795  1.3671
 2866TIP3    H232794   1.991   2.306   9.249  0.4057  0.0966  1.0424
 2867TIP3   OH232795   2.944   0.830   0.473 -0.2914 -0.1447 -0.2122
 2867TIP3    H132796   2.939   0.839   0.569  0.5731 -0.7413 -0.0948
 2867TIP3    H232797   2.855   0.848   0.443 -0.9171 -1.2816  0.8291
 2868TIP3   OH232798   0.834   1.751   1.245  0.2373 -0.3582 -0.2472
 2868TIP3    H132799   0.787   1.682   1.199  1.1984 -0.7738 -0.6351
 2868TIP3    H232800   0.774   1.826   1.245 -0.5154 -0.9581 -0.4828
 2869TIP3   OH232801   1.910   2.558   7.999  0.7218  0.1764 -0.2286
 2869TIP3    H132802   1.902   2.482   8.056  1.6539  0.1994 -0.0444
 2869TIP3    H232803   1.827   2.562   7.951 -0.1931  0.3111  1.3127
 2870TIP3   OH232804   6.908   1.304   8.602  0.3368 -0.2942  0.8150
 2870TIP3    H132805   6.944   1.243   8.537  0.8073 -0.4895  1.2519
 2870TIP3    H232806   6.835   1.257   8.642 -0.1739 -0.0425  0.1899
 2871TIP3   OH232807   2.958   1.609   1.242  0.0514  0.1142  0.5519
 2871TIP3    H132808   2.964   1.660   1.161 -0.0433 -1.0285 -0.2129
 2871TIP3    H232809   3.023   1.648   1.300 -0.1910  1.2437  0.0951
 2872TIP3   OH232810   3.725   5.711   2.175 -0.3771 -0.2956 -0.0913
 2872TIP3    H132811   3.793   5.778   2.179 -0.1352 -0.5561  0.2799
 2872TIP3    H232812   3.694   5.703   2.265 -0.5111 -0.5712 -0.1607
 2873TIP3   OH232813   7.195   1.020   7.950  0.2237 -0.8467  0.5229
 2873TIP3    H132814   7.223   1.002   7.860 -0.1474 -0.7247  0.3830
 2873TIP3    H232815   7.277   1.039   7.997  0.3078  0.4507 -0.0956
 2874TIP3   OH232816   4.478   4.503   1.688 -0.0011  0.2233 -0.2005
 2874TIP3    H132817   4.520   4.433   1.638  1.2784  1.5771 -1.1289
 2874TIP3    H232818   4.443   4.460   1.766  0.4040 -1.4902 -0.9133
 2875TIP3   OH232819   5.164   5.630   7.719 -0.3208  0.3461  0.2235
 2875TIP3    H132820   5.083   5.594   7.683 -0.8781  0.5056  1.2448
 2875TIP3    H232821   5.224   5.556   7.723 -0.4406  0.2060 -0.4656
 2876TIP3   OH232822   0.520   2.458   7.486 -0.2623 -0.1347 -0.7114
 2876TIP3    H132823   0.596   2.450   7.427 -0.0434  0.2485 -0.4816
 2876TIP3    H232824   0.492   2.367   7.500  0.7587 -0.3711 -0.0231
 2877TIP3   OH232825   5.172   4.594   0.267  0.6757 -0.2217  0.3616
 2877TIP3    H132826   5.092   4.580   0.319  0.6391  0.3477  0.4670
 2877TIP3    H232827   5.200   4.683   0.291  0.9576 -0.1603 -0.1930
 2878TIP3   OH232828   4.973   3.142   1.234 -0.4972  0.2227 -0.0840
 2878TIP3    H132829   4.982   3.135   1.139  1.5651 -0.5621  0.1093
 2878TIP3    H232830   4.968   3.051   1.264 -0.3456  0.4377  0.6159
 2879TIP3   OH232831   6.028   0.634   8.863 -0.0642 -0.3754 -0.7579
 2879TIP3    H132832   5.937   0.611   8.849  0.3386 -2.0962 -0.7840
 2879TIP3    H232833   6.047   0.605   8.953  0.1206  1.2000 -0.2550
 2880TIP3   OH232834   4.941   5.272   9.480  0.0257  0.4060 -0.5378
 2880TIP3    H132835   4.912   5.306   9.395 -0.1977 -1.9642 -1.4864
 2880TIP3    H232836   4.868   5.218   9.509  0.4416  0.5381  0.8113
 2881TIP3   OH232837   4.568   6.248   7.818 -0.0594 -0.6624  0.3737
 2881TIP3    H132838   4.626   6.304   7.870 -1.2171  1.3627 -0.3884
 2881TIP3    H232839   4.487   6.298   7.811 -0.4921 -1.5798 -2.0106
 2882TIP3   OH232840   2.667   1.019   8.272 -0.4065  0.1272 -0.0556
 2882TIP3    H132841   2.632   1.082   8.334  0.3625 -1.1746  1.7873
 2882TIP3    H232842   2.741   1.064   8.232  0.2877  0.3534  1.4204
 2883TIP3   OH232843   7.178   3.929   2.117  0.0325  0.2124  0.6908
 2883TIP3    H132844   7.243   3.992   2.148  0.8908 -0.3419  0.0570
 2883TIP3    H232845   7.176   3.862   2.185  0.7209 -0.1708  0.3489
 2884TIP3   OH232846   2.251   6.020   0.441 -0.2157  0.5278  0.2169
 2884TIP3    H132847   2.230   5.976   0.524  1.2950  0.5363  0.6322
 2884TIP3    H232848   2.334   6.064   0.457  0.6758 -0.3710 -1.6334
 2885TIP3   OH232849   3.324   6.862   1.469  0.6072 -0.2081  0.3218
 2885TIP3    H132850   3.359   6.802   1.535 -1.5716 -0.2573  1.5117
 2885TIP3    H232851   3.402   6.895   1.424  2.0768 -1.3995  1.8417
 2886TIP3   OH232852   3.367   4.604   8.761 -0.1813  0.5680  0.2065
 2886TIP3    H132853   3.360   4.524   8.814 -0.7389  0.4249 -0.0824
 2886TIP3    H232854   3.326   4.672   8.815  1.5571  0.9798  1.0792
 2887TIP3   OH232855   0.416   0.354   2.448 -0.6627 -0.1887 -0.2270
 2887TIP3    H132856   0.441   0.267   2.478 -0.8401 -0.7539 -1.6939
 2887TIP3    H232857   0.474   0.372   2.374 -1.3531  0.5045 -0.6126
 2888TIP3   OH232858   0.953   1.059   0.731 -0.1325  0.4558  0.2011
 2888TIP3    H132859   0.878   1.117   0.725  1.2829  2.3227 -0.2758
 2888TIP3    H232860   0.927   0.981   0.681 -1.9946  0.7059  0.7026
 2889TIP3   OH232861   2.917   3.719   7.613  0.3851  0.0559 -0.8299
 2889TIP3    H132862   2.895   3.653   7.678 -1.1202 -0.3877 -1.7277
 2889TIP3    H232863   3.012   3.724   7.613  0.4511 -1.0848  0.2566
 2890TIP3   OH232864   5.147   3.265   2.031 -0.1287 -0.2662  0.3714
 2890TIP3    H132865   5.114   3.331   2.092  0.2749  0.9276 -0.6743
 2890TIP3    H232866   5.118   3.295   1.945  2.3208  0.0267 -0.4273
 2891TIP3   OH232867   3.872   0.216   9.514 -0.0096 -0.4022  0.5628
 2891TIP3    H132868   3.846   0.167   9.437 -1.7714  0.9066  0.2442
 2891TIP3    H232869   3.825   0.174   9.586 -0.6930  0.1286  0.4447
 2892TIP3   OH232870   1.697   2.215   8.536 -0.5000 -0.6094 -0.1267
 2892TIP3    H132871   1.684   2.215   8.631 -3.5170  0.0385 -0.4344
 2892TIP3    H232872   1.617   2.175   8.502  1.1542 -2.2087 -2.3965
 2893TIP3   OH232873   5.469   0.554   3.165  0.3931 -0.4628  0.3586
 2893TIP3    H132874   5.400   0.597   3.214 -0.6948  0.9521 -2.1978
 2893TIP3    H232875   5.438   0.465   3.150  0.3649 -0.6427  1.4626
 2894TIP3   OH232876   6.996   0.607   8.294 -0.0134 -0.1541 -0.3465
 2894TIP3    H132877   7.086   0.576   8.284  0.2176  0.6324 -0.8452
 2894TIP3    H232878   6.953   0.580   8.213 -0.2699 -0.6674 -0.0396
 2895TIP3   OH232879   7.112   2.601   8.846  0.0337 -0.4421 -0.6290
 2895TIP3    H132880   7.023   2.633   8.838  0.4975  0.9306 -0.5267
 2895TIP3    H232881   7.119   2.568   8.936  0.1027  1.0278 -0.0686
 2896TIP3   OH232882   7.373   3.738   7.894 -0.3712 -0.5666 -0.3653
 2896TIP3    H132883   7.366   3.644   7.911 -0.1236 -0.2761  1.5032
 2896TIP3    H232884   7.322   3.779   7.963 -1.9576  0.6823 -2.1540
 2897TIP3   OH232885   4.912   5.862   2.077  0.0937 -0.1011  0.4854
 2897TIP3    H132886   4.877   5.923   2.013 -0.5128  0.5209  1.3888
 2897TIP3    H232887   4.887   5.776   2.044 -0.6786  0.2360  0.1713
 2898TIP3   OH232888   1.312   4.876   1.669 -0.4785  0.2164  0.0490
 2898TIP3    H132889   1.349   4.878   1.758 -0.3994  0.6722  0.0074
 2898TIP3    H232890   1.284   4.966   1.653  0.0237  0.2569 -0.6083
 2899TIP3   OH232891   3.965   4.520   1.945  0.1467  0.1267  0.0658
 2899TIP3    H132892   3.974   4.550   1.854 -0.0946  0.2537  0.0806
 2899TIP3    H232893   4.047   4.544   1.987  0.5566 -0.5920 -0.3028
 2900TIP3   OH232894   1.505   2.548   8.285 -0.1262 -0.1059 -0.6290
 2900TIP3    H132895   1.434   2.611   8.300  0.1894  0.3016 -0.8423
 2900TIP3    H232896   1.462   2.463   8.291 -0.5962  0.1317 -0.5384
 2901TIP3   OH232897   1.601   1.964   7.503 -0.7653  0.3621 -0.2732
 2901TIP3    H132898   1.598   1.868   7.496  2.5484 -0.0421  1.6051
 2901TIP3    H232899   1.515   1.993   7.473 -2.3283 -3.2687  0.1322
 2902TIP3   OH232900   6.486   4.779   1.863 -0.0748 -0.1927  0.0119
 2902TIP3    H132901   6.463   4.687   1.873  0.2985 -0.2550  0.2708
 2902TIP3    H232902   6.466   4.798   1.771 -0.7852 -0.3522  0.1268
 2903TIP3   OH232903   5.154   0.940   8.972  0.0723 -0.4706  0.7497
 2903TIP3    H132904   5.082   0.908   9.025 -1.2061 -0.4880 -0.9296
 2903TIP3    H232905   5.164   1.032   8.997 -0.3735 -0.5375  1.1648
 2904TIP3   OH232906   3.950   1.003   1.645 -0.4006 -0.0047 -0.4915
 2904TIP3    H132907   3.972   1.018   1.552  2.5822 -3.4741 -0.5779
 2904TIP3    H232908   3.899   0.922   1.644 -1.7302  0.7792  0.8632
 2905TIP3   OH232909   3.817   6.858   1.447  0.7703 -0.1240 -0.0755
 2905TIP3    H132910   3.856   6.901   1.371  1.5704  0.5615  0.6940
 2905TIP3    H232911   3.885   6.799   1.479  0.9732  0.6108  0.9051
 2906TIP3   OH232912   1.864   4.392   6.537 -0.2989 -0.3856 -0.4156
 2906TIP3    H132913   1.917   4.337   6.594 -0.0268 -1.3760 -1.5800
 2906TIP3    H232914   1.775   4.385   6.572  0.1330  0.4300  0.9091
 2907TIP3   OH232915   2.350   0.926   0.849  0.0860  0.5823  0.3922
 2907TIP3    H132916   2.362   0.996   0.785  0.3935  1.0370  0.9430
 2907TIP3    H232917   2.364   0.845   0.799 -0.3384  0.9058 -0.2595
 2908TIP3   OH232918   2.412   1.185   1.639  0.1688  0.3719 -0.9661
 2908TIP3    H132919   2.379   1.102   1.673 -0.2772  0.3802 -1.3705
 2908TIP3    H232920   2.424   1.171   1.546  0.9817  0.4827 -0.8819
 2909TIP3   OH232921   5.129   4.036   7.225 -0.7469  0.0900 -0.0218
 2909TIP3    H132922   5.083   3.960   7.189  1.8455 -0.8534 -1.6241
 2909TIP3    H232923   5.203   3.999   7.273  2.3030  1.3980 -3.2160
 2910TIP3   OH232924   0.294   2.081   8.550  0.5481  0.2404 -0.2235
 2910TIP3    H132925   0.380   2.082   8.590  0.3444 -1.6876  0.3641
 2910TIP3    H232926   0.296   2.007   8.489 -1.1440 -0.8246  0.9279
 2911TIP3   OH232927   2.072   5.943   1.488 -0.0302  0.2287  0.0770
 2911TIP3    H132928   1.983   5.909   1.480 -0.8692  1.9639  1.3139
 2911TIP3    H232929   2.076   5.979   1.577  1.5340  1.1829 -0.3376
 2912TIP3   OH232930   3.047   7.358   9.493 -0.8338  0.3488 -0.1022
 2912TIP3    H132931   3.051   7.398   9.406 -0.3027 -0.2480 -0.3532
 2912TIP3    H232932   3.026   7.431   9.551  0.4804  1.0768 -0.5032
 2913TIP3   OH232933   1.780   7.379   9.416 -0.2363  0.1078  0.1463
 2913TIP3    H132934   1.728   7.354   9.492 -0.5420 -0.0291 -0.1022
 2913TIP3    H232935   1.865   7.403   9.451 -0.2227 -0.4226  0.4792
 2914TIP3   OH232936   0.507   4.652   1.868  0.1372 -0.1372 -0.0045
 2914TIP3    H132937   0.438   4.645   1.802  0.0537  0.3044  0.0316
 2914TIP3    H232938   0.572   4.710   1.828  0.4047 -0.4161  0.0299
 2915TIP3   OH232939   2.468   6.613   2.345 -0.5170  0.4708  0.2718
 2915TIP3    H132940   2.495   6.559   2.271  1.1941  0.3449  0.9353
 2915TIP3    H232941   2.373   6.619   2.337 -0.3887  0.4750 -1.9167
 2916TIP3   OH232942   4.504   1.361   7.921  0.8300  0.3282 -0.1287
 2916TIP3    H132943   4.483   1.268   7.910  1.7131  0.0576  0.3878
 2916TIP3    H232944   4.599   1.362   7.937  1.1130  1.4457 -1.6797
 2917TIP3   OH232945   7.182   2.014   6.955 -0.3625 -0.4109 -0.0890
 2917TIP3    H132946   7.177   1.961   7.035 -1.1136 -0.7459 -0.3470
 2917TIP3    H232947   7.101   1.995   6.908 -0.1404  0.1328 -0.7191
 2918TIP3   OH232948   3.698   2.473   8.823 -0.1351 -0.0868 -0.3629
 2918TIP3    H132949   3.724   2.404   8.762 -0.9663  0.5030 -1.4303
 2918TIP3    H232950   3.778   2.524   8.837  0.0521 -0.1834 -1.0466
 2919TIP3   OH232951   0.870   1.084   2.309 -0.6080  0.0465 -0.5336
 2919TIP3    H132952   0.798   1.142   2.282  0.5104  0.7136 -2.1998
 2919TIP3    H232953   0.878   1.100   2.403 -2.3446  0.2678 -0.3764
 2920TIP3   OH232954   0.203   4.266   7.067  0.0164  0.1688 -0.0747
 2920TIP3    H132955   0.181   4.300   6.980 -0.2108  0.5725  0.1373
 2920TIP3    H232956   0.265   4.330   7.102  1.2384 -0.7383 -0.5006
 2921TIP3   OH232957   2.970   0.384   0.413  0.1257  0.0681  0.6172
 2921TIP3    H132958   3.031   0.315   0.439  0.7877  0.1423 -0.6392
 2921TIP3    H232959   2.911   0.340   0.351 -0.1928  0.3407  0.7261
 2922TIP3   OH232960   4.617   6.793   9.189 -0.0612 -0.1198 -0.0750
 2922TIP3    H132961   4.691   6.768   9.244  0.7408  0.5115 -0.8625
 2922TIP3    H232962   4.651   6.859   9.130 -1.7835  1.7868  0.9528
 2923TIP3   OH232963   6.526   0.239   1.008 -0.0933 -0.0993  0.3328
 2923TIP3    H132964   6.574   0.172   0.960 -1.3016 -1.0315  0.3633
 2923TIP3    H232965   6.463   0.274   0.944  0.0783  0.5418  0.5064
 2924TIP3   OH232966   4.407   2.771   1.140 -0.5043  0.4994 -0.1370
 2924TIP3    H132967   4.478   2.812   1.188 -1.4735  2.4760 -0.2671
 2924TIP3    H232968   4.434   2.775   1.048  0.2956 -1.0741  0.0118
 2925TIP3   OH232969   6.841   0.548   9.185 -0.1351  0.6351 -0.1855
 2925TIP3    H132970   6.785   0.536   9.109 -0.7865 -1.6269  0.5735
 2925TIP3    H232971   6.843   0.463   9.228  3.9883  0.5330 -0.1849
 2926TIP3   OH232972   5.783   6.903   0.321 -0.2916  0.3612  0.1030
 2926TIP3    H132973   5.758   6.865   0.406 -1.4458  0.3009 -0.2573
 2926TIP3    H232974   5.705   6.948   0.290  0.2863  0.8468 -0.6891
 2927TIP3   OH232975   0.328   3.964   1.397 -0.5044  0.3485  0.2245
 2927TIP3    H132976   0.359   3.984   1.309 -0.4286 -1.3060 -0.1554
 2927TIP3    H232977   0.361   3.876   1.415 -1.4962  0.1947  1.4487
 2928TIP3   OH232978   1.671   4.541   9.282 -0.4923 -0.0992  0.8563
 2928TIP3    H132979   1.641   4.523   9.193  0.4634  0.6948  0.3570
 2928TIP3    H232980   1.593   4.575   9.327 -1.0609 -0.7934  0.4283
 2929TIP3   OH232981   1.144   2.744   0.751  0.0145  0.0601 -0.2564
 2929TIP3    H132982   1.121   2.830   0.716  2.8385  1.3483  0.7102
 2929TIP3    H232983   1.209   2.763   0.819  0.0782 -2.8076  0.6102
 2930TIP3   OH232984   1.469   1.484   9.359 -0.3500 -0.0181 -0.1912
 2930TIP3    H132985   1.536   1.553   9.359  0.4999 -0.8056  0.7211
 2930TIP3    H232986   1.514   1.407   9.395 -1.4465 -0.8838 -0.6036
 2931TIP3   OH232987   1.555   5.900   0.204 -0.2427  0.0957 -0.0199
 2931TIP3    H132988   1.584   5.990   0.221  2.0190 -0.0255 -2.5103
 2931TIP3    H232989   1.619   5.845   0.249  0.8219 -0.1974 -1.8059
 2932TIP3   OH232990   1.564   1.821   9.036 -0.2749  0.5972  0.0327
 2932TIP3    H132991   1.656   1.838   9.016 -0.2066  1.5309  1.0801
 2932TIP3    H232992   1.557   1.832   9.131 -1.1785 -0.9132  0.1761
 2933TIP3   OH232993   0.534   3.820   1.564 -0.1522  0.4350 -0.1699
 2933TIP3    H132994   0.629   3.825   1.568 -0.1291  0.6687 -0.9209
 2933TIP3    H232995   0.504   3.910   1.576 -0.2932  0.3407  0.2269
 2934TIP3   OH232996   0.118   7.036   1.935 -0.0774 -0.6888 -0.1142
 2934TIP3    H132997   0.117   7.027   2.030 -0.6724  1.4036  0.1276
 2934TIP3    H232998   0.131   7.129   1.920 -0.1282 -0.9589 -2.0918
 2935TIP3   OH232999   1.271   0.137   0.884  0.1471 -0.3978 -0.6433
 2935TIP3    H133000   1.273   0.076   0.958  0.2399 -0.0869 -0.3902
 2935TIP3    H233001   1.234   0.085   0.812  1.3988 -1.1353 -0.7776
 2936TIP3   OH233002   1.329   4.284   0.237  0.4050 -0.3114 -0.3359
 2936TIP3    H133003   1.236   4.267   0.253 -0.0952  2.4743  0.2436
 2936TIP3    H233004   1.354   4.219   0.172 -2.0022 -1.0351 -0.6540
 2937TIP3   OH233005   4.759   0.613   2.597  0.1277 -0.6384 -0.8338
 2937TIP3    H133006   4.801   0.581   2.676 -0.9079 -0.0262  0.0006
 2937TIP3    H233007   4.740   0.534   2.546  0.3799 -1.0797 -0.2549
 2938TIP3   OH233008   6.032   4.740   2.576 -0.5696  0.3652 -0.4247
 2938TIP3    H133009   6.046   4.833   2.590  0.4162  0.4137 -1.5251
 2938TIP3    H233010   5.943   4.724   2.605  0.4091  0.8463  3.3821
 2939TIP3   OH233011   0.381   3.504   7.071  0.5187  0.1597  0.0547
 2939TIP3    H133012   0.438   3.563   7.119  1.7092  0.6763 -1.9095
 2939TIP3    H233013   0.293   3.527   7.102  1.2023  0.3640  2.0374
 2940TIP3   OH233014   5.461   4.597   6.882  0.2854 -0.3840 -0.8142
 2940TIP3    H133015   5.451   4.509   6.846  0.5738 -0.3371 -1.0175
 2940TIP3    H233016   5.377   4.616   6.923  0.1134 -0.6314 -1.0445
 2941TIP3   OH233017   4.113   4.035   0.289 -0.3160 -0.5829 -0.1508
 2941TIP3    H133018   4.096   3.969   0.356 -1.9909 -1.3773 -1.2668
 2941TIP3    H233019   4.097   3.989   0.206  0.3270  0.7349 -1.0472
 2942TIP3   OH233020   1.601   6.046   6.859 -0.1514  0.1469 -0.3987
 2942TIP3    H133021   1.607   5.989   6.783  0.8239  0.9633 -0.9638
 2942TIP3    H233022   1.552   6.123   6.828  2.0922  1.4595 -0.8761
 2943TIP3   OH233023   3.085   2.250   7.228 -0.2269  0.5031 -0.1017
 2943TIP3    H133024   3.081   2.208   7.142 -0.2807 -0.0177  0.1509
 2943TIP3    H233025   3.099   2.343   7.209 -0.4873  0.4284 -0.6790
 2944TIP3   OH233026   0.686   2.538   8.975 -0.1602 -0.4463 -0.2419
 2944TIP3    H133027   0.614   2.591   9.008 -0.6590 -0.4123 -1.3412
 2944TIP3    H233028   0.662   2.519   8.884  1.9174  0.8648 -1.1450
 2945TIP3   OH233029   1.891   1.806   0.945 -0.1349  0.1583  0.0409
 2945TIP3    H133030   1.903   1.735   0.883  0.3408 -0.2711  0.6140
 2945TIP3    H233031   1.839   1.768   1.016  1.0783  0.0238  0.9006
 2946TIP3   OH233032   2.173   0.046   0.193 -0.0351  0.1834 -0.4625
 2946TIP3    H133033   2.147  -0.046   0.192 -1.8331  0.6427  0.3361
 2946TIP3    H233034   2.110   0.088   0.251  0.5778  1.9811 -1.0350
 2947TIP3   OH233035   0.210   3.455   8.610 -0.1766 -0.2880  0.2312
 2947TIP3    H133036   0.168   3.509   8.677 -2.1621 -0.3297 -0.9113
 2947TIP3    H233037   0.220   3.515   8.535 -0.1382 -0.8610 -0.2241
 2948TIP3   OH233038   1.144   0.993   1.333  0.1553 -0.2150  0.5549
 2948TIP3    H133039   1.239   0.989   1.330  0.4477  2.7311  2.0415
 2948TIP3    H233040   1.120   0.939   1.408  0.8241  0.1905  1.0761
 2949TIP3   OH233041   0.222   6.659   0.052 -0.9599  0.4157 -0.5164
 2949TIP3    H133042   0.220   6.581  -0.005 -2.8100  1.1300 -1.5312
 2949TIP3    H233043   0.224   6.623   0.141 -4.4055 -0.9944 -0.8318
 2950TIP3   OH233044   0.169   5.231   9.162  0.2691 -0.2923  0.1554
 2950TIP3    H133045   0.220   5.159   9.125 -1.5432 -2.6460  1.9140
 2950TIP3    H233046   0.111   5.259   9.092  1.6436  0.1966 -0.8408
 2951TIP3   OH233047   4.194   6.027   0.999  0.2342  0.4150 -0.6356
 2951TIP3    H133048   4.288   6.032   0.980 -0.0156  0.3882 -1.9722
 2951TIP3    H233049   4.156   6.102   0.954 -0.2786  1.0530  0.7879
 2952TIP3   OH233050   2.540   4.866   9.389 -0.6307 -0.0660 -0.0848
 2952TIP3    H133051   2.535   4.960   9.373 -1.6208 -0.1285 -0.1725
 2952TIP3    H233052   2.616   4.856   9.447 -1.4345  0.9664  1.1953
 2953TIP3   OH233053   3.392   3.472   7.732 -0.4135 -0.1680 -0.3883
 2953TIP3    H133054   3.368   3.394   7.782 -2.3202  0.5439 -0.1314
 2953TIP3    H233055   3.425   3.534   7.797  0.3717 -0.4613 -0.4942
 2954TIP3   OH233056   3.091   0.630   7.939 -0.4304  0.5052  0.3581
 2954TIP3    H133057   3.155   0.584   7.885  1.5454  1.5375  1.6616
 2954TIP3    H233058   3.022   0.656   7.878  0.7771  0.0134 -1.3051
 2955TIP3   OH233059   1.086   4.065   6.834  0.3246  0.3370 -0.8465
 2955TIP3    H133060   0.992   4.077   6.846  0.4953  0.0234  1.1582
 2955TIP3    H233061   1.097   3.971   6.821  0.4040  0.2768 -0.3773
 2956TIP3   OH233062   4.568   4.914   7.081 -0.4502 -0.6177 -0.3260
 2956TIP3    H133063   4.498   4.964   7.123  0.2693 -0.0829  0.2664
 2956TIP3    H233064   4.587   4.843   7.143  0.0170 -0.3403 -0.1461
 2957TIP3   OH233065   4.890   0.344   8.738  0.2610  0.4222  0.0068
 2957TIP3    H133066   4.854   0.427   8.707 -0.9621  0.5577  1.6686
 2957TIP3    H233067   4.920   0.362   8.827  1.1506 -0.6127 -0.0561
 2958TIP3   OH233068   3.426   2.150   2.540 -0.2143  0.0907 -0.1999
 2958TIP3    H133069   3.479   2.070   2.545 -0.6478 -0.1026  1.8711
 2958TIP3    H233070   3.343   2.122   2.501  0.3891 -0.0244 -1.4460
 2959TIP3   OH233071   5.175   2.234   8.192  0.4791  0.1487 -0.3320
 2959TIP3    H133072   5.174   2.139   8.205 -1.7799 -0.0526 -1.4709
 2959TIP3    H233073   5.222   2.268   8.268  0.6966 -1.8447  0.4759
 2960TIP3   OH233074   5.184   5.080   0.202 -0.2825  0.2660 -0.0018
 2960TIP3    H133075   5.137   5.030   0.135  0.2716 -0.5930  0.2366
 2960TIP3    H233076   5.263   5.112   0.158 -1.0645  1.7311 -0.4098
 2961TIP3   OH233077   5.935   6.918   7.672 -0.7901 -0.3514 -0.3743
 2961TIP3    H133078   5.946   6.823   7.673 -2.1837 -0.5948 -2.2456
 2961TIP3    H233079   5.892   6.936   7.589 -0.7309  1.9184  0.0242
 2962TIP3   OH233080   7.085   0.763   7.862 -0.5319 -0.3795 -0.2297
 2962TIP3    H133081   7.117   0.850   7.886 -1.7848  0.8289 -2.5349
 2962TIP3    H233082   7.125   0.746   7.777  0.4525 -2.5469  0.5957
 2963TIP3   OH233083   5.432   0.533   1.376 -0.1060 -0.2437 -0.1142
 2963TIP3    H133084   5.442   0.527   1.471  1.1509  0.8824 -0.1372
 2963TIP3    H233085   5.349   0.489   1.357 -0.4880 -0.2888  1.5271
 2964TIP3   OH233086   1.825   1.579   7.978 -0.0187 -0.7230 -0.2312
 2964TIP3    H133087   1.895   1.580   7.913  0.3895 -1.1153  0.1927
 2964TIP3    H233088   1.870   1.592   8.061 -0.4288 -1.1222  0.0575
 2965TIP3   OH233089   4.058   5.093   1.657 -0.3429 -0.2198  0.4530
 2965TIP3    H133090   3.999   5.115   1.585 -0.4389 -0.4618  0.4589
 2965TIP3    H233091   4.137   5.061   1.613  0.1080  0.8776  0.4182
 2966TIP3   OH233092   3.804   0.757   1.658 -0.3253 -0.0153  0.0641
 2966TIP3    H133093   3.720   0.718   1.680  0.2235 -0.9617  0.5779
 2966TIP3    H233094   3.818   0.735   1.566 -0.5266 -0.1047  0.0556
 2967TIP3   OH233095   5.696   3.079   7.749  0.0719  0.6506  0.4865
 2967TIP3    H133096   5.727   2.996   7.713 -0.5836  0.1555  1.0301
 2967TIP3    H233097   5.652   3.122   7.675  0.4097  0.5187  0.2044
 2968TIP3   OH233098   4.782   3.746   9.485 -0.0844  0.0586 -0.9850
 2968TIP3    H133099   4.780   3.769   9.393 -0.0704  2.4824 -0.4541
 2968TIP3    H233100   4.793   3.830   9.531 -0.3032 -1.0334  1.2284
 2969TIP3   OH233101   6.256   5.088   1.841  0.0776 -0.1379 -0.5650
 2969TIP3    H133102   6.175   5.125   1.875 -0.0667  0.7162 -1.7838
 2969TIP3    H233103   6.270   5.009   1.894 -1.7024 -0.4758 -0.5249
 2970TIP3   OH233104   0.137   1.127   2.514  0.5151  0.1041 -0.0583
 2970TIP3    H133105   0.208   1.185   2.487  0.5295  1.0126  1.8155
 2970TIP3    H233106   0.178   1.066   2.575  0.0456 -0.5242 -0.3643
 2971TIP3   OH233107   2.605   4.011   0.938  0.1181  0.6112  0.2201
 2971TIP3    H133108   2.639   3.984   0.852  0.8827  1.7299  0.1529
 2971TIP3    H233109   2.586   4.104   0.928  2.1345  1.2518  1.8104
 2972TIP3   OH233110   7.352   3.861   0.039 -0.8358 -0.1304 -0.6670
 2972TIP3    H133111   7.300   3.926   0.088  0.6410  1.0027 -0.5507
 2972TIP3    H233112   7.370   3.792   0.103 -0.5690  0.4085 -0.1508
 2973TIP3   OH233113   6.379   3.062   7.987  0.2771 -0.2338  0.4178
 2973TIP3    H133114   6.343   3.150   7.972 -0.0066 -0.3581  0.3662
 2973TIP3    H233115   6.463   3.063   7.941 -0.1336 -0.2827 -0.3367
 2974TIP3   OH233116   2.594   5.375   9.371  0.0262  0.1135  0.3410
 2974TIP3    H133117   2.623   5.304   9.429 -0.2150 -0.8300 -0.6714
 2974TIP3    H233118   2.526   5.421   9.422  0.5997  0.0035  1.2350
 2975TIP3   OH233119   4.582   3.261   7.354 -0.0570  0.2805  0.2686
 2975TIP3    H133120   4.578   3.212   7.436 -0.7215 -0.0623  0.0387
 2975TIP3    H233121   4.668   3.240   7.318  0.4054  0.7371  1.0519
 2976TIP3   OH233122   7.188   5.621   1.942  0.0348 -0.5208 -0.3795
 2976TIP3    H133123   7.117   5.652   1.999 -0.1979 -0.3252 -0.7700
 2976TIP3    H233124   7.251   5.581   2.002 -0.7100 -1.2795 -0.0802
 2977TIP3   OH233125   1.652   5.161   1.613 -0.9391  0.2869  0.3815
 2977TIP3    H133126   1.652   5.077   1.568 -2.0658  0.5087 -0.0515
 2977TIP3    H233127   1.673   5.139   1.704 -0.1630 -0.3312  0.0644
 2978TIP3   OH233128   7.131   6.090   8.143  0.1555  0.2440  0.5455
 2978TIP3    H133129   7.120   6.185   8.135  1.8733  0.4002 -0.4512
 2978TIP3    H233130   7.081   6.066   8.221 -1.5104  1.7373 -0.0045
 2979TIP3   OH233131   4.235   1.087   7.049  0.0320 -0.0825  0.3067
 2979TIP3    H133132   4.143   1.111   7.042  0.3397  0.9578 -0.4088
 2979TIP3    H233133   4.282   1.170   7.041  1.0374 -0.6010  0.6587
 2980TIP3   OH233134   1.006   0.693   9.473  0.3018 -0.3492 -0.0734
 2980TIP3    H133135   1.098   0.698   9.447  0.3420 -2.0238 -0.3342
 2980TIP3    H233136   0.985   0.782   9.500  1.0649  0.8735 -3.1017
 2981TIP3   OH233137   2.744   2.844   0.187 -0.4568 -0.3659  0.0956
 2981TIP3    H133138   2.684   2.811   0.253 -3.8082  0.9715 -1.9990
 2981TIP3    H233139   2.799   2.907   0.233 -0.2450 -2.0158  2.2234
 2982TIP3   OH233140   4.075   2.684   0.209 -0.4761 -0.0021  0.3778
 2982TIP3    H133141   4.118   2.770   0.213 -0.9432  0.3034 -0.8031
 2982TIP3    H233142   4.092   2.653   0.120 -0.9791 -0.7951  0.5486
 2983TIP3   OH233143   6.732   0.037   8.835  0.0685 -0.5674 -0.3891
 2983TIP3    H133144   6.783   0.104   8.881 -0.2420 -1.7640  1.8439
 2983TIP3    H233145   6.798  -0.022   8.799  0.3883  1.2286 -3.1030
 2984TIP3   OH233146   1.809   1.355   7.479  0.1243 -0.4010  0.0192
 2984TIP3    H133147   1.750   1.363   7.404 -0.0179  0.1538  0.1884
 2984TIP3    H233148   1.874   1.425   7.466  0.0116 -0.2090  0.4921
 2985TIP3   OH233149   3.873   0.166   7.805  0.5220 -0.1400 -0.3854
 2985TIP3    H133150   3.837   0.177   7.893  0.7144  0.2157 -0.3495
 2985TIP3    H233151   3.933   0.240   7.794  1.7361 -1.0672 -0.2036
 2986TIP3   OH233152   6.410   6.244   9.531  0.3991 -0.8076 -0.0464
 2986TIP3    H133153   6.421   6.248   9.626  0.1498 -0.9185 -0.0121
 2986TIP3    H233154   6.433   6.332   9.500 -2.1855  0.0896  0.3926
 2987TIP3   OH233155   4.866   3.179   0.248 -0.0929 -0.1556  0.3111
 2987TIP3    H133156   4.826   3.141   0.170  0.5279 -0.8238  0.3001
 2987TIP3    H233157   4.892   3.103   0.300  0.5231  0.2697  0.6338
 2988TIP3   OH233158   5.035   4.364   1.767 -0.1683  0.3462 -0.0826
 2988TIP3    H133159   4.948   4.330   1.787 -0.1656 -0.4715 -1.3572
 2988TIP3    H233160   5.035   4.452   1.804 -1.8537  0.6868 -0.7876
 2989TIP3   OH233161   0.025   0.266   0.799 -0.1511 -0.0020  0.4921
 2989TIP3    H133162   0.026   0.233   0.709 -0.4192 -0.4786  0.6595
 2989TIP3    H233163  -0.033   0.206   0.846  1.4294 -0.9034  1.3965
 2990TIP3   OH233164   1.645   6.836   8.316  0.2324 -0.0701 -0.6476
 2990TIP3    H133165   1.700   6.912   8.337 -1.0320  1.0100 -1.1227
 2990TIP3    H233166   1.617   6.802   8.401  2.6717 -1.4950 -0.3115
 2991TIP3   OH233167   2.076   1.257   1.873  0.0649  0.1426  0.4142
 2991TIP3    H133168   2.017   1.183   1.880 -0.7129  0.6308 -0.6865
 2991TIP3    H233169   2.158   1.228   1.914 -0.6137 -0.8831  1.0608
 2992TIP3   OH233170   2.474   2.097   8.073  0.1477  0.0596 -0.7779
 2992TIP3    H133171   2.409   2.167   8.082 -0.5168 -0.6180 -0.1890
 2992TIP3    H233172   2.447   2.050   7.994  0.7258  0.5852 -1.3024
 2993TIP3   OH233173   1.334   0.014   1.170  0.1004 -0.3202  0.7542
 2993TIP3    H133174   1.354  -0.078   1.153 -1.4942 -0.3184 -1.6810
 2993TIP3    H233175   1.313   0.017   1.264 -0.5229 -2.6087  0.7549
 2994TIP3   OH233176   2.197   5.847   2.051  0.2969 -0.3328  0.1424
 2994TIP3    H133177   2.225   5.936   2.031 -2.1642  0.6076  0.5200
 2994TIP3    H233178   2.244   5.824   2.131  0.6432  0.7972  0.2763
 2995TIP3   OH233179   5.488   6.634   7.974 -0.2718  0.0536 -0.3611
 2995TIP3    H133180   5.569   6.651   8.022 -1.4820  0.7161  1.5555
 2995TIP3    H233181   5.487   6.700   7.905 -0.2112  1.4772  0.9574
 2996TIP3   OH233182   3.212   2.760   8.850 -0.2863  0.4190 -0.0732
 2996TIP3    H133183   3.172   2.846   8.860  1.9636  1.4679  0.7229
 2996TIP3    H233184   3.306   2.778   8.848  0.3662 -2.1748  1.9328
 2997TIP3   OH233185   3.372   5.856   0.447  0.0605  0.1616  0.2313
 2997TIP3    H133186   3.327   5.772   0.445 -0.4427  0.4081  0.8807
 2997TIP3    H233187   3.316   5.914   0.394 -0.1174  0.3336  0.6020
 2998TIP3   OH233188   1.291   3.762   2.179  0.2521  0.1133 -0.2115
 2998TIP3    H133189   1.277   3.767   2.084  0.9573  1.6459 -0.2627
 2998TIP3    H233190   1.369   3.708   2.189 -0.3316 -0.7955 -0.4362
 2999TIP3   OH233191   3.425   1.572   0.103  0.2972  0.3457 -0.1307
 2999TIP3    H133192   3.479   1.649   0.086  0.3184  0.5292  0.7116
 2999TIP3    H233193   3.413   1.531   0.017  1.1606  0.7048 -0.4316
 3000TIP3   OH233194   0.183   6.592   7.908  0.0070  0.0112 -0.4463
 3000TIP3    H133195   0.272   6.584   7.873 -0.0117  1.5834 -0.9232
 3000TIP3    H233196   0.185   6.672   7.961 -0.2059 -1.8405  2.5789
 3001TIP3   OH233197   0.766   1.938   0.008 -0.2248 -0.5771  0.3929
 3001TIP3    H133198   0.745   1.873  -0.059 -3.7727  0.4311  0.3251
 3001TIP3    H233199   0.681   1.958   0.050  1.0894  2.2482  2.0045
 3002TIP3   OH233200   6.722   4.500   9.101 -0.6364 -0.0181 -0.0629
 3002TIP3    H133201   6.689   4.464   9.020  1.4026  0.7968 -1.3439
 3002TIP3    H233202   6.791   4.438   9.128 -0.7501  0.1420  0.6083
 3003TIP3   OH233203   4.902   2.056   8.420  0.4653  0.2058 -0.2206
 3003TIP3    H133204   4.935   1.971   8.448 -1.1486 -0.6800 -0.8179
 3003TIP3    H233205   4.816   2.063   8.463  0.3021  1.2288 -0.6936
 3004TIP3   OH233206   1.750   3.989   2.052  0.5130  0.1207  0.1827
 3004TIP3    H133207   1.676   3.994   2.112 -0.3887 -0.5904 -0.8109
 3004TIP3    H233208   1.797   3.910   2.078  0.7998  0.4569  0.6835
 3005TIP3   OH233209   3.825   4.915   9.213  0.1474 -0.5142  0.0096
 3005TIP3    H133210   3.805   4.991   9.269  0.8065  0.2421 -0.7614
 3005TIP3    H233211   3.846   4.953   9.128 -1.4182 -1.6899 -0.9413
 3006TIP3   OH233212   7.301   3.972   8.160 -0.3273  0.0167 -0.1516
 3006TIP3    H133213   7.383   3.972   8.210  0.2814 -1.2982 -1.1170
 3006TIP3    H233214   7.262   3.887   8.179 -0.7740  0.0705 -0.8236
 3007TIP3   OH233215   0.587   0.747   0.658 -0.2249  0.4233  0.0607
 3007TIP3    H133216   0.546   0.747   0.572  1.3203 -1.7107 -0.7797
 3007TIP3    H233217   0.516   0.767   0.719 -1.7143  0.3267 -1.5734
 3008TIP3   OH233218   0.055   4.301   0.497  0.1394 -0.6396  0.4900
 3008TIP3    H133219   0.014   4.342   0.573  0.6104  1.2053 -0.1918
 3008TIP3    H233220   0.106   4.229   0.533 -1.2802 -1.0908  1.6754
 3009TIP3   OH233221   6.668   5.085   8.420  0.4833 -0.3302  0.0065
 3009TIP3    H133222   6.631   5.052   8.502  1.6314 -0.7035  0.3818
 3009TIP3    H233223   6.706   5.169   8.442  1.4116 -0.7449  0.0241
 3010TIP3   OH233224   0.167   3.432   0.290  0.1872  0.5465  0.1589
 3010TIP3    H133225   0.145   3.493   0.361  1.0759  0.0279  0.9090
 3010TIP3    H233226   0.084   3.418   0.244 -0.2282  1.5650  0.5637
 3011TIP3   OH233227   4.255   5.491   9.477  0.3707  0.0116 -0.0875
 3011TIP3    H133228   4.268   5.435   9.553 -3.0825 -2.3058 -0.9587
 3011TIP3    H233229   4.266   5.433   9.402  0.3486  1.4086 -1.2048
 3012TIP3   OH233230   1.571   6.912   8.879 -0.3169 -0.2700 -0.4447
 3012TIP3    H133231   1.665   6.915   8.863 -0.4035  0.0415 -0.9155
 3012TIP3    H233232   1.563   6.896   8.973  0.2117 -2.0867 -0.6598
 3013TIP3   OH233233   0.700   1.125   7.882 -0.2636  0.0732 -0.5610
 3013TIP3    H133234   0.689   1.201   7.940  1.2701  0.5084 -0.7870
 3013TIP3    H233235   0.795   1.113   7.877 -0.4366 -3.2916  1.2805
 3014TIP3   OH233236   5.097   7.345   1.132 -0.4633  0.1660 -0.1620
 3014TIP3    H133237   5.145   7.300   1.063  1.4476  1.2518  0.3661
 3014TIP3    H233238   5.027   7.392   1.086  1.8835  2.3816 -1.7144
 3015TIP3   OH233239   6.784   3.814   1.374  0.2669 -0.0864 -0.4397
 3015TIP3    H133240   6.814   3.758   1.303  1.0586  1.0758 -1.0453
 3015TIP3    H233241   6.849   3.884   1.379 -0.7153  0.8067  0.2569
 3016TIP3   OH233242   0.234   1.239   1.726 -0.1602 -0.5764  0.4429
 3016TIP3    H133243   0.191   1.302   1.785 -0.9053  0.7266 -1.3884
 3016TIP3    H233244   0.234   1.282   1.641  2.7200 -1.5430 -0.1542
 3017TIP3   OH233245   1.260   3.941   8.704 -0.1741  0.1603 -0.4094
 3017TIP3    H133246   1.177   3.989   8.699  0.5687  1.7787  1.4936
 3017TIP3    H233247   1.239   3.862   8.753 -0.3011  1.4205  1.6555
 3018TIP3   OH233248   5.680   0.632   1.275  0.2472 -0.2299  0.0169
 3018TIP3    H133249   5.586   0.642   1.289  0.3896  0.9025  0.2691
 3018TIP3    H233250   5.694   0.661   1.184  0.2813 -0.9629 -0.2211
 3019TIP3   OH233251   7.234   2.145   8.572 -0.7165 -0.4433 -0.5397
 3019TIP3    H133252   7.182   2.225   8.571 -1.8461 -1.1546 -0.4751
 3019TIP3    H233253   7.244   2.120   8.480  1.5951  0.9587 -0.7506
 3020TIP3   OH233254   4.884   1.708   9.209 -0.3278  0.2991  0.0282
 3020TIP3    H133255   4.915   1.681   9.296 -0.1168  0.9246  0.1531
 3020TIP3    H233256   4.821   1.777   9.227 -0.1094  0.5911 -0.3254
 3021TIP3   OH233257   6.341   6.718   9.612 -0.8354  0.4679 -0.6685
 3021TIP3    H133258   6.249   6.744   9.616 -1.5100 -1.8383  0.4362
 3021TIP3    H233259   6.370   6.718   9.703 -0.1092  0.0157 -0.8889
 3022TIP3   OH233260   2.284   7.300   8.472 -0.2867 -0.7647 -0.1411
 3022TIP3    H133261   2.354   7.272   8.531 -0.0287 -0.1278 -0.1341
 3022TIP3    H233262   2.299   7.394   8.460 -0.4001 -0.8685 -1.1445
 3023TIP3   OH233263   1.394   4.561   1.811 -0.1588  0.8294  0.0184
 3023TIP3    H133264   1.447   4.503   1.866  0.4481  1.4359  0.0814
 3023TIP3    H233265   1.304   4.530   1.824  0.2366 -0.6642 -0.6422
 3024TIP3   OH233266   1.893   3.781   0.612 -0.2010 -1.0150 -0.0100
 3024TIP3    H133267   1.835   3.713   0.576  0.1536 -1.1429 -0.3462
 3024TIP3    H233268   1.914   3.836   0.537  0.9626 -1.5815 -0.1265
 3025TIP3   OH233269   2.637   0.597   1.975  0.3067 -0.9419 -0.1082
 3025TIP3    H133270   2.697   0.525   1.955  1.0975  0.0556 -1.4923
 3025TIP3    H233271   2.646   0.658   1.901 -3.6275 -1.4761 -1.2658
 3026TIP3   OH233272   0.647   3.732   2.636  0.1595 -0.3269 -0.3748
 3026TIP3    H133273   0.725   3.780   2.664  0.9189 -1.5011 -0.4067
 3026TIP3    H233274   0.662   3.714   2.543  0.9212 -2.4603  0.1049
 3027TIP3   OH233275   7.209   3.708   8.173 -0.8419  0.6074 -0.9088
 3027TIP3    H133276   7.274   3.684   8.239  0.3075  0.5993 -1.9969
 3027TIP3    H233277   7.166   3.625   8.151 -2.6740  0.8951  1.2247
 3028TIP3   OH233278   6.399   2.784   0.068 -0.2328  0.1427  0.1123
 3028TIP3    H133279   6.357   2.839   0.135 -1.8385 -2.4432  1.3872
 3028TIP3    H233280   6.404   2.697   0.108  0.3242 -1.1372 -2.5258
 3029TIP3   OH233281   0.721   5.778   8.499 -0.1242 -0.0013 -0.1927
 3029TIP3    H133282   0.768   5.808   8.421 -0.5625 -0.3506 -0.5908
 3029TIP3    H233283   0.660   5.849   8.519 -0.6376 -0.2914 -0.6979
 3030TIP3   OH233284   2.209   0.077   7.637  0.1306 -0.1878  0.3815
 3030TIP3    H133285   2.173   0.143   7.697  1.1593  1.9505 -1.2169
 3030TIP3    H233286   2.155   0.085   7.558  0.8335 -0.6376 -0.1577
 3031TIP3   OH233287   2.631   1.319   8.921  0.1679  0.1428 -0.1971
 3031TIP3    H133288   2.594   1.381   8.984  1.3029 -1.2264  1.9354
 3031TIP3    H233289   2.721   1.350   8.907  0.8499 -1.1342  1.1337
 3032TIP3   OH233290   2.058   6.860   0.882 -0.2893 -0.7393  0.1095
 3032TIP3    H133291   2.138   6.826   0.923 -0.5941  1.4190  2.7142
 3032TIP3    H233292   2.070   6.955   0.881 -2.0831 -0.4832 -1.1640
 3033TIP3   OH233293   7.389   1.463   8.326 -1.1483 -0.4251 -0.9921
 3033TIP3    H133294   7.473   1.442   8.367 -1.2826 -0.4927 -0.7505
 3033TIP3    H233295   7.325   1.407   8.370 -1.3456 -0.2641 -1.0687
 3034TIP3   OH233296   1.044   3.553   9.089  0.7413 -0.1366 -1.0807
 3034TIP3    H133297   1.071   3.467   9.056  0.7984  0.1093 -1.7001
 3034TIP3    H233298   1.078   3.557   9.178  0.4578 -0.8858 -0.9318
 3035TIP3   OH233299   4.875   0.562   0.759  0.2615  0.0368  0.5699
 3035TIP3    H133300   4.941   0.630   0.773  2.0534 -1.1004 -1.6281
 3035TIP3    H233301   4.800   0.608   0.724  0.4758  1.1735  1.5403
 3036TIP3   OH233302   6.421   7.162   1.857  0.3949 -0.3055  0.2531
 3036TIP3    H133303   6.497   7.202   1.900  0.5735 -0.5358  0.1525
 3036TIP3    H233304   6.349   7.223   1.874  1.0468  1.0346 -1.4854
 3037TIP3   OH233305   6.971   1.616   1.542  0.0470  0.4716 -0.1155
 3037TIP3    H133306   6.877   1.627   1.528  0.1292  1.1328 -0.1947
 3037TIP3    H233307   6.998   1.696   1.588  0.3772 -0.1883  0.8815
 3038TIP3   OH233308   2.938   6.433   7.544  0.4612 -0.5959  0.4552
 3038TIP3    H133309   2.926   6.463   7.454  1.1154 -1.3201  0.1217
 3038TIP3    H233310   2.855   6.389   7.565  0.2012 -0.1831  0.3098
 3039TIP3   OH233311   5.146   0.111   0.007  0.3327  0.0871  0.0677
 3039TIP3    H133312   5.051   0.107   0.017  0.4651 -0.9049  1.0226
 3039TIP3    H233313   5.172   0.186   0.060  0.2486 -0.7062  1.2692
 3040TIP3   OH233314   1.056   2.625   1.507  0.3908  0.1918 -0.1753
 3040TIP3    H133315   1.070   2.696   1.445  0.9002 -0.0144 -0.3041
 3040TIP3    H233316   1.144   2.592   1.526  0.1569 -0.4219 -0.1386
 3041TIP3   OH233317   3.535   7.310   9.000  0.4734 -0.0137  0.9035
 3041TIP3    H133318   3.459   7.257   8.976  0.6385 -0.9237  2.2841
 3041TIP3    H233319   3.547   7.370   8.926 -1.3746 -0.0696  0.5137
 3042TIP3   OH233320   4.529   3.049   8.358 -0.4991  0.1434 -0.0478
 3042TIP3    H133321   4.619   3.061   8.326 -1.0975 -1.8475 -2.8757
 3042TIP3    H233322   4.478   3.113   8.307 -1.0293 -0.7401 -0.6478
 3043TIP3   OH233323   5.898   6.191   1.955 -0.5033  0.2745 -0.1289
 3043TIP3    H133324   5.973   6.240   1.921 -1.1991  0.4947 -1.4055
 3043TIP3    H233325   5.882   6.228   2.041 -0.2417  1.4452 -0.5660
 3044TIP3   OH233326   3.106   1.941   7.276  0.0823 -0.0125  0.2938
 3044TIP3    H133327   3.019   1.977   7.290 -0.5678 -2.3066  3.2521
 3044TIP3    H233328   3.165   2.000   7.324 -0.3101 -0.1837  1.0024
 3045TIP3   OH233329   4.719   4.266   8.122  0.2017  0.9240 -0.5646
 3045TIP3    H133330   4.798   4.320   8.116 -0.1369  1.4431 -0.3706
 3045TIP3    H233331   4.743   4.195   8.182  0.7545  0.6590 -1.0780
 3046TIP3   OH233332   7.323   6.615   7.256  0.2916  0.3313  0.2483
 3046TIP3    H133333   7.390   6.560   7.295 -0.1552  0.3278  1.0243
 3046TIP3    H233334   7.336   6.605   7.161  0.4041 -0.8598  0.3759
 3047TIP3   OH233335   4.935   5.198   7.964 -0.6529  0.2342 -0.1615
 3047TIP3    H133336   4.853   5.157   7.936  0.4578 -0.9756 -1.8909
 3047TIP3    H233337   4.949   5.268   7.900 -0.4768  0.6060  0.2851
 3048TIP3   OH233338   7.091   3.497   8.873 -0.3594  0.1684 -0.6396
 3048TIP3    H133339   7.163   3.534   8.924  0.2472 -0.4329 -1.0350
 3048TIP3    H233340   7.070   3.564   8.808 -3.1552  2.2877  2.1182
 3049TIP3   OH233341   6.674   1.880   2.488  0.3535  0.1210 -0.7541
 3049TIP3    H133342   6.672   1.911   2.578  0.4955  1.7294 -1.2599
 3049TIP3    H233343   6.765   1.855   2.473  0.2480 -0.5194 -0.3430
 3050TIP3   OH233344   0.971   3.619   8.177  0.5877  0.3040 -0.4205
 3050TIP3    H133345   0.929   3.617   8.091 -1.7042  0.1578  0.6310
 3050TIP3    H233346   1.010   3.532   8.186 -0.4335 -0.2109 -0.7450
 3051TIP3   OH233347   4.997   5.786   6.821 -0.4424 -0.2360 -0.0028
 3051TIP3    H133348   5.039   5.871   6.837 -0.7075 -0.1061  0.0079
 3051TIP3    H233349   4.953   5.797   6.736  0.3950 -0.7032 -0.5148
 3052TIP3   OH233350   3.839   2.023   1.392  0.4413 -0.3705  0.0952
 3052TIP3    H133351   3.808   1.996   1.306  2.4060  1.8397 -1.3995
 3052TIP3    H233352   3.926   1.985   1.400  1.7163  2.2037 -0.4737
 3053TIP3   OH233353   3.969   4.033   2.313  0.2942 -0.1933  0.2803
 3053TIP3    H133354   4.041   4.075   2.359 -0.4241  0.3658  0.9266
 3053TIP3    H233355   3.984   3.939   2.325  1.9774 -0.1835 -1.2723
 3054TIP3   OH233356   4.622   0.246   8.434 -0.0510 -0.2494  0.2346
 3054TIP3    H133357   4.630   0.323   8.490  0.4465  1.1335 -1.6420
 3054TIP3    H233358   4.527   0.231   8.427 -0.2847  1.5585 -1.0977
 3055TIP3   OH233359   0.574   2.408   1.624  0.7704 -0.2869  0.4167
 3055TIP3    H133360   0.585   2.442   1.535 -2.6874 -0.9783 -0.4140
 3055TIP3    H233361   0.635   2.335   1.629 -0.3460 -1.5166 -2.1757
 3056TIP3   OH233362   2.013   4.525   7.394  0.2441 -0.0483 -0.1436
 3056TIP3    H133363   1.997   4.546   7.302 -0.1526 -0.2873 -0.1311
 3056TIP3    H233364   2.039   4.609   7.434 -0.8763  0.3329 -0.1884
 3057TIP3   OH233365   6.905   1.322   0.520  0.5010  0.8452 -0.4511
 3057TIP3    H133366   6.986   1.330   0.571  0.6825 -1.2510 -0.3362
 3057TIP3    H233367   6.922   1.372   0.440  1.4941  1.3196  0.0390
 3058TIP3   OH233368   6.616   0.567   0.164 -0.9278  0.5691 -0.1030
 3058TIP3    H133369   6.524   0.540   0.160 -0.5470 -0.6553 -1.2072
 3058TIP3    H233370   6.663   0.502   0.112  0.4857  1.5758 -0.1536
 3059TIP3   OH233371   3.509   2.838   0.675 -0.5705 -0.4438  0.4197
 3059TIP3    H133372   3.415   2.825   0.679 -0.7698  0.8558  0.2556
 3059TIP3    H233373   3.529   2.846   0.582 -0.2895 -0.7175  0.4518
 3060TIP3   OH233374   3.281   3.867   1.721  0.4197 -0.0199  0.0343
 3060TIP3    H133375   3.232   3.817   1.655 -0.9268 -0.5161  1.3497
 3060TIP3    H233376   3.249   3.956   1.712  0.3569 -0.0525 -0.0759
 3061TIP3   OH233377   1.418   2.669   1.274  0.1024 -0.3715 -0.1821
 3061TIP3    H133378   1.435   2.636   1.186 -0.2339  2.6858 -1.5300
 3061TIP3    H233379   1.416   2.591   1.330  0.0075 -2.4552 -2.9133
 3062TIP3   OH233380   0.766   4.470   8.963 -0.2164 -0.2467  0.6172
 3062TIP3    H133381   0.799   4.552   8.926  0.9872 -0.9529  0.0425
 3062TIP3    H233382   0.727   4.495   9.047 -0.1682  0.9496  0.3005
 3063TIP3   OH233383   0.894   6.571   2.030  0.3083  0.1262  0.0854
 3063TIP3    H133384   0.926   6.621   1.955  0.7204 -0.3330 -0.0510
 3063TIP3    H233385   0.849   6.496   1.991  0.5305 -0.1182  0.2988
 3064TIP3   OH233386   1.193   0.221   0.355  0.1716  0.4503 -0.8607
 3064TIP3    H133387   1.102   0.195   0.368  0.5037 -0.2661  0.2381
 3064TIP3    H233388   1.192   0.316   0.351 -0.8428  0.4094 -2.8394
 3065TIP3   OH233389   1.562   2.001   6.651 -0.5524  0.6058  0.3969
 3065TIP3    H133390   1.658   2.000   6.651 -0.5374  0.4469  1.6032
 3065TIP3    H233391   1.539   2.078   6.702 -1.0572  0.1029  0.9412
 3066TIP3   OH233392   1.105   3.081   1.456 -0.0536 -0.0243 -0.1121
 3066TIP3    H133393   1.165   3.122   1.393 -1.5918  2.7036  0.0145
 3066TIP3    H233394   1.142   3.101   1.542  0.2984 -0.7989 -0.0799
 3067TIP3   OH233395   3.869   4.493   1.178  0.4090  0.0100  0.3314
 3067TIP3    H133396   3.961   4.482   1.201  1.0751  2.3381 -0.9641
 3067TIP3    H233397   3.870   4.527   1.089 -1.7957 -1.3605 -0.2984
 3068TIP3   OH233398   1.296   3.380   7.527  0.9162 -0.5506  0.5092
 3068TIP3    H133399   1.352   3.363   7.603  0.5401  0.0990  0.9453
 3068TIP3    H233400   1.236   3.305   7.524 -1.4412  1.0390  3.0577
 3069TIP3   OH233401   7.356   0.805   8.336  0.3455  0.2345 -0.0655
 3069TIP3    H133402   7.423   0.748   8.300  0.0266  0.2985 -0.7775
 3069TIP3    H233403   7.278   0.787   8.284 -0.4907 -0.5868  1.4174
 3070TIP3   OH233404   2.777   5.876   2.089 -0.3880  0.0173 -0.2956
 3070TIP3    H133405   2.805   5.900   2.177 -1.5235  1.1057 -0.2039
 3070TIP3    H233406   2.857   5.848   2.045 -0.0245 -2.0474  1.5267
 3071TIP3   OH233407   3.757   2.012   8.722 -0.0588 -0.8421  0.1381
 3071TIP3    H133408   3.732   1.921   8.705 -0.3158 -0.9795  1.1853
 3071TIP3    H233409   3.794   2.011   8.811 -2.2582  0.4559  1.1573
 3072TIP3   OH233410   3.636   6.041   0.903 -0.1585  0.0481  0.0210
 3072TIP3    H133411   3.697   6.048   0.829 -0.2939 -0.0627 -0.1017
 3072TIP3    H233412   3.584   5.963   0.884 -0.2758  0.0890  0.1724
 3073TIP3   OH233413   6.359   4.819   9.164  0.1155 -0.3226 -0.0136
 3073TIP3    H133414   6.433   4.804   9.105  0.8956 -1.3380  1.1595
 3073TIP3    H233415   6.285   4.777   9.121  1.0019 -2.4377  0.3965
 3074TIP3   OH233416   5.123   1.171   1.461  0.4018 -0.6604  0.4243
 3074TIP3    H133417   5.045   1.211   1.423  0.6049 -0.9333 -0.2966
 3074TIP3    H233418   5.174   1.244   1.495  0.3821 -0.3756 -0.1526
 3075TIP3   OH233419   1.096   4.281   0.733 -0.3398  0.2262  0.4547
 3075TIP3    H133420   1.032   4.264   0.663  1.5260 -1.6873 -0.9058
 3075TIP3    H233421   1.111   4.195   0.773  1.1375  0.6931  0.9529
 3076TIP3   OH233422   3.018   4.530   8.920 -0.2391  0.1111 -0.1724
 3076TIP3    H133423   3.029   4.579   9.002 -0.0346  0.4382 -0.3964
 3076TIP3    H233424   3.081   4.458   8.927  1.1460  1.2037 -0.8527
 3077TIP3   OH233425   0.583   0.328   2.221 -0.0302  0.3911 -0.3475
 3077TIP3    H133426   0.520   0.260   2.195  1.3512 -0.8004 -0.7324
 3077TIP3    H233427   0.615   0.363   2.138  0.5866  0.2315 -0.1805
 3078TIP3   OH233428   1.468   0.633   2.986  0.3074 -0.7050  0.1323
 3078TIP3    H133429   1.560   0.659   2.986  0.8198 -2.4322 -0.1534
 3078TIP3    H233430   1.421   0.710   3.019  2.0298 -0.4082  2.0870
 3079TIP3   OH233431   3.113   4.318   0.142 -1.0591 -0.1725 -0.6569
 3079TIP3    H133432   3.093   4.225   0.143  0.8361 -0.6221 -0.7466
 3079TIP3    H233433   3.104   4.345   0.233 -0.6748 -0.6635 -0.4713
 3080TIP3   OH233434   0.213   2.738   0.344 -0.0311  0.0001  0.2562
 3080TIP3    H133435   0.289   2.738   0.286 -0.9344  1.2861 -0.9767
 3080TIP3    H233436   0.233   2.670   0.409  1.8917 -0.1017 -0.3707
 3081TIP3   OH233437   3.770   2.780   0.833  0.1458 -0.1521  0.4992
 3081TIP3    H133438   3.737   2.793   0.744 -0.3110 -0.1196  0.6693
 3081TIP3    H233439   3.728   2.848   0.885  0.2367 -0.3082  0.7823
 3082TIP3   OH233440   3.303   0.065   0.741  0.1863  0.2494  0.1526
 3082TIP3    H133441   3.346   0.082   0.825  1.0072  2.0662 -0.5775
 3082TIP3    H233442   3.236   0.133   0.733 -1.5104 -1.3225  0.3449
 3083TIP3   OH233443   0.030   5.159   7.033 -0.6841  0.4986  0.0805
 3083TIP3    H133444  -0.006   5.114   6.957 -0.7665 -1.2584  1.0994
 3083TIP3    H233445  -0.030   5.231   7.050 -2.4178 -0.9366  0.3024
 3084TIP3   OH233446   3.472   2.505   6.665  0.5804 -0.1504  0.1464
 3084TIP3    H133447   3.545   2.565   6.648 -1.1175  1.5833 -1.7953
 3084TIP3    H233448   3.510   2.418   6.663  2.7100  0.7376 -0.0246
 3085TIP3   OH233449   6.055   3.399   8.610 -0.3398  0.6734  0.2160
 3085TIP3    H133450   6.071   3.477   8.558  1.2514 -0.2636 -0.7647
 3085TIP3    H233451   5.992   3.348   8.559  1.5598 -0.4570 -1.1046
 3086TIP3   OH233452   3.009   0.168   9.651 -0.1998 -0.1086 -0.0116
 3086TIP3    H133453   2.961   0.230   9.596  0.4968  1.1780  0.7757
 3086TIP3    H233454   3.091   0.213   9.672  0.2857 -1.2658  0.6618
 3087TIP3   OH233455   4.224   6.054   0.406 -0.0048  0.0719  0.4110
 3087TIP3    H133456   4.179   5.979   0.367 -2.3928  1.6776 -0.1398
 3087TIP3    H233457   4.303   6.017   0.443 -1.0029 -2.7006  0.0448
 3088TIP3   OH233458   2.141   1.753   1.019  0.6292 -0.4171 -0.2427
 3088TIP3    H133459   2.057   1.772   0.978  0.2513  0.9036  1.0794
 3088TIP3    H233460   2.123   1.680   1.079  0.2738  0.2402  0.4640
 3089TIP3   OH233461   6.011   6.719   0.201  0.5686 -0.4939  0.1023
 3089TIP3    H133462   6.024   6.663   0.278  1.2500  0.0602  0.4069
 3089TIP3    H233463   5.959   6.793   0.234 -1.7511 -1.6795 -0.6510
 3090TIP3   OH233464   1.741   0.415   0.980 -0.0557 -0.2166 -0.2676
 3090TIP3    H133465   1.716   0.324   0.991 -0.5502  0.0366  0.8324
 3090TIP3    H233466   1.819   0.412   0.925 -0.3613 -1.2602 -0.6643
 3091TIP3   OH233467   2.973   7.125   1.388 -0.6013  0.2152  0.1137
 3091TIP3    H133468   3.047   7.160   1.438  1.1471 -3.3545  0.3702
 3091TIP3    H233469   2.906   7.107   1.454  0.2448 -0.9818  0.6953
 3092TIP3   OH233470   1.339   6.312   7.597  0.4334 -0.1092  0.3060
 3092TIP3    H133471   1.377   6.325   7.510  0.5916  0.0056  0.3918
 3092TIP3    H233472   1.270   6.378   7.604  0.4977 -0.0421  0.3122
 3093TIP3   OH233473   5.755   6.099   0.894 -0.3645 -1.0101  0.3863
 3093TIP3    H133474   5.773   6.151   0.972  0.7869  1.6632 -1.5463
 3093TIP3    H233475   5.838   6.055   0.875  0.2391  0.5499 -0.8179
 3094TIP3   OH233476   5.103   4.517   6.591  0.3565 -0.2969  0.1356
 3094TIP3    H133477   5.078   4.545   6.503 -0.2173  0.7843  0.6193
 3094TIP3    H233478   5.046   4.567   6.649  2.2060  0.7002  1.2133
 3095TIP3   OH233479   2.625   4.859   1.248 -0.2880 -0.0478 -0.0495
 3095TIP3    H133480   2.622   4.917   1.325 -1.1115  2.0956 -1.5958
 3095TIP3    H233481   2.704   4.807   1.261  0.3819  1.2491  1.5717
 3096TIP3   OH233482   4.147   3.985   7.539 -0.3516  0.4137 -0.1136
 3096TIP3    H133483   4.075   4.009   7.598 -0.2848  1.8773 -0.5755
 3096TIP3    H233484   4.183   4.069   7.511 -0.5424 -0.2226 -2.4625
 3097TIP3   OH233485   5.149   4.681   8.144  0.5556 -0.0701 -0.5023
 3097TIP3    H133486   5.121   4.760   8.098 -0.5254  0.1636  0.5169
 3097TIP3    H233487   5.070   4.647   8.185  1.5288 -0.0526  1.5110
 3098TIP3   OH233488   0.898   2.178   0.033  0.2209 -0.6638 -1.2221
 3098TIP3    H133489   0.979   2.161   0.080  0.3553 -0.1713 -1.2759
 3098TIP3    H233490   0.864   2.091   0.012  0.0894 -0.8964 -0.1017
 3099TIP3   OH233491   1.131   0.665   7.827  0.0414 -0.4141  0.3219
 3099TIP3    H133492   1.163   0.752   7.853  1.2458 -0.8581  0.3811
 3099TIP3    H233493   1.035   0.674   7.827  0.1532  1.3030 -1.0270
 3100TIP3   OH233494   6.907   2.676   0.177  0.3805 -0.1273 -0.1591
 3100TIP3    H133495   6.839   2.722   0.129  2.2295  0.3467 -2.5327
 3100TIP3    H233496   6.925   2.732   0.253  0.2246  1.3290 -1.1490
 3101TIP3   OH233497   5.245   0.193   2.194  0.3043  0.0633  0.5229
 3101TIP3    H133498   5.294   0.135   2.253  1.2431 -0.5259 -0.8044
 3101TIP3    H233499   5.157   0.155   2.192  0.4799 -0.3763  0.8947
 3102TIP3   OH233500   1.125   1.763   7.700 -0.1601 -0.1759  0.0221
 3102TIP3    H133501   1.093   1.762   7.610  1.3264 -1.1491 -0.5346
 3102TIP3    H233502   1.213   1.725   7.695  0.5642  1.1404  1.6694
 3103TIP3   OH233503   5.229   7.289   9.047 -0.2403 -0.0048 -0.4839
 3103TIP3    H133504   5.282   7.224   9.001  0.4059  1.0867 -1.3326
 3103TIP3    H233505   5.180   7.238   9.112  1.0012 -1.1992 -0.4317
 3104TIP3   OH233506   7.054   4.765   6.952 -0.2140 -0.2080  0.0985
 3104TIP3    H133507   6.990   4.694   6.941 -2.2515  1.5036  0.1267
 3104TIP3    H233508   7.115   4.754   6.879 -0.0406 -2.3566  0.5097
 3105TIP3   OH233509   4.028   6.241   7.690 -0.6153 -0.4974  0.8993
 3105TIP3    H133510   3.989   6.246   7.778 -0.1825 -0.4779  1.0947
 3105TIP3    H233511   4.117   6.209   7.706 -0.6084 -0.6993  0.4437
 3106TIP3   OH233512   4.613   0.051   0.335 -0.3595 -0.1645 -0.0537
 3106TIP3    H133513   4.587   0.003   0.257 -1.0721  0.0454  0.0469
 3106TIP3    H233514   4.616   0.142   0.307  0.8792 -0.2376 -0.2158
 3107TIP3   OH233515   6.720   1.814   1.263  0.0122  0.3376  0.6577
 3107TIP3    H133516   6.664   1.763   1.205  1.0011 -0.2346  0.1862
 3107TIP3    H233517   6.697   1.905   1.246 -0.2958  0.1330 -0.0160
 3108TIP3   OH233518   0.711   6.961   0.245 -0.2439 -0.1324 -0.0106
 3108TIP3    H133519   0.772   7.028   0.216  0.0097 -0.4462 -0.1993
 3108TIP3    H233520   0.653   6.946   0.170 -0.6753  0.2989  0.2291
 3109TIP3   OH233521   4.946   6.533   9.422 -0.1110 -0.2392  0.1314
 3109TIP3    H133522   4.864   6.504   9.384 -0.1642 -0.9946  0.7896
 3109TIP3    H233523   5.004   6.457   9.415  0.2313 -0.0198  0.5249
 3110TIP3   OH233524   6.421   1.631   2.204 -0.1745 -0.3554 -0.1851
 3110TIP3    H133525   6.415   1.689   2.280 -0.2501  1.0373 -1.2110
 3110TIP3    H233526   6.368   1.555   2.227 -0.9847  0.4795  0.7685
 3111TIP3   OH233527   2.688   2.364   8.553  0.7774  0.1276 -0.2351
 3111TIP3    H133528   2.606   2.413   8.562  1.4070  1.1236  0.2636
 3111TIP3    H233529   2.691   2.308   8.630  0.5924  0.1135 -0.2361
 3112TIP3   OH233530   1.661   6.577   9.312 -0.1769 -0.4053  0.7040
 3112TIP3    H133531   1.621   6.537   9.389 -1.4270 -0.7663 -0.1133
 3112TIP3    H233532   1.595   6.637   9.279  0.3189 -0.2981 -0.1295
 3113TIP3   OH233533   3.964   5.373   6.977  0.4144 -0.3268 -0.0799
 3113TIP3    H133534   4.014   5.300   7.013  1.7383  0.4266 -0.3079
 3113TIP3    H233535   3.882   5.372   7.025  1.0935 -0.9260  1.1283
 3114TIP3   OH233536   2.333   5.814   6.906  0.0468 -0.0238  0.1620
 3114TIP3    H133537   2.269   5.808   6.834 -0.5241 -1.1440  0.7299
 3114TIP3    H233538   2.418   5.820   6.862  0.0162 -3.7632 -0.7362
 3115TIP3   OH233539   3.130   1.471   9.394 -0.3878  0.1994  0.1929
 3115TIP3    H133540   3.124   1.476   9.299 -1.5246  1.2328  0.2945
 3115TIP3    H233541   3.086   1.389   9.417  1.6248 -1.0811 -0.2654
 3116TIP3   OH233542   0.452   7.173   1.188 -0.6150 -0.4988  0.1987
 3116TIP3    H133543   0.386   7.137   1.129 -1.4835  0.4428  0.5510
 3116TIP3    H233544   0.441   7.268   1.181  1.9897 -0.2140 -1.1377
 3117TIP3   OH233545   4.041   2.876   1.788 -0.6936  0.1027  0.5063
 3117TIP3    H133546   4.116   2.930   1.813 -0.5336 -0.2858  0.8773
 3117TIP3    H233547   3.998   2.926   1.719 -0.4767  0.6472  0.7550
 3118TIP3   OH233548   2.073   5.875   9.306  0.0803  0.1884  0.2493
 3118TIP3    H133549   2.105   5.905   9.391  0.1429 -0.0474  0.3095
 3118TIP3    H233550   2.033   5.953   9.266  0.3273  0.3738  0.3637
 3119TIP3   OH233551   0.881   7.411   8.350  0.3902  0.3571  0.6860
 3119TIP3    H133552   0.853   7.455   8.269  0.4912  0.1757  0.5539
 3119TIP3    H233553   0.801   7.367   8.381  0.6023 -0.4539  0.1195
 3120TIP3   OH233554   2.745   1.852   0.952 -0.6138 -0.4842 -0.9332
 3120TIP3    H133555   2.800   1.788   0.907  1.7126  0.2129  0.6622
 3120TIP3    H233556   2.689   1.800   1.009  1.2007 -1.2229  0.2949
 3121TIP3   OH233557   2.776   2.254   2.283  0.2571 -0.9403 -0.1534
 3121TIP3    H133558   2.735   2.312   2.347 -0.0001 -0.2103 -0.9601
 3121TIP3    H233559   2.791   2.172   2.331  2.2890  0.3278  1.5720
 3122TIP3   OH233560   6.835   3.507   8.315 -0.2808 -0.4634  0.1108
 3122TIP3    H133561   6.833   3.449   8.391  0.6378  0.5488  0.9433
 3122TIP3    H233562   6.743   3.515   8.288 -0.9053  0.6898  2.3264
 3123TIP3   OH233563   6.934   1.952   1.984  0.0234  0.2126  0.4135
 3123TIP3    H133564   6.950   2.042   2.013  2.0610 -0.3069  1.0427
 3123TIP3    H233565   6.910   1.905   2.063  2.1685 -0.4608  0.7139
 3124TIP3   OH233566   7.244   1.287   2.892  0.3234  0.5428 -0.4233
 3124TIP3    H133567   7.318   1.237   2.927  0.1056  0.0453 -0.6578
 3124TIP3    H233568   7.169   1.261   2.946  0.3271  1.1012 -0.1393
 3125TIP3   OH233569   6.587   2.559   8.812 -0.2740 -0.4547 -0.2490
 3125TIP3    H133570   6.531   2.616   8.758  1.7730  1.8215 -0.1342
 3125TIP3    H233571   6.644   2.516   8.750 -0.1452 -0.4302 -0.1470
 3126TIP3   OH233572   6.966   5.976   0.367  0.2171  0.5587  0.2280
 3126TIP3    H133573   7.034   6.013   0.424 -1.0446  1.7910  0.9749
 3126TIP3    H233574   6.885   5.984   0.418 -0.2882 -2.4326  0.0742
 3127TIP3   OH233575   3.406   3.282   8.848  0.1625 -0.0306  0.2539
 3127TIP3    H133576   3.324   3.237   8.868  0.1968  0.0481  0.5849
 3127TIP3    H233577   3.456   3.278   8.930  0.0710  0.8081  0.3598
 3128TIP3   OH233578   5.966   2.087   7.117  0.0494 -0.3701 -0.1590
 3128TIP3    H133579   5.880   2.109   7.079  0.0705 -0.3778 -0.2116
 3128TIP3    H233580   6.029   2.118   7.052  0.2355  2.5394  1.2507
 3129TIP3   OH233581   3.354   4.090   0.353 -0.5561  0.0979 -0.3272
 3129TIP3    H133582   3.281   4.039   0.317 -0.5441 -0.2434  0.1293
 3129TIP3    H233583   3.354   4.069   0.446  0.4053 -0.2564 -0.3952
 3130TIP3   OH233584   3.570   6.925   1.326 -0.3341 -0.6256 -0.1194
 3130TIP3    H133585   3.602   7.008   1.292 -2.3349 -0.1062 -0.8443
 3130TIP3    H233586   3.645   6.888   1.372  0.4149  1.9384  0.9119
 3131TIP3   OH233587   0.977   3.344   8.689 -0.0682 -0.4788 -0.2878
 3131TIP3    H133588   0.884   3.364   8.703 -0.4819 -2.1404 -0.4900
 3131TIP3    H233589   0.977   3.256   8.651  1.6689 -1.3182  1.4824
 3132TIP3   OH233590   2.739   0.436   0.021  0.2577 -0.2049 -0.4372
 3132TIP3    H133591   2.658   0.424  -0.029  0.6837  2.6855 -2.0982
 3132TIP3    H233592   2.713   0.488   0.097  0.5065  0.8416 -1.0416
 3133TIP3   OH233593   0.058   3.281   8.165 -0.0676 -0.4550  0.0386
 3133TIP3    H133594   0.057   3.289   8.261  1.8101 -0.1021  0.0521
 3133TIP3    H233595  -0.014   3.220   8.146 -1.5676  0.7684  1.5174
 3134TIP3   OH233596   2.780   3.870   3.228  0.6653  0.4382 -0.2272
 3134TIP3    H133597   2.729   3.929   3.283 -1.0233  1.8704 -3.1284
 3134TIP3    H233598   2.725   3.793   3.218  1.3331 -0.1778  0.7004
 3135TIP3   OH233599   0.478   1.976   1.504  0.6921  0.0035 -0.7682
 3135TIP3    H133600   0.474   1.985   1.599  1.4284 -0.6538 -0.6608
 3135TIP3    H233601   0.400   1.925   1.482  0.5464  0.1131 -0.5133
 3136TIP3   OH233602   6.084   2.954   0.547 -0.4994  0.3633  0.1449
 3136TIP3    H133603   6.021   2.895   0.506  0.0403 -1.1336  1.3474
 3136TIP3    H233604   6.143   2.895   0.594  0.8332  1.8204  0.3611
 3137TIP3   OH233605   4.992   6.325   0.684 -0.1828  0.0962 -0.3220
 3137TIP3    H133606   4.904   6.291   0.671 -0.2013 -0.1297  0.3806
 3137TIP3    H233607   4.983   6.420   0.672 -0.4075  0.0161 -0.8126
 3138TIP3   OH233608   6.995   5.083   8.980 -0.1267 -0.8225  0.0207
 3138TIP3    H133609   6.953   5.048   8.901  1.8413 -1.1861 -0.9304
 3138TIP3    H233610   6.930   5.142   9.018 -1.5937 -1.6026 -1.1789
 3139TIP3   OH233611   0.317   4.951   0.089  0.2394  0.6434  0.0961
 3139TIP3    H133612   0.251   4.979   0.152  0.8394  1.1714  0.4964
 3139TIP3    H233613   0.317   5.019   0.022 -2.0667 -1.0492 -1.7829
 3140TIP3   OH233614   4.571   3.117   7.584  0.2967 -0.8089  0.0816
 3140TIP3    H133615   4.600   3.183   7.647  0.6762 -1.6973  0.8684
 3140TIP3    H233616   4.485   3.089   7.617  0.1533 -0.7424 -0.2308
 3141TIP3   OH233617   5.953   5.992   8.382  0.7130 -0.2325  0.0769
 3141TIP3    H133618   5.860   5.982   8.363  0.8136 -0.6814 -0.1793
 3141TIP3    H233619   5.980   6.069   8.332  0.4880 -0.1141  0.1356
 3142TIP3   OH233620   4.289   2.230   1.070  0.0366 -0.1839 -0.4782
 3142TIP3    H133621   4.330   2.150   1.103 -1.0203 -0.1822  0.9231
 3142TIP3    H233622   4.196   2.208   1.063 -0.2326  0.8457 -0.2899
 3143TIP3   OH233623   1.858   4.583   2.762 -0.3690 -0.0055  0.4239
 3143TIP3    H133624   1.915   4.641   2.711 -0.9217  0.1998  0.0307
 3143TIP3    H233625   1.808   4.641   2.819 -2.5227  0.1898 -1.5110
 3144TIP3   OH233626   6.478   2.444   6.514  0.6387  0.1730  0.3517
 3144TIP3    H133627   6.547   2.378   6.503  1.3442  1.0803 -0.9532
 3144TIP3    H233628   6.428   2.439   6.432 -0.5399 -0.0948  1.0634
 3145TIP3   OH233629   1.067   6.427   2.201  0.4135  0.1054  0.0740
 3145TIP3    H133630   1.001   6.455   2.139  1.1591 -1.0196 -1.2996
 3145TIP3    H233631   1.150   6.438   2.155  0.9988 -0.6189  0.9080
 3146TIP3   OH233632   3.031   3.180   8.398  0.0182  0.1152 -0.0344
 3146TIP3    H133633   3.077   3.131   8.467 -0.6385 -0.8417 -0.2588
 3146TIP3    H233634   2.972   3.238   8.446  0.1414  0.0330  0.2225
 3147TIP3   OH233635   3.669   0.349   0.186  0.5853 -0.0755  0.0147
 3147TIP3    H133636   3.751   0.376   0.228  0.4346 -1.4120  1.2164
 3147TIP3    H233637   3.603   0.354   0.255 -0.2026  0.1711 -0.7320
 3148TIP3   OH233638   5.647   6.875   1.376  0.2753 -0.3855 -0.2371
 3148TIP3    H133639   5.593   6.950   1.352  1.3226  0.1879 -0.8619
 3148TIP3    H233640   5.704   6.861   1.300 -0.8881 -2.7652 -0.7648
 3149TIP3   OH233641   1.743   5.144   1.870  0.2938  0.1221 -0.0052
 3149TIP3    H133642   1.687   5.216   1.901 -0.1334 -0.6516  1.0649
 3149TIP3    H233643   1.733   5.076   1.936  1.9472 -0.3180 -0.1738
 3150TIP3   OH233644   4.444   2.089   7.528 -0.0612  0.1639 -0.5625
 3150TIP3    H133645   4.391   2.050   7.458 -0.2358  1.2598 -1.0651
 3150TIP3    H233646   4.402   2.174   7.544  0.6516  0.3950  0.0955
 3151TIP3   OH233647   1.265   0.704   9.346  0.6639  0.0261 -0.5784
 3151TIP3    H133648   1.335   0.642   9.367  1.9278  0.8816 -2.0228
 3151TIP3    H233649   1.300   0.789   9.373 -1.6019  0.1116  2.7229
 3152TIP3   OH233650   6.051   6.353   8.313 -0.0823 -0.1223 -0.0236
 3152TIP3    H133651   6.143   6.373   8.326  0.0481 -0.8939  0.3350
 3152TIP3    H233652   6.051   6.270   8.264 -0.5865  0.0757 -0.3747
 3153TIP3   OH233653   2.027   7.224   8.389 -0.3940 -0.0716  0.1994
 3153TIP3    H133654   2.105   7.250   8.437 -0.9585 -0.8696  1.6172
 3153TIP3    H233655   2.024   7.282   8.314  3.5848 -2.3844 -2.0419
 3154TIP3   OH233656   2.450   6.429   7.284 -0.3438  0.1803  0.2092
 3154TIP3    H133657   2.464   6.367   7.212 -0.4500  2.0167 -1.4889
 3154TIP3    H233658   2.356   6.426   7.300 -0.2597 -0.5786  0.6367
 3155TIP3   OH233659   6.595   1.555   0.151  0.0153  0.0388  0.2546
 3155TIP3    H133660   6.514   1.532   0.106  1.1374 -1.4850 -1.0821
 3155TIP3    H233661   6.596   1.500   0.229 -0.9376  1.1955  1.1287
 3156TIP3   OH233662   3.393   0.306   6.588 -0.8834 -0.3709  0.0165
 3156TIP3    H133663   3.387   0.211   6.575  2.9527 -1.0434  1.6227
 3156TIP3    H233664   3.447   0.316   6.667 -0.9980  3.1689 -0.1912
 3157TIP3   OH233665   4.396   2.653   8.890  0.3473  0.5082 -0.2379
 3157TIP3    H133666   4.467   2.704   8.930  1.4338 -1.1594  0.0519
 3157TIP3    H233667   4.382   2.695   8.805  1.9651  0.6621 -0.4638
 3158TIP3   OH233668   0.371   5.793   6.207 -0.1040  0.4637  0.4361
 3158TIP3    H133669   0.332   5.797   6.294  1.2416 -0.5994  1.1416
 3158TIP3    H233670   0.347   5.706   6.174  1.1217  0.0139  0.6553
 3159TIP3   OH233671   7.151   6.970   0.520  0.1502 -0.3317 -0.0381
 3159TIP3    H133672   7.164   6.884   0.480  0.8044 -0.3500  0.1934
 3159TIP3    H233673   7.240   7.006   0.528  0.0001 -0.1763  1.0582
 3160TIP3   OH233674   1.600   4.382   2.402  0.3625  0.2181  0.1572
 3160TIP3    H133675   1.670   4.437   2.368  1.0674  0.0723  1.3081
 3160TIP3    H233676   1.628   4.292   2.384  0.5742  0.1530  0.7889
 3161TIP3   OH233677   0.298   0.555   7.698 -0.2581 -0.8620  0.0274
 3161TIP3    H133678   0.298   0.546   7.602  0.4926  0.0032 -0.0668
 3161TIP3    H233679   0.390   0.569   7.720 -0.6319  0.7653  0.6889
 3162TIP3   OH233680   4.541   2.223   0.298  0.1571  0.6730 -0.3780
 3162TIP3    H133681   4.550   2.220   0.393  1.1931  1.8418 -0.4134
 3162TIP3    H233682   4.591   2.300   0.272 -0.8697  0.9018 -1.7915
 3163TIP3   OH233683   4.677   2.743   0.362 -0.0385  0.1925 -0.2995
 3163TIP3    H133684   4.687   2.837   0.347 -1.3517 -0.0566 -3.5626
 3163TIP3    H233685   4.596   2.735   0.413  1.2874  0.8232  2.0811
 3164TIP3   OH233686   3.579   6.727   2.074 -0.0458  0.0748  0.0853
 3164TIP3    H133687   3.484   6.720   2.086  0.0025  0.0864  0.5179
 3164TIP3    H233688   3.590   6.788   2.001 -0.3723 -0.0034 -0.0308
 3165TIP3   OH233689   1.662   5.691   7.333  0.8364  0.3841 -0.4679
 3165TIP3    H133690   1.649   5.782   7.305 -0.7483  0.7850  1.3784
 3165TIP3    H233691   1.709   5.698   7.416 -0.4156 -0.3926  0.3314
 3166TIP3   OH233692   3.726   6.433   7.679 -0.2471  0.4816  0.3518
 3166TIP3    H133693   3.770   6.511   7.713  0.4592  0.0704  0.4078
 3166TIP3    H233694   3.767   6.360   7.725 -1.2430  0.1000  0.6591
 3167TIP3   OH233695   6.261   3.812   2.220  0.4638  0.1577 -0.4103
 3167TIP3    H133696   6.207   3.775   2.290  0.8822  0.0046 -0.1709
 3167TIP3    H233697   6.200   3.823   2.147 -0.5803  2.6532  0.7166
 3168TIP3   OH233698   6.371   2.010   2.218  0.6477 -0.3820  0.1249
 3168TIP3    H133699   6.460   1.976   2.229  0.4260 -0.5721  1.5032
 3168TIP3    H233700   6.347   2.042   2.305 -0.0506  1.1229 -0.5897
 3169TIP3   OH233701   6.048   2.436   1.591  0.0259 -0.2876 -0.1304
 3169TIP3    H133702   5.982   2.389   1.540 -0.2379 -2.1022  1.7197
 3169TIP3    H233703   6.129   2.387   1.576  0.1954 -0.1276  0.2544
 3170TIP3   OH233704   2.854   4.149   0.704 -0.1900 -0.5345 -0.2774
 3170TIP3    H133705   2.843   4.224   0.645  1.3982  0.4208  0.5742
 3170TIP3    H233706   2.852   4.073   0.646  0.8783  0.3534 -1.5579
 3171TIP3   OH233707   1.941   2.185   6.869 -0.3445 -0.1270 -0.5258
 3171TIP3    H133708   2.018   2.138   6.902 -2.5741 -2.5738  1.7728
 3171TIP3    H233709   1.907   2.231   6.946 -0.4727  2.0656 -1.8228
 3172TIP3   OH233710   4.328   5.614   8.538 -0.4599 -0.3277 -0.4141
 3172TIP3    H133711   4.249   5.608   8.592  0.8248 -1.1564  1.4747
 3172TIP3    H233712   4.389   5.665   8.591  0.3482  0.1469 -1.7652
 3173TIP3   OH233713   7.338   4.330   7.186 -0.1411  0.1292  0.3506
 3173TIP3    H133714   7.369   4.376   7.264 -0.0426  3.7004 -1.5430
 3173TIP3    H233715   7.415   4.281   7.156  0.2176 -0.1927  1.7187
 3174TIP3   OH233716   3.633   4.578   8.832 -0.5459  0.3322  0.2387
 3174TIP3    H133717   3.546   4.588   8.792 -0.8158 -1.1032  0.4194
 3174TIP3    H233718   3.675   4.509   8.780  0.1591  0.3995  0.7122
 3175TIP3   OH233719   6.434   4.092   7.613  0.0683 -0.1392  0.2717
 3175TIP3    H133720   6.360   4.047   7.653 -0.7872  0.8020 -0.2183
 3175TIP3    H233721   6.509   4.036   7.633 -1.0327 -2.1192 -0.8270
 3176TIP3   OH233722   4.146   2.531   1.127 -0.7192  0.2940 -0.2754
 3176TIP3    H133723   4.117   2.622   1.120  0.1008  0.4675 -2.2232
 3176TIP3    H233724   4.124   2.492   1.042 -2.4330 -1.8042  1.0303
 3177TIP3   OH233725   0.124   3.859   2.068 -0.0236 -0.2434 -0.0668
 3177TIP3    H133726   0.071   3.851   1.988 -0.6895  0.0381  0.3455
 3177TIP3    H233727   0.068   3.826   2.138 -1.2561  3.6969  1.0568
 3178TIP3   OH233728   7.097   2.540   2.372 -0.2053  0.0933 -0.0942
 3178TIP3    H133729   7.115   2.612   2.432 -0.8651  1.0223 -0.9630
 3178TIP3    H233730   7.161   2.473   2.394  1.1781  1.3892  0.0092
 3179TIP3   OH233731   3.662   5.859   0.037  0.6734  0.3729 -0.1272
 3179TIP3    H133732   3.692   5.768   0.045  0.5118  0.3616  0.3804
 3179TIP3    H233733   3.740   5.911   0.053  0.5149  0.3372  0.8211
 3180TIP3   OH233734   1.322   3.438   9.583  0.0890  0.0795  0.4235
 3180TIP3    H133735   1.406   3.438   9.537  0.2952 -1.7178  0.7232
 3180TIP3    H233736   1.275   3.513   9.547  2.0571  1.5534  0.7337
 3181TIP3   OH233737   4.410   2.941   6.784  0.2329 -0.3443  0.8107
 3181TIP3    H133738   4.355   3.019   6.793  0.4654 -0.2748  1.6768
 3181TIP3    H233739   4.367   2.889   6.716  1.1426  1.4336 -1.2342
 3182TIP3   OH233740   5.533   3.227   1.469 -1.0638  0.5986 -0.4992
 3182TIP3    H133741   5.613   3.199   1.423 -1.2270 -0.5650 -0.1128
 3182TIP3    H233742   5.559   3.305   1.518  0.0615 -0.2136  0.2472
 3183TIP3   OH233743   0.303   3.089   9.624 -0.6078  0.1955  0.4373
 3183TIP3    H133744   0.346   3.104   9.540 -0.0715 -0.8025  0.5163
 3183TIP3    H233745   0.340   3.156   9.682 -0.4836  0.4652  0.0512
 3184TIP3   OH233746   3.169   4.429   9.154 -0.0752 -0.1453  0.7118
 3184TIP3    H133747   3.180   4.524   9.159  0.2786 -0.1481  0.0263
 3184TIP3    H233748   3.082   4.413   9.192  0.3096  0.3391  1.8259
 3185TIP3   OH233749   1.928   0.998   0.200  0.5064 -0.6224  0.2277
 3185TIP3    H133750   1.918   1.052   0.121  0.7381  0.1829  0.7384
 3185TIP3    H233751   2.022   1.000   0.219  0.5706 -1.5191  0.0484
 3186TIP3   OH233752   0.928   0.112   0.431  0.1525 -0.5676  0.1267
 3186TIP3    H133753   0.878   0.184   0.467 -0.0024 -0.7059  0.1896
 3186TIP3    H233754   0.907   0.037   0.488 -0.4945 -0.9156 -0.5484
 3187TIP3   OH233755   0.566   1.563   0.141  0.2900 -0.4168  0.0062
 3187TIP3    H133756   0.596   1.575   0.051  0.0615  0.5069  0.0500
 3187TIP3    H233757   0.623   1.620   0.193 -0.7118  0.4037  0.2339
 3188TIP3   OH233758   7.231   1.189   2.488  0.4695  0.3887  0.2817
 3188TIP3    H133759   7.203   1.144   2.568 -0.0050  0.7313  0.3127
 3188TIP3    H233760   7.157   1.181   2.428  1.4966 -1.4884 -0.8343
 3189TIP3   OH233761   1.409   3.702   3.157  0.0237  0.8886  0.2198
 3189TIP3    H133762   1.486   3.658   3.193  1.3302  1.7285 -1.4350
 3189TIP3    H233763   1.408   3.787   3.202  0.0856  0.8880  0.2234
 3190TIP3   OH233764   0.616   1.055   6.770  0.1355  0.0083 -0.4016
 3190TIP3    H133765   0.535   1.103   6.750  0.4050  0.6967  0.1374
 3190TIP3    H233766   0.600   0.967   6.735 -1.7038 -0.5381  1.6029
 3191TIP3   OH233767   0.464   1.890   8.924  0.1992 -0.1488  0.5221
 3191TIP3    H133768   0.482   1.932   9.008 -0.8696 -0.2188  0.8098
 3191TIP3    H233769   0.492   1.953   8.858 -2.6443  1.7458  0.9196
 3192TIP3   OH233770   6.634   4.986   6.558 -0.4131  0.0290 -0.2750
 3192TIP3    H133771   6.650   4.926   6.631 -0.2501  1.6883  1.1140
 3192TIP3    H233772   6.542   4.974   6.536 -0.2495 -1.1054 -0.4045
 3193TIP3   OH233773   4.360   0.349   8.175 -0.0500  0.0629 -0.0864
 3193TIP3    H133774   4.355   0.359   8.271  3.2668  1.2011  0.1122
 3193TIP3    H233775   4.296   0.411   8.141  0.2877  1.3418  1.4523
 3194TIP3   OH233776   4.267   6.048   8.832  0.2073  0.2881 -0.6967
 3194TIP3    H133777   4.291   5.961   8.864 -0.9454 -0.1212 -0.9046
 3194TIP3    H233778   4.265   6.102   8.910  0.7465  0.0849 -0.5391
 3195TIP3   OH233779   7.123   2.879   9.392 -0.1693  0.3054 -0.2506
 3195TIP3    H133780   7.093   2.864   9.481 -3.1326 -0.2949 -1.2333
 3195TIP3    H233781   7.174   2.801   9.370  1.0522  0.6994  1.0354
 3196TIP3   OH233782   7.007   6.123   2.543 -0.4046 -0.2083 -0.1136
 3196TIP3    H133783   7.033   6.078   2.463  0.4337 -1.1029  0.6437
 3196TIP3    H233784   7.080   6.112   2.603 -1.3451 -0.2737  1.0710
 3197TIP3   OH233785   3.650   5.531   9.450 -0.2399 -0.3311  0.1892
 3197TIP3    H133786   3.709   5.532   9.525  2.3162 -0.2307 -1.6702
 3197TIP3    H233787   3.635   5.623   9.429 -0.1312 -0.3596 -0.0159
 3198TIP3   OH233788   5.959   4.954   1.140  0.1400 -0.3650 -0.4644
 3198TIP3    H133789   6.041   4.908   1.160  0.2963 -0.1108 -0.5258
 3198TIP3    H233790   5.896   4.883   1.126  0.5424 -0.5749 -1.2417
 3199TIP3   OH233791   7.073   6.917   9.547  0.2030  1.2658 -0.3257
 3199TIP3    H133792   7.143   6.899   9.609  0.3949  0.8276 -0.6653
 3199TIP3    H233793   7.005   6.959   9.599 -0.5222 -0.9912  0.6388
 3200TIP3   OH233794   6.307   5.808   8.322  0.1384 -0.5188 -0.5332
 3200TIP3    H133795   6.257   5.879   8.281  0.6213 -0.7996 -1.6160
 3200TIP3    H233796   6.377   5.788   8.261  0.7898 -1.0614  0.3557
 3201TIP3   OH233797   1.136   0.968   9.442 -0.2010  0.0256 -0.2117
 3201TIP3    H133798   1.224   0.973   9.404  0.6457  1.2648  1.7579
 3201TIP3    H233799   1.134   1.040   9.505 -2.4517 -0.3465  0.2055
 3202TIP3   OH233800   0.486   6.526   6.989  0.0538  1.1378  0.0357
 3202TIP3    H133801   0.538   6.568   6.922 -1.4878  0.6656 -1.5295
 3202TIP3    H233802   0.396   6.551   6.969 -0.5945 -0.2998  0.9614
 3203TIP3   OH233803   5.073   0.187   0.929 -0.0550 -0.5247  0.4673
 3203TIP3    H133804   5.050   0.169   0.838 -0.2101 -1.2184  0.6343
 3203TIP3    H233805   5.027   0.268   0.950  0.8531  0.2341 -0.3894
 3204TIP3   OH233806   3.599   6.753   8.990  0.7202 -0.6109 -0.0552
 3204TIP3    H133807   3.636   6.703   8.917 -0.9374  0.6832 -1.8826
 3204TIP3    H233808   3.627   6.843   8.975 -0.9068 -0.0553 -0.0360
 3205TIP3   OH233809   3.241   5.017   8.482 -0.0657  0.3066 -0.0012
 3205TIP3    H133810   3.300   5.034   8.555 -0.7950  1.6036  0.3134
 3205TIP3    H233811   3.189   4.942   8.510  1.7558 -1.2675 -0.5229
 3206TIP3   OH233812   0.002   3.920   0.590  0.6265 -0.3776 -0.0063
 3206TIP3    H133813  -0.012   3.988   0.525  0.2836 -1.1497 -0.7644
 3206TIP3    H233814   0.096   3.904   0.588  0.9444  1.1423  1.3011
 3207TIP3   OH233815   5.491   1.971   1.410  0.5660  0.4824  0.3533
 3207TIP3    H133816   5.509   1.920   1.331  0.1223 -0.4097  0.8120
 3207TIP3    H233817   5.551   2.045   1.406  1.4941 -0.2856 -0.1399
 3208TIP3   OH233818   4.245   2.974   8.655  0.1351  0.4699  0.5505
 3208TIP3    H133819   4.314   2.908   8.660  0.0532  0.4045  0.8409
 3208TIP3    H233820   4.165   2.924   8.638  0.3693  0.6647 -1.3489
 3209TIP3   OH233821   4.222   4.419   9.342 -0.1739  0.1209 -0.5089
 3209TIP3    H133822   4.248   4.345   9.287 -1.9152  0.1314 -1.3978
 3209TIP3    H233823   4.305   4.456   9.372  0.7916 -0.8735 -1.8249
 3210TIP3   OH233824   2.733   3.471   7.575  0.2727 -0.4066 -0.2452
 3210TIP3    H133825   2.658   3.519   7.610  0.0460 -0.5440 -0.5389
 3210TIP3    H233826   2.795   3.467   7.648  0.6194  0.9965 -0.4427
 3211TIP3   OH233827   0.510   2.093   1.923 -0.4033 -0.0057 -0.1358
 3211TIP3    H133828   0.558   2.045   1.856 -0.7831  0.4868 -0.7757
 3211TIP3    H233829   0.420   2.061   1.916 -0.4313 -0.0154  0.2080
 3212TIP3   OH233830   7.355   1.692   7.837  0.3429 -0.0687 -0.0284
 3212TIP3    H133831   7.328   1.687   7.745  1.5891  2.5451 -0.6179
 3212TIP3    H233832   7.447   1.668   7.836 -0.1308 -2.1541  0.9359
 3213TIP3   OH233833   0.151   4.367   6.809 -1.2766  0.1746  0.3071
 3213TIP3    H133834   0.093   4.440   6.831 -0.9419  0.5711 -0.1118
 3213TIP3    H233835   0.215   4.404   6.748 -2.4372 -0.9624 -1.7192
 3214TIP3   OH233836   7.390   0.312   9.214  0.0080 -0.0339 -0.3497
 3214TIP3    H133837   7.428   0.225   9.224 -0.2199  0.0307  1.3576
 3214TIP3    H233838   7.375   0.342   9.303  1.2728  2.3159 -0.8642
 3215TIP3   OH233839   4.692   5.574   1.501 -0.1210 -0.2087 -0.3988
 3215TIP3    H133840   4.682   5.491   1.454  1.5131 -0.6973  0.0394
 3215TIP3    H233841   4.767   5.560   1.559  1.4401  2.1496 -1.6665
 3216TIP3   OH233842   3.151   0.779   7.508 -0.0375 -1.0184 -0.2367
 3216TIP3    H133843   3.195   0.701   7.475 -0.7360 -0.6552 -2.1521
 3216TIP3    H233844   3.057   0.761   7.497 -0.2069  0.1351 -0.9238
 3217TIP3   OH233845   1.103   3.789   8.940  0.1744 -0.2021  0.0216
 3217TIP3    H133846   1.102   3.734   9.018  0.1938 -1.6751 -0.9876
 3217TIP3    H233847   1.103   3.728   8.867 -0.3773  1.1468 -1.1557
 3218TIP3   OH233848   2.792   5.549   0.637 -0.1858  0.4486 -0.0417
 3218TIP3    H133849   2.774   5.638   0.669 -0.5308  0.0715  0.8468
 3218TIP3    H233850   2.792   5.558   0.542 -2.3730  1.0290 -0.0553
 3219TIP3   OH233851   4.503   4.838   1.401 -0.0807 -0.5298 -0.1734
 3219TIP3    H133852   4.577   4.883   1.361  0.8826 -1.5324  0.4091
 3219TIP3    H233853   4.489   4.884   1.484  1.1576 -1.5103  0.6044
 3220TIP3   OH233854   1.740   4.008   1.248 -0.5111 -0.3867  0.2887
 3220TIP3    H133855   1.772   4.071   1.312 -1.4177  0.3630  0.0248
 3220TIP3    H233856   1.732   4.058   1.167 -0.6846 -0.9891 -0.0727
 3221TIP3   OH233857   4.232   1.385   9.426  0.1901 -0.2378 -0.4895
 3221TIP3    H133858   4.215   1.308   9.371 -0.8405  0.0817 -0.6510
 3221TIP3    H233859   4.310   1.425   9.388 -0.9867  0.4597 -2.3075
 3222TIP3   OH233860   3.789   4.177   7.370 -0.3362 -0.0258 -0.0778
 3222TIP3    H133861   3.864   4.190   7.311  0.2073 -1.3724  0.2724
 3222TIP3    H233862   3.716   4.157   7.311 -0.2713  0.5943 -0.3815
 3223TIP3   OH233863   3.949   6.210   1.111  0.1394 -0.1267 -0.2157
 3223TIP3    H133864   3.984   6.181   1.195  2.7877 -0.6216 -1.3739
 3223TIP3    H233865   3.892   6.139   1.082  1.2659 -1.1613  0.0267
 3224TIP3   OH233866   4.469   6.015   0.553  0.0917  0.0051  0.0316
 3224TIP3    H133867   4.555   5.988   0.587 -0.1148 -0.2159  0.3824
 3224TIP3    H233868   4.486   6.099   0.511  0.6490 -0.4327 -0.6485
 3225TIP3   OH233869   5.055   4.001   8.077  0.3114  0.0417  0.1158
 3225TIP3    H133870   5.016   4.029   8.159 -0.5772  1.7797 -0.8582
 3225TIP3    H233871   5.145   4.032   8.081  0.0671  0.7518  0.1364
 3226TIP3   OH233872   7.121   2.315   0.772  0.0461 -0.2012  0.6828
 3226TIP3    H133873   7.144   2.408   0.783 -2.9051  0.8361 -0.9016
 3226TIP3    H233874   7.195   2.278   0.723  0.0078  2.1025 -1.3241
 3227TIP3   OH233875   3.536   3.208   0.179  0.0022  0.4971  0.5331
 3227TIP3    H133876   3.566   3.295   0.206 -1.4955  0.8759  1.0548
 3227TIP3    H233877   3.595   3.184   0.107  0.9437  1.5881  0.9161
 3228TIP3   OH233878   3.156   6.856   7.634  0.1439 -0.4686 -0.7294
 3228TIP3    H133879   3.126   6.765   7.644 -0.1263 -0.4093 -0.9782
 3228TIP3    H233880   3.251   6.851   7.645  0.0492 -0.6674  0.0385
 3229TIP3   OH233881   1.752   2.496   9.446 -0.1871 -0.0780 -0.1567
 3229TIP3    H133882   1.702   2.571   9.478 -0.0145 -0.0947  0.1593
 3229TIP3    H233883   1.687   2.428   9.431 -0.4801  0.4482 -1.4242
 3230TIP3   OH233884   5.865   6.586   0.709  0.7032 -0.3969  0.6464
 3230TIP3    H133885   5.812   6.528   0.764 -0.6578  1.8336  1.8722
 3230TIP3    H233886   5.846   6.558   0.620  0.6402 -2.2243  1.1865
 3231TIP3   OH233887   1.022   3.796   0.525  0.4029 -0.3092  0.2121
 3231TIP3    H133888   1.012   3.812   0.619  1.2655  0.4498  0.1880
 3231TIP3    H233889   1.114   3.773   0.514  0.3857 -0.0848 -0.4827
 3232TIP3   OH233890   6.553   0.196   7.214 -0.1796 -0.4203 -0.7806
 3232TIP3    H133891   6.553   0.121   7.154 -0.2503 -1.4605  0.4699
 3232TIP3    H233892   6.526   0.159   7.298  1.6065  0.6408  0.3160
 3233TIP3   OH233893   3.387   6.347   2.644 -0.2604 -0.6392 -0.1727
 3233TIP3    H133894   3.347   6.388   2.720  0.4581  3.6174 -1.7902
 3233TIP3    H233895   3.338   6.383   2.569  0.8635 -2.3758 -1.8280
 3234TIP3   OH233896   1.831   4.266   0.421 -0.1192 -0.0126  0.0671
 3234TIP3    H133897   1.864   4.326   0.353 -0.5747 -0.0078 -0.1495
 3234TIP3    H233898   1.743   4.243   0.392  0.5339 -1.8809 -0.5785
 3235TIP3   OH233899   3.326   0.555   1.476  0.5077  1.0806 -0.2178
 3235TIP3    H133900   3.355   0.485   1.534  1.4020 -0.0429 -1.9522
 3235TIP3    H233901   3.333   0.518   1.388 -4.6436  1.1750 -1.0292
 3236TIP3   OH233902   6.534   0.940   0.070  0.1626  0.3054  0.4354
 3236TIP3    H133903   6.523   0.939  -0.026  0.0565 -0.7825  0.4526
 3236TIP3    H233904   6.468   0.879   0.102  0.0919  0.7877  1.2317
 3237TIP3   OH233905   4.205   3.020   2.081 -0.7780 -0.2875  0.3730
 3237TIP3    H133906   4.288   3.067   2.070 -1.2496  0.2330 -1.1968
 3237TIP3    H233907   4.229   2.940   2.129  0.8824 -0.7794 -1.1535
 3238TIP3   OH233908   2.890   5.568   1.921 -0.1491 -0.0181 -0.1234
 3238TIP3    H133909   2.907   5.474   1.913  1.0340  0.1609  0.1267
 3238TIP3    H233910   2.821   5.575   1.987 -0.5300 -0.7302 -0.4363
 3239TIP3   OH233911   2.183   2.348   8.592 -0.2730  0.1125 -0.1896
 3239TIP3    H133912   2.172   2.271   8.647 -0.1505 -0.3043 -0.7358
 3239TIP3    H233913   2.097   2.362   8.552 -0.3952  0.4893  0.2002
 3240TIP3   OH233914   3.807   1.925   0.670  0.1001  0.6939 -0.1995
 3240TIP3    H133915   3.797   1.870   0.592 -1.3329  0.7263 -0.0664
 3240TIP3    H233916   3.821   2.013   0.636 -0.2075  0.6571 -0.4234
 3241TIP3   OH233917   7.168   2.841   7.374 -0.2554 -0.0830  0.3322
 3241TIP3    H133918   7.188   2.797   7.291 -1.4313 -1.1826  0.5915
 3241TIP3    H233919   7.249   2.885   7.399  0.4777 -0.7599 -0.7836
 3242TIP3   OH233920   0.247   4.113   9.120  0.4594 -0.2831 -0.3568
 3242TIP3    H133921   0.173   4.099   9.179  0.7899 -1.2132 -0.1384
 3242TIP3    H233922   0.211   4.165   9.049 -1.1339 -2.8874 -1.6222
 3243TIP3   OH233923   2.632   7.128   8.612  0.1663  0.1577  0.3426
 3243TIP3    H133924   2.707   7.131   8.552  0.8330  1.9109  1.2007
 3243TIP3    H233925   2.632   7.037   8.644  0.7440 -0.3844 -1.1009
 3244TIP3   OH233926   6.258   3.228   1.013 -0.3812  0.0955 -0.5396
 3244TIP3    H133927   6.172   3.189   1.023 -0.7713  0.6354 -1.6531
 3244TIP3    H233928   6.250   3.286   0.937  0.8621  0.4171 -0.4516
 3245TIP3   OH233929   2.144   7.062   2.852 -0.1962 -0.0481  0.2094
 3245TIP3    H133930   2.146   7.074   2.757  1.0975  2.7927  0.4934
 3245TIP3    H233931   2.190   7.138   2.887 -0.5360 -1.0519  3.1442
 3246TIP3   OH233932   5.235   7.306   1.837 -0.4678  0.6866  0.7598
 3246TIP3    H133933   5.158   7.362   1.848 -0.0954  0.9815  2.0636
 3246TIP3    H233934   5.294   7.332   1.907  0.2969 -0.3996  0.5500
 3247TIP3   OH233935   5.850   6.917   7.005  0.1479  0.5800  0.3790
 3247TIP3    H133936   5.894   6.901   7.088 -1.1676  1.2785  1.2542
 3247TIP3    H233937   5.842   6.831   6.964  0.0294  0.0944  1.4031
 3248TIP3   OH233938   5.829   4.120   8.258 -0.4012 -0.4352 -0.2528
 3248TIP3    H133939   5.742   4.150   8.234 -0.8242  1.6039  3.2277
 3248TIP3    H233940   5.814   4.034   8.299 -0.7506 -0.1684  0.1810
 3249TIP3   OH233941   3.527   2.339   8.386  0.1674 -0.0881  0.3965
 3249TIP3    H133942   3.509   2.346   8.292  0.2868 -0.4065  0.3474
 3249TIP3    H233943   3.566   2.252   8.396 -0.7196 -0.4379  0.8826
 3250TIP3   OH233944   7.254   6.344   2.706 -0.1567  0.4588  0.1606
 3250TIP3    H133945   7.311   6.401   2.654 -0.9204  0.0392 -1.1943
 3250TIP3    H233946   7.252   6.385   2.792  0.3075  1.7909 -0.4214
 3251TIP3   OH233947   1.050   2.483   0.529  0.3877  0.5660 -0.1932
 3251TIP3    H133948   0.967   2.455   0.567  0.3539  0.2312 -0.5094
 3251TIP3    H233949   1.032   2.569   0.490  0.2540  0.6023 -0.0513
 3252TIP3   OH233950   2.593   3.162   2.190 -0.5392 -0.0291 -0.3640
 3252TIP3    H133951   2.597   3.070   2.162 -0.5125 -0.0201 -0.3888
 3252TIP3    H233952   2.579   3.157   2.285  0.1912 -0.0580 -0.2562
 3253TIP3   OH233953   7.317   2.346   2.401  0.1581 -0.3248 -1.1016
 3253TIP3    H133954   7.359   2.330   2.317  1.8570  1.9623 -0.7786
 3253TIP3    H233955   7.378   2.310   2.465  0.0422  0.0756 -0.7638
 3254TIP3   OH233956   0.753   1.940   2.977 -0.2450  0.2419 -0.3610
 3254TIP3    H133957   0.679   1.963   3.034 -1.2181  0.4008 -1.6380
 3254TIP3    H233958   0.816   1.898   3.035 -0.3038  2.2034  1.2396
 3255TIP3   OH233959   4.317   3.112   7.640  0.2818 -0.0203  0.3667
 3255TIP3    H133960   4.274   3.182   7.591 -0.7277 -1.1050 -0.3460
 3255TIP3    H233961   4.245   3.058   7.672  1.0894 -1.6495 -0.5006
 3256TIP3   OH233962   5.744   7.421   7.047 -0.0409  0.6503 -0.5507
 3256TIP3    H133963   5.664   7.473   7.036  0.5452  1.1902 -2.9103
 3256TIP3    H233964   5.722   7.335   7.013 -0.6178 -0.3548  2.1448
 3257TIP3   OH233965   5.537   3.363   9.085  0.1916 -0.0198  0.1665
 3257TIP3    H133966   5.522   3.441   9.031 -0.6394  0.1464  0.6344
 3257TIP3    H233967   5.507   3.387   9.172 -0.3918 -0.9694  0.2485
 3258TIP3   OH233968   1.079   6.810   1.637  0.9134 -0.1394 -0.2506
 3258TIP3    H133969   1.151   6.862   1.673  1.3412  0.8655 -2.4258
 3258TIP3    H233970   1.094   6.810   1.543 -3.0636  1.9585 -1.1138
 3259TIP3   OH233971   3.250   3.060   9.533 -0.1295 -0.1805 -0.3794
 3259TIP3    H133972   3.339   3.028   9.550 -0.5446 -0.5930  1.1709
 3259TIP3    H233973   3.257   3.155   9.537  0.8683  0.0238 -3.7632
 3260TIP3   OH233974   0.246   0.007   8.417 -0.0693 -0.0743 -1.0899
 3260TIP3    H133975   0.215   0.076   8.475 -0.1207 -0.0545 -1.1402
 3260TIP3    H233976   0.291   0.053   8.346  0.1961 -0.1100 -0.9462
 3261TIP3   OH233977   3.269   3.583   8.344  0.4873  0.0951 -0.2799
 3261TIP3    H133978   3.197   3.536   8.386 -0.9091  0.9936 -1.5695
 3261TIP3    H233979   3.262   3.558   8.252 -0.6857  3.1766 -1.1436
 3262TIP3   OH233980   3.937   4.703   1.392 -0.3249 -0.8894  0.4299
 3262TIP3    H133981   4.031   4.722   1.391 -0.5100  0.1356 -1.0837
 3262TIP3    H233982   3.928   4.625   1.336 -0.6754  0.9933 -2.3146
 3263TIP3   OH233983   3.113   3.011   7.471  0.0281  0.4294 -0.2945
 3263TIP3    H133984   3.036   2.973   7.514  0.2850 -0.1296 -0.3200
 3263TIP3    H233985   3.087   3.101   7.452  0.0940  0.8638  1.5045
 3264TIP3   OH233986   0.385   5.114   7.714  0.0270  0.4240  0.1019
 3264TIP3    H133987   0.329   5.182   7.679  3.2240  3.3397  0.1324
 3264TIP3    H233988   0.382   5.126   7.809  1.4641  1.3836  0.0572
 3265TIP3   OH233989   5.899   1.613   7.546  0.1295 -0.3217  0.0028
 3265TIP3    H133990   5.816   1.615   7.593  0.0363  1.7380 -0.1467
 3265TIP3    H233991   5.876   1.583   7.458  0.0416 -2.5377  0.7312
 3266TIP3   OH233992   7.171   3.154   0.937  0.5740 -0.6099 -0.0833
 3266TIP3    H133993   7.214   3.231   0.973 -0.4898  0.4071 -0.9071
 3266TIP3    H233994   7.079   3.166   0.957  0.4683 -2.0706  0.4476
 3267TIP3   OH233995   3.956   7.190   1.413  0.0080 -0.9348  0.1403
 3267TIP3    H133996   3.907   7.152   1.340 -0.6907 -1.1295  0.7082
 3267TIP3    H233997   3.960   7.284   1.392  0.1208 -1.0376 -0.3228
 3268TIP3   OH233998   3.121   2.868   1.443 -0.2018  0.2731 -0.0884
 3268TIP3    H133999   3.033   2.864   1.479 -0.5601 -0.4425 -0.9964
 3268TIP3    H234000   3.136   2.961   1.426 -0.9586  0.3539 -0.3445
 3269TIP3   OH234001   0.284   1.415   0.082 -0.3036  0.1533 -0.5980
 3269TIP3    H134002   0.343   1.403   0.008 -0.1336  0.5366 -0.5236
 3269TIP3    H234003   0.301   1.504   0.113 -2.4013  1.0906 -1.9005
 3270TIP3   OH234004   5.572   3.596   1.158  0.4771  0.1731 -0.4278
 3270TIP3    H134005   5.665   3.602   1.181  0.4161 -1.1835  0.2981
 3270TIP3    H234006   5.527   3.642   1.229  0.5677  0.4487 -0.5479
 3271TIP3   OH234007   3.156   6.915   8.894 -0.2265  0.2831  0.1630
 3271TIP3    H134008   3.231   6.870   8.932  0.3645  0.7557 -0.4259
 3271TIP3    H234009   3.080   6.874   8.935  0.1836 -2.4296 -1.5523
 3272TIP3   OH234010   3.247   7.166   0.554 -0.1538 -0.6076 -0.1513
 3272TIP3    H134011   3.202   7.246   0.526  0.1540  0.0230  1.0625
 3272TIP3    H234012   3.178   7.112   0.593  0.2221  0.9213  2.9313
 3273TIP3   OH234013   1.399   2.295   8.346  0.0467  0.8924  0.0347
 3273TIP3    H134014   1.351   2.259   8.272  0.4263  1.7709 -0.6593
 3273TIP3    H234015   1.362   2.251   8.422 -1.0236  0.6800 -0.5825
 3274TIP3   OH234016   5.980   3.607   9.237 -0.1433 -0.7325  0.5980
 3274TIP3    H134017   5.931   3.662   9.175  0.8691  0.6509  0.9726
 3274TIP3    H234018   6.041   3.557   9.183  0.0382 -0.2758  0.3738
 3275TIP3   OH234019   6.129   6.150   0.557  0.3373  0.0854 -0.0582
 3275TIP3    H134020   6.123   6.180   0.648  0.5010 -0.3181  0.0873
 3275TIP3    H234021   6.041   6.164   0.521  0.6455  1.6325 -0.2789
 3276TIP3   OH234022   3.292   0.120   9.474  0.0981 -0.2749 -0.2167
 3276TIP3    H134023   3.310   0.208   9.441  1.0141 -0.7203 -0.9656
 3276TIP3    H234024   3.214   0.092   9.426 -0.3500  0.2082  0.2099
 3277TIP3   OH234025   0.292   5.388   8.862 -0.4007 -0.8093  0.4169
 3277TIP3    H134026   0.205   5.352   8.879  0.2076 -2.6396 -0.1570
 3277TIP3    H234027   0.352   5.327   8.905  0.7159 -0.9967 -1.3266
 3278TIP3   OH234028   3.394   4.983   0.509  0.0573 -0.0133 -0.2845
 3278TIP3    H134029   3.307   4.960   0.542  0.8614 -0.8865  1.3397
 3278TIP3    H234030   3.397   4.945   0.421 -1.6394  1.1195 -0.8636
 3279TIP3   OH234031   0.616   0.304   1.074  0.1360  0.0139 -0.6654
 3279TIP3    H134032   0.668   0.275   1.149 -0.1537 -0.6669 -0.7176
 3279TIP3    H234033   0.560   0.374   1.109  0.0574 -0.2463 -0.2664
 3280TIP3   OH234034   0.894   4.476   1.384 -0.6312 -0.0348  0.1859
 3280TIP3    H134035   0.945   4.398   1.362  0.1397 -0.6098  3.5215
 3280TIP3    H234036   0.948   4.549   1.351  0.2219 -0.7838 -0.1289
 3281TIP3   OH234037   2.636   1.055   8.749 -0.0908  0.2352 -0.0901
 3281TIP3    H134038   2.679   1.115   8.809  0.3804  1.2936 -1.4475
 3281TIP3    H234039   2.707   1.013   8.700 -0.4983 -0.0126 -0.4832
 3282TIP3   OH234040   0.483   4.549   9.371  0.0979  0.0143 -0.3363
 3282TIP3    H134041   0.427   4.582   9.301  0.7310  0.6141 -0.5706
 3282TIP3    H234042   0.445   4.464   9.394 -1.4594  0.8082  0.1587
 3283TIP3   OH234043   0.259   4.015   2.299  0.8599 -0.1347 -0.4217
 3283TIP3    H134044   0.186   4.008   2.237  2.2320  0.7681 -2.2658
 3283TIP3    H234045   0.283   4.108   2.296  1.6957 -0.3039  0.6013
 3284TIP3   OH234046   0.046   2.109   2.055  0.4938 -0.0569  0.6593
 3284TIP3    H134047   0.043   2.143   1.966  1.2471  0.2800  0.7515
 3284TIP3    H234048   0.028   2.185   2.110  1.1731 -0.0105  0.8287
 3285TIP3   OH234049   0.818   3.095   7.457 -0.0649  0.3023 -0.0507
 3285TIP3    H134050   0.854   3.151   7.526 -0.6456  0.7215 -0.0765
 3285TIP3    H234051   0.892   3.078   7.399 -0.4399  3.4496 -1.6452
 3286TIP3   OH234052   3.427   4.678   6.721 -0.7719  0.2498  0.2494
 3286TIP3    H134053   3.523   4.681   6.718 -0.7933  0.5253 -0.7149
 3286TIP3    H234054   3.400   4.767   6.695 -1.2869  1.1709  3.5327
 3287TIP3   OH234055   3.822   2.916   7.813  0.2875  0.1254 -0.0451
 3287TIP3    H134056   3.737   2.877   7.790 -1.2695  2.1278  1.7896
 3287TIP3    H234057   3.854   2.863   7.886 -0.3974  0.4776  0.5353
 3288TIP3   OH234058   1.502   0.764   1.779  0.5302 -0.1598 -0.4960
 3288TIP3    H134059   1.538   0.833   1.723 -0.4257  0.8129  0.0534
 3288TIP3    H234060   1.504   0.801   1.867 -1.3967 -0.2202 -0.3892
 3289TIP3   OH234061   3.459   0.517   0.604  0.0195 -0.0737  0.2348
 3289TIP3    H134062   3.481   0.543   0.694 -0.6105  1.6683 -0.0816
 3289TIP3    H234063   3.537   0.472   0.572  0.7029  0.3511  1.2449
 3290TIP3   OH234064   0.195   1.504   2.333  0.5400 -0.6451 -0.4099
 3290TIP3    H134065   0.223   1.481   2.244  1.5157  0.7252 -0.4919
 3290TIP3    H234066   0.240   1.587   2.351 -1.1033  0.0632  0.6604
 3291TIP3   OH234067   3.202   4.367   1.343 -0.4766 -0.4842 -0.0453
 3291TIP3    H134068   3.281   4.369   1.397 -0.7690  0.6616  0.3542
 3291TIP3    H234069   3.229   4.407   1.260 -1.0256  1.4839  0.6698
 3292TIP3   OH234070   2.714   6.274   1.611  0.6248 -0.3328  0.2935
 3292TIP3    H134071   2.661   6.234   1.542  1.6508  0.3653 -0.9424
 3292TIP3    H234072   2.767   6.202   1.646  1.6550 -0.3134 -1.1507
 3293TIP3   OH234073   6.010   3.847   1.784 -0.4774 -0.2155  0.3441
 3293TIP3    H134074   6.002   3.753   1.770 -0.5673 -0.0336 -0.8943
 3293TIP3    H234075   5.920   3.880   1.776 -0.4549 -0.0288  0.8344
 3294TIP3   OH234076   4.017   2.787   9.262 -0.2639  0.1899  0.0029
 3294TIP3    H134077   4.068   2.728   9.206  1.7240  1.2010  0.6728
 3294TIP3    H234078   3.958   2.832   9.202  1.6774  1.1077 -1.3315
 3295TIP3   OH234079   4.653   7.228   6.921  0.1274 -0.2858  0.3928
 3295TIP3    H134080   4.731   7.282   6.907  0.6337 -1.4925 -1.8158
 3295TIP3    H234081   4.670   7.182   7.003  0.7020  1.1104  1.0999
 3296TIP3   OH234082   5.261   0.790   7.995 -0.3881  0.5182  0.0916
 3296TIP3    H134083   5.338   0.734   8.007 -0.2414  1.0727  2.0717
 3296TIP3    H234084   5.245   0.788   7.900  1.3754 -0.4918 -0.2391
 3297TIP3   OH234085   7.018   3.832   0.891 -0.1998  0.2527 -1.1489
 3297TIP3    H134086   7.081   3.862   0.957 -0.1848  4.5761 -2.8122
 3297TIP3    H234087   7.067   3.835   0.808 -1.1761 -1.6232 -1.8522
 3298TIP3   OH234088   3.117   0.619   0.350 -0.1635 -0.2291 -0.3499
 3298TIP3    H134089   3.109   0.529   0.381  0.2515 -0.2412 -0.2736
 3298TIP3    H234090   3.057   0.669   0.406  1.4310 -0.0531  1.2803
 3299TIP3   OH234091   3.248   3.899   9.503 -0.1677 -0.5253  0.1948
 3299TIP3    H134092   3.178   3.940   9.453  0.6418  0.2435 -0.3372
 3299TIP3    H234093   3.293   3.842   9.441 -0.2376 -0.9090  0.4957
 3300TIP3   OH234094   3.888   3.153   9.225 -0.3069  0.3259  0.6152
 3300TIP3    H134095   3.925   3.174   9.139  0.2624  1.0839  1.0280
 3300TIP3    H234096   3.811   3.099   9.206  0.0113  0.1912 -0.3499
 3301TIP3   OH234097   0.402   6.881   8.234 -0.1525 -0.1177 -0.2923
 3301TIP3    H134098   0.482   6.873   8.286 -1.2411 -1.5009  1.2928
 3301TIP3    H234099   0.385   6.976   8.231  0.5768  0.0765  0.9142
 3302TIP3   OH234100   3.796   2.786   0.235  0.1425  0.0083  0.0884
 3302TIP3    H134101   3.888   2.768   0.255  1.1848 -0.5366 -4.1617
 3302TIP3    H234102   3.796   2.875   0.200 -1.4424  0.8458  2.0250
 3303TIP3   OH234103   7.313   5.387   7.124 -0.7127  0.6456  0.8544
 3303TIP3    H134104   7.271   5.455   7.071  2.2768  2.3573  0.5031
 3303TIP3    H234105   7.322   5.425   7.211 -0.5707  0.0116  1.1291
 3304TIP3   OH234106   4.265   2.000   7.352  0.3260 -0.4173 -0.5900
 3304TIP3    H134107   4.179   2.042   7.357  0.4725 -0.1841  0.2359
 3304TIP3    H234108   4.288   2.000   7.259 -0.1265  0.4171 -0.7038
 3305TIP3   OH234109   1.657   0.989   1.007 -0.0828  0.0927 -0.2102
 3305TIP3    H134110   1.614   0.973   0.923  2.2439 -1.4896 -1.2214
 3305TIP3    H234111   1.712   0.912   1.021  0.7186  0.9840  2.0615
 3306TIP3   OH234112   1.155   4.326   6.804 -0.0501 -0.0121  0.5093
 3306TIP3    H134113   1.194   4.331   6.716 -0.9066  0.4436  0.1412
 3306TIP3    H234114   1.105   4.244   6.803 -1.8207  1.0254 -0.2027
 3307TIP3   OH234115   2.515   1.115   9.368  0.1787  0.0076  1.1395
 3307TIP3    H134116   2.498   1.198   9.412 -0.9439  0.2629  0.2809
 3307TIP3    H234117   2.503   1.134   9.275  0.1739 -1.0502  0.9069
 3308TIP3   OH234118   5.208   0.865   7.429 -0.1662 -0.1507 -0.0502
 3308TIP3    H134119   5.253   0.949   7.433  0.0093 -0.2284 -0.3451
 3308TIP3    H234120   5.235   0.827   7.344  1.1441 -1.2692  0.8178
 3309TIP3   OH234121   1.676   4.892   1.995  0.0935 -0.0920  0.2334
 3309TIP3    H134122   1.715   4.855   2.075 -0.9899 -0.6654  0.5324
 3309TIP3    H234123   1.715   4.842   1.924  1.1796  0.5194  0.3838
 3310TIP3   OH234124   4.708   3.540   0.020  0.1896  0.3843  0.5293
 3310TIP3    H134125   4.716   3.606  -0.049 -1.4512 -0.4680 -0.5331
 3310TIP3    H234126   4.768   3.470  -0.006 -0.4469  0.0516 -0.0891
 3311TIP3   OH234127   2.407   3.619   2.702  0.8159  0.2177  0.4966
 3311TIP3    H134128   2.397   3.579   2.788 -0.9791  0.2630  0.3510
 3311TIP3    H234129   2.495   3.595   2.674  0.2843 -2.5500  0.9605
 3312TIP3   OH234130   2.065   5.487   1.302 -0.0629 -0.0345 -0.3836
 3312TIP3    H134131   2.064   5.577   1.335 -0.5969  0.2861 -1.2378
 3312TIP3    H234132   2.124   5.440   1.361 -2.0589  0.1622  1.9054
 3313TIP3   OH234133   4.433   7.275   6.794  0.0479  0.1866  0.0001
 3313TIP3    H134134   4.376   7.276   6.871  0.3850 -1.1183  0.2965
 3313TIP3    H234135   4.521   7.263   6.829  0.4042  1.1723 -0.5168
 3314TIP3   OH234136   3.294   2.700   0.796 -0.2067  0.0293  0.0284
 3314TIP3    H134137   3.299   2.664   0.885  0.9065  2.2517  0.9222
 3314TIP3    H234138   3.203   2.728   0.787 -0.0539  0.8604  0.9341
 3315TIP3   OH234139   4.628   3.532   1.633  0.5099 -0.2027  0.5185
 3315TIP3    H134140   4.544   3.512   1.674  1.0733 -0.5766  1.5489
 3315TIP3    H234141   4.606   3.576   1.551 -0.6719  0.4605  1.1708
 3316TIP3   OH234142   0.779   4.388   7.249 -0.9975 -0.1137 -0.1941
 3316TIP3    H134143   0.736   4.454   7.303 -1.2931 -0.5114  0.0597
 3316TIP3    H234144   0.836   4.341   7.310  2.8497  2.8431 -1.1178
 3317TIP3   OH234145   3.826   6.992   0.602  0.6025  0.1005 -0.4875
 3317TIP3    H134146   3.817   7.079   0.563  0.0025  0.3556  0.1947
 3317TIP3    H234147   3.829   6.933   0.527 -2.3222  0.4145 -0.9626
 3318TIP3   OH234148   1.981   6.075   0.840 -0.0851  0.5995 -0.5449
 3318TIP3    H134149   1.888   6.088   0.824 -0.8158 -2.6876  0.1881
 3318TIP3    H234150   1.984   6.034   0.927  2.3919  3.5460  0.9469
 3319TIP3   OH234151   3.217   4.898   1.195  0.9039 -0.5291  0.0934
 3319TIP3    H134152   3.288   4.833   1.189  0.7573 -0.6339 -0.5777
 3319TIP3    H234153   3.223   4.931   1.284  2.2551 -0.0244 -0.1588
 3320TIP3   OH234154   0.327   0.138   0.836  0.6512  0.1323  0.0482
 3320TIP3    H134155   0.414   0.108   0.863  0.4582 -1.2191 -0.7627
 3320TIP3    H234156   0.288   0.062   0.792  0.3015  1.7135 -2.5376
 3321TIP3   OH234157   1.203   4.706   8.560  0.5103 -0.2128  0.0157
 3321TIP3    H134158   1.149   4.781   8.588 -1.4770 -2.2488  2.1578
 3321TIP3    H234159   1.293   4.736   8.572 -0.1629  2.1409 -0.1880
 3322TIP3   OH234160   4.977   5.442   8.389  0.3811 -0.1730  0.1469
 3322TIP3    H134161   4.897   5.478   8.352 -0.1968 -1.8607 -0.3521
 3322TIP3    H234162   4.977   5.350   8.363  1.7317 -0.5872  1.4033
 3323TIP3   OH234163   6.360   4.305   2.214 -0.1653 -0.1194 -0.0696
 3323TIP3    H134164   6.405   4.265   2.140  1.4446 -2.5770  2.0696
 3323TIP3    H234165   6.397   4.393   2.221  0.6359 -0.3394 -1.3472
 3324TIP3   OH234166   4.538   6.114   0.275 -0.2989 -0.4180 -0.2826
 3324TIP3    H134167   4.625   6.107   0.236  0.6703 -0.7533  1.7810
 3324TIP3    H234168   4.507   6.024   0.283  0.5406 -0.5718  1.7782
 3325TIP3   OH234169   6.235   6.498   8.740 -0.2666  0.0733 -0.0620
 3325TIP3    H134170   6.326   6.517   8.718  0.0126 -0.6324  0.4431
 3325TIP3    H234171   6.238   6.410   8.778 -0.9764  0.5670  1.1636
 3326TIP3   OH234172   4.267   1.882   1.830  0.0704 -0.0814  0.2708
 3326TIP3    H134173   4.218   1.803   1.805 -0.2150  0.0919  0.2840
 3326TIP3    H234174   4.254   1.942   1.758 -0.7322  0.4119  0.8143
 3327TIP3   OH234175   1.389   4.583   9.323 -0.2144  0.1132  0.2550
 3327TIP3    H134176   1.391   4.500   9.370  0.1256  1.1602  2.2337
 3327TIP3    H234177   1.351   4.645   9.386  1.8846  1.9816 -0.1946
 3328TIP3   OH234178   2.628   4.678   9.200 -0.0992  0.0348  0.2619
 3328TIP3    H134179   2.592   4.747   9.256  0.8896  1.3461 -0.6552
 3328TIP3    H234180   2.617   4.711   9.111  1.3915 -0.4801 -0.1450
 3329TIP3   OH234181   5.734   6.886   9.608  0.2433 -0.4931 -0.6529
 3329TIP3    H134182   5.683   6.948   9.556 -2.4702 -0.3089  1.9800
 3329TIP3    H234183   5.754   6.815   9.546 -2.6128 -0.2153 -2.0698
 3330TIP3   OH234184   0.820   3.026   0.327 -0.3685  0.1601  0.3634
 3330TIP3    H134185   0.753   3.047   0.261  0.4531  1.3059 -0.1463
 3330TIP3    H234186   0.804   2.935   0.349 -0.9951 -0.1097 -1.0557
 3331TIP3   OH234187   6.723   1.450   7.020 -0.5420 -0.0605  0.6505
 3331TIP3    H134188   6.803   1.497   7.041  0.0850 -1.1848  0.8837
 3331TIP3    H234189   6.657   1.518   7.008  0.9356  1.0431 -1.9062
 3332TIP3   OH234190   6.191   5.986   8.980  0.2139  0.4240 -0.7418
 3332TIP3    H134191   6.244   5.979   8.901 -0.0602 -0.2025 -0.8779
 3332TIP3    H234192   6.253   6.016   9.047  0.7454 -0.2828 -0.8984
 3333TIP3   OH234193   0.725   6.617   0.975 -0.2276 -0.4328  0.3728
 3333TIP3    H134194   0.715   6.528   1.009 -1.5048 -0.4737 -0.0552
 3333TIP3    H234195   0.635   6.646   0.956  0.2340  0.6189 -0.3189
 3334TIP3   OH234196   4.503   1.506   7.686 -0.8722  0.3627 -0.3199
 3334TIP3    H134197   4.477   1.594   7.714  2.4643  0.9402  1.5973
 3334TIP3    H234198   4.515   1.458   7.768  0.8693 -0.6671 -1.1237
 3335TIP3   OH234199   4.850   5.242   8.246  0.1892 -0.4573 -0.1432
 3335TIP3    H134200   4.817   5.160   8.282 -1.2852  0.1365 -0.0636
 3335TIP3    H234201   4.811   5.248   8.159  0.6566 -0.0570 -0.3308
 3336TIP3   OH234202   4.964   2.547   7.082  0.2720  0.0683 -0.1183
 3336TIP3    H134203   4.947   2.591   7.166  0.5016 -0.4090  0.1842
 3336TIP3    H234204   4.884   2.560   7.031  0.6489  1.5582 -0.3563
 3337TIP3   OH234205   4.105   6.834   1.715  0.3235  0.3717  0.2849
 3337TIP3    H134206   4.179   6.781   1.688  0.2124  0.8762 -1.1055
 3337TIP3    H234207   4.114   6.915   1.666  0.0092  1.3132  1.7072
 3338TIP3   OH234208   1.488   4.322   8.969  0.2865  0.1886  0.2450
 3338TIP3    H134209   1.579   4.302   8.947  0.7600  1.4161  0.9859
 3338TIP3    H234210   1.479   4.416   8.951 -0.3582  0.4281  1.6683
 3339TIP3   OH234211   1.649   4.319   1.533 -0.2766  1.0597 -0.2291
 3339TIP3    H134212   1.597   4.292   1.458  1.2376 -1.7832 -0.3816
 3339TIP3    H234213   1.728   4.266   1.528  1.0460  2.6518  1.9658
 3340TIP3   OH234214   6.276   5.979   8.726  0.1329 -0.4664  0.6659
 3340TIP3    H134215   6.198   5.954   8.678  0.2040 -0.5833  0.6098
 3340TIP3    H234216   6.349   5.942   8.675  0.2445 -0.0817  0.5411
 3341TIP3   OH234217   3.513   6.108   0.592  0.2787  0.0935 -0.3490
 3341TIP3    H134218   3.516   6.189   0.643 -0.6358 -1.6042  2.6673
 3341TIP3    H234219   3.425   6.107   0.554  0.0043  0.1818  0.2621
 3342TIP3   OH234220   0.590   1.552   9.059  0.3508  0.5510  0.2958
 3342TIP3    H134221   0.583   1.599   8.976  0.6048  0.6618  0.3352
 3342TIP3    H234222   0.624   1.617   9.120 -1.8845  1.1082  1.0300
 3343TIP3   OH234223   5.156   2.859   7.240  0.2496 -0.2646 -0.0154
 3343TIP3    H134224   5.127   2.855   7.149  2.2823 -1.4796 -0.6946
 3343TIP3    H234225   5.210   2.938   7.244 -0.4913  0.2242  0.3564
 3344TIP3   OH234226   2.295   3.557   0.482 -0.4996  0.4309  0.0443
 3344TIP3    H134227   2.311   3.645   0.446  0.6667 -0.3593 -1.4990
 3344TIP3    H234228   2.205   3.537   0.457  0.2358 -0.0420 -2.5055
 3345TIP3   OH234229   7.286   3.268   7.800 -0.5145  0.3851  0.2973
 3345TIP3    H134230   7.198   3.296   7.822 -0.5136  1.8701 -1.3954
 3345TIP3    H234231   7.284   3.254   7.705  0.4990 -1.7954  0.5191
 3346TIP3   OH234232   5.071   6.727   8.939  0.5512 -0.5311  0.4745
 3346TIP3    H134233   5.006   6.659   8.921 -0.9223  1.2350 -1.3554
 3346TIP3    H234234   5.131   6.722   8.865  1.1279 -0.5967  0.9443
 3347TIP3   OH234235   2.534   7.257   9.610 -0.4777 -0.4414  0.2837
 3347TIP3    H134236   2.535   7.198   9.685  0.0553 -0.1435  0.5144
 3347TIP3    H234237   2.608   7.228   9.556  1.7909  1.8852  1.8817
 3348TIP3   OH234238   1.518   0.290   2.184  0.5614 -0.0179 -0.6611
 3348TIP3    H134239   1.427   0.263   2.189  0.8830 -1.0586  0.1109
 3348TIP3    H234240   1.542   0.282   2.092  0.5297 -2.1160 -0.5284
 3349TIP3   OH234241   2.961   5.314   0.524  0.5590 -0.0110  0.2126
 3349TIP3    H134242   2.932   5.395   0.482 -1.5127 -2.1319 -2.9700
 3349TIP3    H234243   3.053   5.305   0.499  0.7883  1.2666  0.5359
 3350TIP3   OH234244   4.301   0.999   8.331  0.1734  0.3222 -0.4406
 3350TIP3    H134245   4.208   0.978   8.346  0.5771 -1.1959  0.2096
 3350TIP3    H234246   4.315   1.080   8.379 -0.4034 -0.4112  1.0492
 3351TIP3   OH234247   5.836   1.061   7.701 -0.0419  0.3801 -0.3115
 3351TIP3    H134248   5.814   1.089   7.790 -1.3722  0.4037 -0.6280
 3351TIP3    H234249   5.852   0.967   7.709  0.0058  0.4128 -0.0161
 3352TIP3   OH234250   4.342   3.489   7.256  0.0381 -0.1578  0.2544
 3352TIP3    H134251   4.265   3.537   7.287 -0.8278  0.1974 -2.2530
 3352TIP3    H234252   4.328   3.400   7.288 -0.0294  0.4506  2.0711
 3353TIP3   OH234253   4.885   0.664   0.081 -0.5311  0.0811 -0.0455
 3353TIP3    H134254   4.946   0.725   0.123  0.3754 -1.1362  0.4576
 3353TIP3    H234255   4.831   0.720   0.025  0.9956  1.2346 -0.4642
 3354TIP3   OH234256   4.217   4.224   1.605 -0.3445  0.1067 -1.0894
 3354TIP3    H134257   4.199   4.311   1.641  0.7291 -0.2445  0.4105
 3354TIP3    H234258   4.141   4.171   1.629  0.9654 -0.5205  2.2403
 3355TIP3   OH234259   2.312   0.484   8.363  0.6964 -0.7390 -0.3704
 3355TIP3    H134260   2.403   0.457   8.370  0.7209 -0.3155  1.5054
 3355TIP3    H234261   2.316   0.577   8.341  0.7000 -0.7795 -0.5462
 3356TIP3   OH234262   2.730   0.209   1.096 -0.0228 -0.0897 -0.1342
 3356TIP3    H134263   2.791   0.174   1.161 -1.5396 -0.3964  1.1705
 3356TIP3    H234264   2.646   0.216   1.142 -0.6914  1.5704 -1.4964
 3357TIP3   OH234265   6.619   3.828   2.399 -0.4676  0.2921  0.0134
 3357TIP3    H134266   6.705   3.860   2.427 -0.1180  0.3244 -1.0379
 3357TIP3    H234267   6.565   3.831   2.478 -0.2575  2.7488  0.1324
 3358TIP3   OH234268   5.166   0.572   0.950  0.5096  0.1431  1.0759
 3358TIP3    H134269   5.122   0.633   0.890 -1.2778 -0.3441  1.8021
 3358TIP3    H234270   5.244   0.618   0.979  1.7065  0.2176 -1.9401
 3359TIP3   OH234271   0.062   4.811   9.545 -0.0298  0.1337  0.2412
 3359TIP3    H134272   0.079   4.738   9.604 -2.7066 -1.6686 -1.0492
 3359TIP3    H234273  -0.033   4.821   9.546 -0.0192  1.1336 -2.4512
 3360TIP3   OH234274   4.617   4.416   1.099  0.2487 -0.5722 -0.2170
 3360TIP3    H134275   4.608   4.489   1.161  1.2615 -0.7753  0.1951
 3360TIP3    H234276   4.529   4.380   1.091  0.1392 -0.7413  1.3697
 3361TIP3   OH234277   3.983   5.277   1.877  0.0541  0.6419  0.5463
 3361TIP3    H134278   4.017   5.251   1.791 -0.3170  2.1408 -0.0797
 3361TIP3    H234279   4.045   5.239   1.940 -0.3825 -1.6022 -0.2745
 3362TIP3   OH234280   4.854   2.233   1.083 -0.5012 -0.0739  0.3321
 3362TIP3    H134281   4.853   2.137   1.085  0.0789 -0.1733 -1.6491
 3362TIP3    H234282   4.763   2.258   1.070 -0.3866 -0.5229 -1.6841
 3363TIP3   OH234283   6.116   1.140   7.263 -0.2568 -0.3595 -0.2960
 3363TIP3    H134284   6.194   1.109   7.309  0.4766  0.6496 -0.8298
 3363TIP3    H234285   6.072   1.197   7.327  1.6604  2.4507 -1.2652
 3364TIP3   OH234286   1.264   1.392   7.718 -0.0434  0.1935  0.2758
 3364TIP3    H134287   1.308   1.424   7.639 -0.1244  0.5958  0.3901
 3364TIP3    H234288   1.171   1.405   7.700  0.0007  2.0508  1.1630
 3365TIP3   OH234289   2.795   6.151   1.282 -0.5403 -0.3695 -0.1091
 3365TIP3    H134290   2.859   6.185   1.345  0.3273 -1.0062 -0.6192
 3365TIP3    H234291   2.712   6.154   1.328 -0.4251  1.9539  0.0283
 3366TIP3   OH234292   4.210   2.030   7.962  0.2744 -0.0895 -0.7056
 3366TIP3    H134293   4.141   1.970   7.935  0.5562 -1.7785  1.9541
 3366TIP3    H234294   4.278   2.020   7.896 -0.7830 -0.6688 -1.7494
 3367TIP3   OH234295   0.162   5.319   7.965 -0.2337  0.0842 -0.2442
 3367TIP3    H134296   0.075   5.286   7.988 -0.3313 -0.8241 -1.7313
 3367TIP3    H234297   0.222   5.248   7.990 -0.0659  0.1771 -0.3767
 3368TIP3   OH234298   2.883   2.978   0.994 -0.3710 -0.4487 -0.4054
 3368TIP3    H134299   2.928   2.937   1.067 -0.6229  0.8053  0.4825
 3368TIP3    H234300   2.791   2.955   1.006 -0.5846  0.6900  0.3641
 3369TIP3   OH234301   4.065   6.242   8.437 -0.0200 -0.4281 -0.0830
 3369TIP3    H134302   4.058   6.175   8.505 -0.5466 -0.7204 -0.4126
 3369TIP3    H234303   4.131   6.303   8.469 -0.8530 -0.0999  1.0772
 3370TIP3   OH234304   7.044   4.413   7.361 -0.0919  0.3675 -0.2819
 3370TIP3    H134305   7.064   4.445   7.448 -2.9622 -0.0647  0.6519
 3370TIP3    H234306   7.015   4.491   7.313  2.1868  0.7412 -1.1667
 3371TIP3   OH234307   5.609   4.195   9.184 -0.6483 -0.4279 -0.0923
 3371TIP3    H134308   5.689   4.225   9.141  0.2863 -3.2564 -0.5691
 3371TIP3    H234309   5.561   4.275   9.205  0.9299  1.2635 -2.4003
 3372TIP3   OH234310   3.097   2.829   8.359 -0.1376  0.2899 -0.1967
 3372TIP3    H134311   3.173   2.887   8.352  0.1615  0.0047  0.5560
 3372TIP3    H234312   3.104   2.790   8.447 -1.1529  0.2623 -0.1093
 3373TIP3   OH234313   0.920   1.472   6.754 -0.0055  0.0287 -0.0820
 3373TIP3    H134314   0.827   1.489   6.763  0.3671  2.9253 -0.8142
 3373TIP3    H234315   0.963   1.538   6.808  1.6689 -1.6811  0.8262
 3374TIP3   OH234316   5.257   1.034   7.758 -0.3703 -0.1389  0.2506
 3374TIP3    H134317   5.301   1.087   7.825 -0.2842  0.7773 -0.5192
 3374TIP3    H234318   5.289   1.068   7.675 -0.6523 -1.1185 -0.2771
 3375TIP3   OH234319   2.684   4.148   7.003  0.4843 -0.0362 -1.4603
 3375TIP3    H134320   2.640   4.146   6.918 -0.5726 -1.1316 -0.9219
 3375TIP3    H234321   2.635   4.085   7.056  0.0921  1.7925  0.4668
 3376TIP3   OH234322   2.142   4.282   0.625 -0.2075  1.0259  0.1060
 3376TIP3    H134323   2.108   4.360   0.580 -1.0722  1.1783  0.9728
 3376TIP3    H234324   2.070   4.256   0.683  0.4998  0.2413  0.6428
 3377TIP3   OH234325   2.185   3.666   9.073 -0.0209 -0.6661  0.0237
 3377TIP3    H134326   2.205   3.680   8.980  1.8886  0.9615  0.5932
 3377TIP3    H234327   2.094   3.637   9.074 -0.4778  0.4160 -2.2879
 3378TIP3   OH234328   3.262   1.747   0.233 -0.2519 -0.0553  0.7561
 3378TIP3    H134329   3.289   1.674   0.177 -1.0284 -0.9785  1.5426
 3378TIP3    H234330   3.316   1.738   0.312 -2.9158 -2.1709  2.5295
 3379TIP3   OH234331   4.972   5.886   8.661 -0.3809 -0.1917  0.1516
 3379TIP3    H134332   4.993   5.836   8.740 -1.2860 -0.4704  0.2251
 3379TIP3    H234333   4.906   5.833   8.616  0.1960 -0.0785 -0.8461
 3380TIP3   OH234334   1.784   6.202   0.719  0.0090  0.5380  0.4823
 3380TIP3    H134335   1.774   6.253   0.639  1.4426 -1.0727 -0.8089
 3380TIP3    H234336   1.708   6.145   0.721 -1.6066  2.5859  1.9365
 3381TIP3   OH234337   6.927   3.457   2.739 -0.1199 -0.5676  0.0838
 3381TIP3    H134338   6.979   3.378   2.725  2.3341  1.1359 -0.9993
 3381TIP3    H234339   6.960   3.519   2.675 -2.1703  1.2960  0.7074
 3382TIP3   OH234340   2.540   2.560   0.469  0.3121  0.6905  0.6932
 3382TIP3    H134341   2.524   2.502   0.394 -1.2017  2.1190 -0.1604
 3382TIP3    H234342   2.493   2.519   0.542 -0.2877  0.5469  0.2364
 3383TIP3   OH234343   3.507   2.730   2.566  0.0531  0.0676 -0.4049
 3383TIP3    H134344   3.535   2.704   2.654 -0.1713  0.1324 -0.3130
 3383TIP3    H234345   3.490   2.647   2.522 -1.3427  0.0500  0.1140
 3384TIP3   OH234346   4.709   4.020   7.132  0.0497 -0.4599 -0.5079
 3384TIP3    H134347   4.713   3.958   7.204 -1.5667 -0.3445 -0.2757
 3384TIP3    H234348   4.616   4.026   7.111  0.1546  1.8310 -0.5621
 3385TIP3   OH234349   6.322   4.504   7.657  0.6644  0.1252 -0.1507
 3385TIP3    H134350   6.286   4.573   7.713 -0.5862 -0.5554 -0.0715
 3385TIP3    H234351   6.365   4.551   7.586  0.0680  0.9992  0.0473
 3386TIP3   OH234352   6.037   3.658   7.565 -0.0218  0.6841 -0.1572
 3386TIP3    H134353   5.988   3.736   7.591 -0.1852  0.2098  1.0517
 3386TIP3    H234354   5.995   3.586   7.613 -1.2039 -0.5164 -2.7627
 3387TIP3   OH234355   6.796   2.248   0.047 -0.0497 -0.1567 -0.4538
 3387TIP3    H134356   6.801   2.262  -0.047  1.2163 -0.3476 -0.4333
 3387TIP3    H234357   6.810   2.154   0.059  1.4377  0.0863 -0.0059
 3388TIP3   OH234358   3.292   1.463   1.313  0.1678 -0.7211  0.1829
 3388TIP3    H134359   3.302   1.520   1.236 -0.4530 -0.3306  0.3845
 3388TIP3    H234360   3.262   1.379   1.277  2.1886 -1.3125 -0.2366
 3389TIP3   OH234361   4.892   7.291   1.358 -0.0373  0.4275 -0.3430
 3389TIP3    H134362   4.910   7.202   1.387  0.8583  0.3377 -1.1230
 3389TIP3    H234363   4.944   7.302   1.279 -2.0376  0.8318 -1.6667
 3390TIP3   OH234364   6.251   1.687   7.978  0.4020  0.0229 -0.0684
 3390TIP3    H134365   6.284   1.651   7.895 -0.6789 -1.4253  0.0872
 3390TIP3    H234366   6.193   1.619   8.011  0.9850  0.4792  2.0105
 3391TIP3   OH234367   0.287   0.323   1.800 -0.3636 -0.6027  0.4184
 3391TIP3    H134368   0.311   0.231   1.789  0.1657 -0.5197  0.8584
 3391TIP3    H234369   0.364   0.365   1.838 -0.5289  0.0711  0.0295
 3392TIP3   OH234370   5.251   4.770   8.713 -0.4714 -0.4348  0.1161
 3392TIP3    H134371   5.314   4.699   8.719  1.2018  1.0773  1.3490
 3392TIP3    H234372   5.219   4.766   8.623 -0.3039 -2.6068  0.1136
 3393TIP3   OH234373   6.303   1.837   7.597 -0.0240 -0.4268  1.1750
 3393TIP3    H134374   6.395   1.811   7.593  0.8037  2.2683  0.9885
 3393TIP3    H234375   6.298   1.898   7.671 -0.9545  1.8073 -0.6086
 3394TIP3   OH234376   5.281   4.504   1.485 -0.0558 -0.6791 -0.1502
 3394TIP3    H134377   5.297   4.515   1.579 -0.7966 -2.7822  0.2869
 3394TIP3    H234378   5.232   4.581   1.459  1.6455  0.7905  0.7802
 3395TIP3   OH234379   1.424   5.444   0.663 -0.6522  0.1377 -0.3843
 3395TIP3    H134380   1.456   5.441   0.573  1.0562 -2.1706  0.2192
 3395TIP3    H234381   1.486   5.501   0.709 -0.6751  0.1393 -0.3553
 3396TIP3   OH234382   7.036   3.956   1.874  0.4202  0.1481 -0.2016
 3396TIP3    H134383   7.095   3.922   1.941 -0.1052  0.0727  0.2329
 3396TIP3    H234384   7.068   4.044   1.856 -0.1718  0.6576  1.0835
 3397TIP3   OH234385   0.647   0.855   7.836  0.1234  0.0214 -0.8314
 3397TIP3    H134386   0.572   0.804   7.867  0.8203 -1.8069 -1.9774
 3397TIP3    H234387   0.622   0.946   7.852 -1.0278 -0.6390  1.6503
 3398TIP3   OH234388   2.370   4.881   1.062 -0.3531  0.0906 -0.1473
 3398TIP3    H134389   2.379   4.807   1.122  2.3559  0.3360 -0.1077
 3398TIP3    H234390   2.402   4.956   1.112 -1.7448  1.0579 -0.6482
 3399TIP3   OH234391   7.021   6.158   1.297  0.8555  0.6128 -0.0880
 3399TIP3    H134392   7.081   6.138   1.225  1.6956  0.2633  0.6843
 3399TIP3    H234393   7.077   6.165   1.374  0.1197  2.1909  0.3409
 3400TIP3   OH234394   6.910   4.243   1.545 -0.5669 -0.1679 -0.0091
 3400TIP3    H134395   6.879   4.303   1.478 -0.8109  0.0163  0.2732
 3400TIP3    H234396   6.899   4.290   1.628  1.0855  0.1817  0.0495
 3401TIP3   OH234397   6.326   5.106   7.723  0.3891  0.0605 -0.2363
 3401TIP3    H134398   6.360   5.094   7.812  1.0753  0.6555 -0.4101
 3401TIP3    H234399   6.399   5.083   7.666  1.1505  2.9839 -0.5947
 3402TIP3   OH234400   6.511   0.452   2.142  0.0956  0.2078  0.1340
 3402TIP3    H134401   6.419   0.448   2.170 -0.3492  1.2376 -1.0654
 3402TIP3    H234402   6.524   0.372   2.092 -0.4082  0.4103 -0.3425
 3403TIP3   OH234403   3.564   4.158   8.183 -0.2185 -0.4309  1.1439
 3403TIP3    H134404   3.620   4.080   8.183 -1.4118 -1.3181  1.1517
 3403TIP3    H234405   3.612   4.221   8.237  0.4445 -1.4128  1.7527
 3404TIP3   OH234406   1.416   6.314   7.033 -0.5139 -0.3389  0.2224
 3404TIP3    H134407   1.389   6.330   6.942 -2.0828 -0.1438  0.6988
 3404TIP3    H234408   1.439   6.401   7.067 -1.2289 -0.2168  0.4050
 3405TIP3   OH234409   3.316   6.603   8.166  0.0015  0.0906  0.3609
 3405TIP3    H134410   3.293   6.647   8.084 -1.0732  0.2255  0.7155
 3405TIP3    H234411   3.326   6.675   8.229 -1.7455 -0.1155  0.9393
 3406TIP3   OH234412   2.130   4.521   9.045 -0.0640 -0.4713  0.7614
 3406TIP3    H134413   2.202   4.564   9.092  0.9481 -2.1579  0.8390
 3406TIP3    H234414   2.098   4.455   9.106 -2.4751  0.9561  1.1514
 3407TIP3   OH234415   1.833   6.083   7.240 -0.5480 -0.0059  0.1454
 3407TIP3    H134416   1.775   6.121   7.307 -1.5768 -0.3884 -0.5058
 3407TIP3    H234417   1.812   5.989   7.242  1.2952 -0.4463  1.0883
 3408TIP3   OH234418   5.033   5.420   8.665  0.0374  0.9119  0.4058
 3408TIP3    H134419   5.125   5.447   8.660 -0.4904  2.7810 -0.4440
 3408TIP3    H234420   5.012   5.392   8.576 -0.4601  1.4240  0.3578
 3409TIP3   OH234421   5.466   3.285   7.818 -0.8471 -0.2579  0.2094
 3409TIP3    H134422   5.383   3.288   7.864 -1.3707 -0.8819 -0.6638
 3409TIP3    H234423   5.513   3.211   7.857  0.4627  1.6506  2.5440
 3410TIP3   OH234424   4.603   1.703   1.189 -0.4776 -0.4439  0.1475
 3410TIP3    H134425   4.564   1.787   1.165  0.0746 -0.4411 -0.7604
 3410TIP3    H234426   4.534   1.639   1.172  0.0464 -0.5055 -1.9888
 3411TIP3   OH234427   7.400   5.484   2.062  0.8172  0.3902  0.7076
 3411TIP3    H134428   7.403   5.440   2.147  0.0938 -1.2742 -0.0725
 3411TIP3    H234429   7.441   5.422   2.002 -0.6677  0.5493 -0.5333
 3412TIP3   OH234430   3.506   1.882   8.225  0.4469 -0.3095  0.2994
 3412TIP3    H134431   3.517   1.840   8.140 -2.3932 -2.6467  0.9365
 3412TIP3    H234432   3.425   1.933   8.217  0.4413 -0.1020  1.4424
 3413TIP3   OH234433   7.085   1.699   2.118 -0.2317 -0.2448  0.1400
 3413TIP3    H134434   7.155   1.754   2.153 -0.1757 -0.8150  0.9556
 3413TIP3    H234435   7.005   1.745   2.141 -0.1643 -0.2024  0.2946
 3414TIP3   OH234436   4.707   6.817   2.282  0.2510 -0.4918 -0.3275
 3414TIP3    H134437   4.767   6.809   2.356 -0.2888  0.5515  0.2506
 3414TIP3    H234438   4.717   6.907   2.252 -1.8256  0.0809  0.5288
 3415TIP3   OH234439   5.497   1.316   8.754  0.2842  0.3848  0.6342
 3415TIP3    H134440   5.555   1.376   8.708 -0.5303 -1.2198 -2.8331
 3415TIP3    H234441   5.545   1.233   8.758  0.1928  0.3630  2.5411
 3416TIP3   OH234442   6.930   2.209   0.914  0.3134  0.1038  0.0826
 3416TIP3    H134443   6.987   2.253   0.851  1.4998 -0.7633  0.5018
 3416TIP3    H234444   6.952   2.249   0.998 -0.6898  0.7010  0.0757
 3417TIP3   OH234445   6.598   1.755   2.020 -0.0789  0.0331 -0.1801
 3417TIP3    H134446   6.656   1.818   2.062  0.1163 -0.1610 -0.1582
 3417TIP3    H234447   6.534   1.732   2.087  0.2003 -0.2358 -0.0025
 3418TIP3   OH234448   4.658   6.578   2.145 -0.0037  0.6028  0.0258
 3418TIP3    H134449   4.723   6.525   2.191  2.3431 -0.5679 -4.0741
 3418TIP3    H234450   4.680   6.669   2.167  0.5251  0.1029  1.6541
 3419TIP3   OH234451   5.231   6.731   1.447  0.1869 -0.3374  0.8367
 3419TIP3    H134452   5.178   6.677   1.505  1.0396 -0.5566  1.4399
 3419TIP3    H234453   5.260   6.804   1.501 -0.0493  0.1402  0.3319
 3420TIP3   OH234454   5.438   7.070   8.118  0.1449  0.0653 -0.0442
 3420TIP3    H134455   5.466   7.125   8.191  0.9126  0.5101 -0.6681
 3420TIP3    H234456   5.351   7.103   8.095 -0.5676 -0.7466  1.3206
 3421TIP3   OH234457   2.783   5.821   7.669  0.3074  0.2239 -0.4905
 3421TIP3    H134458   2.857   5.761   7.662 -0.6401 -1.2404  1.3362
 3421TIP3    H234459   2.733   5.790   7.744 -1.0199  2.4663 -0.3448
 3422TIP3   OH234460   4.242   4.904   0.875 -1.2592 -0.1669 -0.6890
 3422TIP3    H134461   4.289   4.876   0.797 -0.5402 -1.7787  0.2722
 3422TIP3    H234462   4.311   4.927   0.938 -1.8216  2.3201 -0.8918
 3423TIP3   OH234463   0.202   7.039   7.447  0.4555  0.1010 -0.6958
 3423TIP3    H134464   0.156   7.015   7.366  0.5575 -0.7560 -0.5100
 3423TIP3    H234465   0.290   7.061   7.418  0.2895  0.5037 -0.9023
 3424TIP3   OH234466   2.214   0.827   8.576  0.4458 -0.5681  0.4902
 3424TIP3    H134467   2.285   0.780   8.532  1.0292  1.5728 -0.9860
 3424TIP3    H234468   2.257   0.895   8.627 -0.4644  1.2136 -0.9742
 3425TIP3   OH234469   1.796   3.015   0.915 -0.0359  0.3388 -0.2010
 3425TIP3    H134470   1.788   2.929   0.956 -0.1151  0.0007 -0.9074
 3425TIP3    H234471   1.771   3.077   0.984  0.6009 -0.1598  0.4886
 3426TIP3   OH234472   7.084   5.629   2.219  0.3708 -0.0527 -0.1442
 3426TIP3    H134473   7.086   5.535   2.237  0.7400  0.3357  2.1205
 3426TIP3    H234474   6.994   5.655   2.238  0.8551  0.4326  1.6337
 3427TIP3   OH234475   0.668   3.317   1.770  0.7448 -0.2269 -0.2641
 3427TIP3    H134476   0.725   3.255   1.815  0.6090  0.7268  1.3089
 3427TIP3    H234477   0.726   3.390   1.747  0.0248  1.5010  2.7832
 3428TIP3   OH234478   0.175   1.415   7.309 -0.4016  0.5244  0.4393
 3428TIP3    H134479   0.084   1.446   7.315 -0.7351 -0.5729  1.9060
 3428TIP3    H234480   0.174   1.330   7.355  1.2231  0.1533 -0.1417
 3429TIP3   OH234481   2.099   6.148   7.347 -0.4701 -0.0183  0.2967
 3429TIP3    H134482   2.047   6.164   7.268  0.3479  1.7065  0.0501
 3429TIP3    H234483   2.123   6.236   7.377 -0.7575 -0.6415  2.4742
 3430TIP3   OH234484   1.384   1.199   2.291 -0.6569  0.4654 -0.7717
 3430TIP3    H134485   1.412   1.238   2.374 -1.2973  0.0437 -0.3494
 3430TIP3    H234486   1.301   1.156   2.311 -0.0080 -1.0553 -1.2478
 3431TIP3   OH234487   3.678   5.311   0.522 -0.0376 -0.6845  0.2260
 3431TIP3    H134488   3.737   5.280   0.591 -1.6897  0.7010  2.3715
 3431TIP3    H234489   3.596   5.264   0.537 -1.5105  2.0410  1.4484
 3432TIP3   OH234490   6.286   5.237   2.738  0.1087  0.4758  0.3721
 3432TIP3    H134491   6.283   5.162   2.679  0.6324  0.0973  0.8168
 3432TIP3    H234492   6.361   5.220   2.795  0.8469  1.7861 -0.1331
 3433TIP3   OH234493   5.995   2.278   8.670 -0.2959  0.1132 -0.2382
 3433TIP3    H134494   6.017   2.332   8.594 -0.5485 -1.0771 -1.1841
 3433TIP3    H234495   5.981   2.341   8.741  2.2181  1.1263 -0.5559
 3434TIP3   OH234496   5.700   3.397   8.378 -0.4840  0.4811  0.5267
 3434TIP3    H134497   5.761   3.463   8.344 -1.0114 -0.0217 -1.5270
 3434TIP3    H234498   5.617   3.417   8.336 -1.0641 -0.4962  1.1708
 3435TIP3   OH234499   4.108   6.364   8.716 -0.0587 -0.4061 -0.5710
 3435TIP3    H134500   4.159   6.283   8.709  0.0741 -0.3983  0.1864
 3435TIP3    H234501   4.150   6.412   8.787 -1.3391 -0.5647  0.3338
 3436TIP3   OH234502   0.554   3.388   8.918  0.4497 -0.3720  0.2539
 3436TIP3    H134503   0.632   3.442   8.903 -0.4381  0.3378 -2.0683
 3436TIP3    H234504   0.480   3.444   8.896 -0.7384 -1.2780  1.7020
 3437TIP3   OH234505   3.476   0.686   0.823 -0.1930  0.4683  0.4623
 3437TIP3    H134506   3.456   0.773   0.856  0.7956  0.9727 -0.2282
 3437TIP3    H234507   3.570   0.675   0.837 -0.3631 -0.6246  0.8535
 3438TIP3   OH234508   5.929   4.599   1.881 -0.2613  0.3241  0.0462
 3438TIP3    H134509   5.866   4.668   1.898  1.8088  1.8109  2.2824
 3438TIP3    H234510   6.011   4.645   1.862  0.8884 -1.4973  0.3232
 3439TIP3   OH234511   7.355   0.721   9.448  0.1345  0.6986  0.1850
 3439TIP3    H134512   7.305   0.644   9.475 -0.5385  1.8009  2.3340
 3439TIP3    H234513   7.413   0.689   9.380  0.2580 -1.8403  1.3568
 3440TIP3   OH234514   2.124   5.234   6.756 -0.5428  0.1162  0.3014
 3440TIP3    H134515   2.129   5.326   6.733 -0.8571 -0.4522 -2.4471
 3440TIP3    H234516   2.053   5.200   6.701  0.7951 -2.0957 -0.1795
 3441TIP3   OH234517   0.517   6.924   6.949  0.0248  0.0306  0.1733
 3441TIP3    H134518   0.447   6.971   6.904 -0.7288 -0.2938  0.9745
 3441TIP3    H234519   0.588   6.987   6.955  0.5990 -0.2407 -2.4300
 3442TIP3   OH234520   2.673   4.440   1.013 -0.0941 -0.1506  0.3568
 3442TIP3    H134521   2.629   4.470   1.093 -0.6996 -1.7418  0.6613
 3442TIP3    H234522   2.740   4.379   1.044  1.5292  1.2568 -0.1975
 3443TIP3   OH234523   1.955   4.020   8.097  0.8140 -0.0930  0.0653
 3443TIP3    H134524   1.862   4.040   8.100  1.1279  1.3876  0.7530
 3443TIP3    H234525   1.968   3.954   8.165  0.3620  0.0941  0.3353
 3444TIP3   OH234526   5.143   7.416   9.452 -0.2819 -0.0533 -0.0112
 3444TIP3    H134527   5.107   7.327   9.460 -0.0719 -0.1737 -0.3588
 3444TIP3    H234528   5.142   7.451   9.541 -0.6079 -0.3123  0.0881
 3445TIP3   OH234529   5.069   1.937   2.116  0.5164  0.0834  0.0688
 3445TIP3    H134530   5.129   1.887   2.171  0.4583  0.9886  0.9729
 3445TIP3    H234531   5.123   1.964   2.041  0.9994  0.1387  0.4322
 3446TIP3   OH234532   3.544   4.151   8.779 -0.6495 -0.0209  0.4505
 3446TIP3    H134533   3.560   4.225   8.721  0.8232 -2.1990 -2.1473
 3446TIP3    H234534   3.460   4.116   8.750 -0.6273 -0.2420  0.6513
 3447TIP3   OH234535   5.214   5.043   7.741 -0.6660 -0.4858  0.5872
 3447TIP3    H134536   5.274   5.110   7.706  0.3196 -1.3828  0.5155
 3447TIP3    H234537   5.262   5.004   7.814 -1.3270 -0.9671  0.7676
 3448TIP3   OH234538   2.604   4.059   1.384  0.7791 -0.1135  0.0243
 3448TIP3    H134539   2.579   3.978   1.428  0.4679  0.4720  0.9630
 3448TIP3    H234540   2.682   4.088   1.432  1.5881 -0.4482 -1.0524
 3449TIP3   OH234541   6.550   6.856   8.211  0.0513 -0.2988 -0.3388
 3449TIP3    H134542   6.480   6.874   8.148 -0.8064 -1.5540  0.2031
 3449TIP3    H234543   6.584   6.770   8.184  0.3402 -0.3979  0.3197
 3450TIP3   OH234544   2.858   7.151   1.616 -0.3303 -0.1271  0.0179
 3450TIP3    H134545   2.888   7.242   1.619 -1.1757  0.1427  0.7556
 3450TIP3    H234546   2.906   7.108   1.687 -0.6509 -0.0250  0.2973
 3451TIP3   OH234547   6.707   1.569   8.252 -0.5496  0.0147 -0.0835
 3451TIP3    H134548   6.699   1.587   8.159 -0.9120 -0.8318 -0.2225
 3451TIP3    H234549   6.678   1.478   8.262  0.0754 -0.1080  0.7622
 3452TIP3   OH234550   2.701   2.634   1.799  0.1302  0.0539  0.1563
 3452TIP3    H134551   2.665   2.595   1.879 -1.0186 -0.1320 -0.4221
 3452TIP3    H234552   2.640   2.705   1.778  0.4666  0.1548 -0.4989
 3453TIP3   OH234553   2.538   1.847   9.622 -0.6900  1.1017 -0.0392
 3453TIP3    H134554   2.621   1.843   9.669 -0.4478 -0.3562 -0.5524
 3453TIP3    H234555   2.471   1.838   9.690 -0.3559 -0.3063  0.1314
 3454TIP3   OH234556   0.683   3.196   0.140  0.2425  0.3712 -0.3594
 3454TIP3    H134557   0.632   3.276   0.124  0.5829  1.0308  1.5465
 3454TIP3    H234558   0.774   3.226   0.141  0.3001  0.3152  1.8683
 3455TIP3   OH234559   6.963   4.839   7.463 -0.2271 -0.2550 -0.3783
 3455TIP3    H134560   6.993   4.820   7.552  0.0280  0.8342 -0.2142
 3455TIP3    H234561   6.979   4.933   7.452 -1.1689 -0.1777 -1.2288
 3456TIP3   OH234562   4.353   3.642   1.823 -0.0314 -0.3853  0.5365
 3456TIP3    H134563   4.291   3.576   1.792 -0.0619  0.3810 -1.1861
 3456TIP3    H234564   4.340   3.716   1.763  1.8724  0.1554  0.7247
 3457TIP3   OH234565   2.690   4.950   0.993  0.4702 -0.0018  0.2859
 3457TIP3    H134566   2.652   4.874   0.950 -1.5366  1.0938  0.0398
 3457TIP3    H234567   2.690   4.927   1.086 -1.0702  0.0673  0.3182
 3458TIP3   OH234568   5.574   6.416   7.131 -0.0238  0.2993  0.2753
 3458TIP3    H134569   5.525   6.365   7.196  0.7243 -0.7178  0.0646
 3458TIP3    H234570   5.626   6.477   7.183 -1.0827  1.0229  0.5230
 3459TIP3   OH234571   5.065   3.653   2.121  0.0193 -0.2190 -0.2734
 3459TIP3    H134572   5.121   3.577   2.139 -1.1195 -1.3727 -1.4175
 3459TIP3    H234573   5.008   3.659   2.198  0.0202 -0.6098 -0.2415
 3460TIP3   OH234574   6.530   5.381   8.599 -0.6528 -0.5512  0.1827
 3460TIP3    H134575   6.612   5.357   8.555 -0.2199  0.9232  0.1390
 3460TIP3    H234576   6.522   5.475   8.585 -2.5750 -0.7291 -0.1331
 3461TIP3   OH234577   5.494   6.078   8.486 -0.0225  0.0199  0.5425
 3461TIP3    H134578   5.420   6.019   8.490  0.4700 -0.7148 -0.7618
 3461TIP3    H234579   5.491   6.125   8.570 -2.1209  0.2471  0.3913
 3462TIP3   OH234580   1.094   6.938   0.061 -0.0076  0.1770 -0.0917
 3462TIP3    H134581   1.132   6.994  -0.007 -0.3778  1.3852  0.6587
 3462TIP3    H234582   1.140   6.964   0.141  0.0428 -0.8447  0.2139
 3463TIP3   OH234583   1.345   3.597   8.224  0.0422 -0.1318  0.7519
 3463TIP3    H134584   1.273   3.535   8.233 -0.8999  0.8483  0.2695
 3463TIP3    H234585   1.413   3.549   8.176 -0.8553 -0.6455 -0.0432
 3464TIP3   OH234586   2.410   1.939   9.399 -0.0439  0.2446  0.1215
 3464TIP3    H134587   2.424   1.868   9.336  1.8447  1.7085 -1.2455
 3464TIP3    H234588   2.449   1.907   9.480 -0.4095 -0.7861 -0.0998
 3465TIP3   OH234589   5.140   2.173   7.452  0.5845 -0.2943  0.1664
 3465TIP3    H134590   5.076   2.116   7.494 -0.2725  0.3424 -0.2507
 3465TIP3    H234591   5.148   2.139   7.363  0.2902  0.0458  0.0062
 3466TIP3   OH234592   4.452   7.382   7.406 -0.6877  1.0077 -0.5695
 3466TIP3    H134593   4.510   7.457   7.395 -0.0353  0.6709  0.4069
 3466TIP3    H234594   4.500   7.323   7.464  0.2208 -1.6392 -3.7134
 3467TIP3   OH234595   1.820   0.105   1.116 -0.1992  0.7753  0.2639
 3467TIP3    H134596   1.792   0.129   1.204 -1.5583 -1.0425  0.4009
 3467TIP3    H234597   1.744   0.060   1.078  1.2187 -0.7981 -0.8658
 3468TIP3   OH234598   3.321   0.016   8.283  0.7665  0.4296  0.1849
 3468TIP3    H134599   3.238   0.009   8.330  0.8286  0.0809  0.2450
 3468TIP3    H234600   3.374   0.075   8.336  0.2245  1.4149 -0.3374
 3469TIP3   OH234601   6.207   0.062   0.641 -0.4120  0.2334 -0.5771
 3469TIP3    H134602   6.176   0.072   0.731 -1.0839  0.2878 -0.8052
 3469TIP3    H234603   6.129   0.032   0.593  0.6079 -2.7153 -0.6030
 3470TIP3   OH234604   3.949   0.390   8.149 -0.2352 -0.7184  0.0728
 3470TIP3    H134605   3.888   0.463   8.146  0.5722  0.0000  0.7320
 3470TIP3    H234606   4.027   0.422   8.104 -0.1562 -1.4603 -0.3421
 3471TIP3   OH234607   5.740   6.543   9.151  0.7481 -0.4612  0.2721
 3471TIP3    H134608   5.749   6.586   9.236  1.6122 -0.9782  0.4519
 3471TIP3    H234609   5.830   6.522   9.125  0.5215  0.0120 -0.9364
 3472TIP3   OH234610   5.359   2.209   1.170  0.8737  0.4120  0.1762
 3472TIP3    H134611   5.339   2.128   1.218  3.9233  0.1590  1.2651
 3472TIP3    H234612   5.341   2.278   1.233  1.1890  0.3412  0.3494
 3473TIP3   OH234613   0.606   2.851   6.888  0.0515 -0.2813 -0.2734
 3473TIP3    H134614   0.686   2.884   6.929 -0.7585  1.5747 -0.0586
 3473TIP3    H234615   0.577   2.924   6.833 -1.5294 -0.9051 -0.2997
 3474TIP3   OH234616   7.128   6.184   0.431 -0.3365  0.8500 -0.0787
 3474TIP3    H134617   7.195   6.178   0.363 -0.5449 -2.6255 -0.1854
 3474TIP3    H234618   7.175   6.218   0.507  0.9201  0.9596 -0.8615
 3475TIP3   OH234619   4.548   2.267   8.232 -0.2294  0.4949 -0.1459
 3475TIP3    H134620   4.592   2.186   8.207 -1.1038  0.5654 -2.0409
 3475TIP3    H234621   4.613   2.335   8.215 -0.2665  0.3921 -0.7049
 3476TIP3   OH234622   4.409   1.273   7.020 -0.2402 -0.5002 -0.0122
 3476TIP3    H134623   4.374   1.358   6.992 -0.6872 -0.4989  0.5324
 3476TIP3    H234624   4.463   1.244   6.946  1.8037  1.3095  0.6831
 3477TIP3   OH234625   2.832   0.269   2.957 -0.0369  0.3323  0.4521
 3477TIP3    H134626   2.806   0.246   3.046  3.2624  1.3379  1.8634
 3477TIP3    H234627   2.765   0.330   2.927 -1.2901 -0.1150  2.1994
 3478TIP3   OH234628   0.052   5.591   6.975 -0.1964 -0.9027 -0.1482
 3478TIP3    H134629  -0.019   5.655   6.989  0.5380  0.1792 -1.1190
 3478TIP3    H234630   0.014   5.527   6.914 -0.8894 -1.3139  0.6975
 3479TIP3   OH234631   3.358   0.371   7.999 -0.0754  0.3665  0.0245
 3479TIP3    H134632   3.417   0.298   8.016  1.1885  1.2187 -0.5284
 3479TIP3    H234633   3.401   0.447   8.038 -0.6769  1.0552 -0.6018
 3480TIP3   OH234634   1.861   5.851   8.152  0.5162  0.0889 -0.1627
 3480TIP3    H134635   1.853   5.900   8.234  0.1426  1.4093 -0.9547
 3480TIP3    H234636   1.951   5.865   8.124  1.0671 -1.5105  0.6856
 3481TIP3   OH234637   4.792   4.065   1.543 -0.0457  0.3938 -0.3827
 3481TIP3    H134638   4.810   4.131   1.476 -0.1790  0.1261 -0.6874
 3481TIP3    H234639   4.721   4.012   1.506  0.8331 -0.6380 -0.6417
 3482TIP3   OH234640   3.403   1.530   9.100 -0.2330 -0.6589  0.1365
 3482TIP3    H134641   3.494   1.542   9.126 -0.6911  2.6088  0.6172
 3482TIP3    H234642   3.404   1.455   9.041  2.6810 -0.9396  0.4244
 3483TIP3   OH234643   5.999   6.286   7.796 -0.3388 -0.5738  0.5683
 3483TIP3    H134644   5.986   6.313   7.887 -0.3974 -0.1038  0.4195
 3483TIP3    H234645   5.914   6.298   7.754 -0.3122 -0.7920  0.4490
 3484TIP3   OH234646   1.820   4.419   0.685 -0.0391  0.3131  0.5321
 3484TIP3    H134647   1.829   4.377   0.599  0.1830  1.9645 -0.2761
 3484TIP3    H234648   1.792   4.348   0.743  1.2611 -1.1584 -0.5772
 3485TIP3   OH234649   0.384   2.871   7.435  0.5164  0.0014  0.2538
 3485TIP3    H134650   0.407   2.901   7.347  0.4031 -0.9511 -0.1129
 3485TIP3    H234651   0.352   2.950   7.480  0.6602  0.5126 -0.5247
 3486TIP3   OH234652   0.394   3.337   8.272  0.4596 -0.2990  0.3233
 3486TIP3    H134653   0.456   3.265   8.260  1.0405  0.3260 -0.5122
 3486TIP3    H234654   0.373   3.366   8.183 -1.1227 -0.5721  0.5953
 3487TIP3   OH234655   0.185   0.917   7.556  0.0655 -0.4589 -0.2346
 3487TIP3    H134656   0.263   0.865   7.535 -2.0076 -3.2822 -1.5187
 3487TIP3    H234657   0.179   0.913   7.651  1.9026  0.5873 -0.0145
 3488TIP3   OH234658   2.353   3.274   8.609 -0.3986 -0.5844  0.2886
 3488TIP3    H134659   2.401   3.334   8.552 -0.2041 -0.3615  0.6799
 3488TIP3    H234660   2.370   3.187   8.573 -0.6252 -0.4083 -0.2414
 3489TIP3   OH234661   5.765   3.075   0.529 -0.0651  0.4841 -0.3297
 3489TIP3    H134662   5.795   3.018   0.458  1.8301  0.2465  0.6001
 3489TIP3    H234663   5.681   3.038   0.556  0.0059 -0.4304 -1.3206
 3490TIP3   OH234664   6.978   2.286   7.423 -0.0930 -0.4331 -0.2094
 3490TIP3    H134665   6.897   2.333   7.444  0.6011 -0.2460  2.3191
 3490TIP3    H234666   7.037   2.352   7.387 -0.4931 -0.2580 -0.5559
 3491TIP3   OH234667   4.705   1.635   6.361 -0.4773  0.3972 -0.4609
 3491TIP3    H134668   4.750   1.555   6.389 -1.4728  0.4012  1.3723
 3491TIP3    H234669   4.771   1.703   6.367  0.0087 -0.0607 -0.5837
 3492TIP3   OH234670   5.738   4.651   2.236  0.5575 -0.1261 -0.5856
 3492TIP3    H134671   5.762   4.731   2.283  0.8795 -0.4780 -0.1401
 3492TIP3    H234672   5.806   4.588   2.260 -0.8120 -1.1907  0.7688
 3493TIP3   OH234673   6.466   4.149   2.030 -0.3315 -0.0114 -0.0188
 3493TIP3    H134674   6.444   4.058   2.052  2.5395 -1.0217 -0.9461
 3493TIP3    H234675   6.481   4.148   1.935  1.4731  0.9686  0.2078
 3494TIP3   OH234676   0.059   4.987   8.388  0.1259  0.0300 -0.1656
 3494TIP3    H134677  -0.020   5.039   8.401 -0.6697 -1.8299  4.1537
 3494TIP3    H234678   0.131   5.050   8.393 -0.9266  1.2644 -0.0823
 3495TIP3   OH234679   1.993   4.946   8.757  0.4889  0.2245 -0.2318
 3495TIP3    H134680   2.009   4.856   8.728 -1.4020 -0.1432 -0.2765
 3495TIP3    H234681   1.978   4.938   8.851  1.2688  0.6478 -0.0649
 3496TIP3   OH234682   0.483   5.781   9.555 -0.2956 -0.0270  1.0378
 3496TIP3    H134683   0.450   5.692   9.563 -0.1853 -0.0484  1.2679
 3496TIP3    H234684   0.438   5.817   9.479  1.0458 -0.8949 -0.2207
 3497TIP3   OH234685   2.365   6.133   8.570  0.5814  0.1019 -0.6408
 3497TIP3    H134686   2.459   6.150   8.569  0.4287  1.0572 -0.4760
 3497TIP3    H234687   2.344   6.123   8.663  0.4830  0.1772 -0.6544
 3498TIP3   OH234688   5.884   0.081   1.295 -0.2586  0.3387  0.0046
 3498TIP3    H134689   5.976   0.073   1.272 -0.4917 -0.7703 -0.6342
 3498TIP3    H234690   5.882   0.064   1.390 -0.1119 -3.1821 -0.4642
 3499TIP3   OH234691   5.076   4.631   9.039 -0.3426 -0.2544  0.0228
 3499TIP3    H134692   5.120   4.562   9.088 -1.1728  0.1921  1.4700
 3499TIP3    H234693   4.999   4.589   9.002 -0.4203 -0.2972  0.2318
 3500TIP3   OH234694   2.253   6.856   2.171 -0.1752 -0.2752  0.4938
 3500TIP3    H134695   2.235   6.799   2.245  0.9917 -0.5792  0.5661
 3500TIP3    H234696   2.234   6.944   2.202 -0.0376 -0.4365  1.0322
 3501TIP3   OH234697   1.614   0.542   1.919  0.0425 -0.0956  0.4924
 3501TIP3    H134698   1.611   0.462   1.865 -0.7631 -0.5227  1.1452
 3501TIP3    H234699   1.558   0.604   1.872 -1.8453 -0.9407  1.5331
 3502TIP3   OH234700   4.733   0.937   0.784 -0.0208 -0.2961  0.3382
 3502TIP3    H134701   4.800   0.952   0.718 -0.1093  0.7579  0.4587
 3502TIP3    H234702   4.734   1.017   0.837  1.2321 -1.7600  2.6831
 3503TIP3   OH234703   7.400   4.033   2.697 -0.1579  0.5217  0.0635
 3503TIP3    H134704   7.494   4.029   2.718  0.5352  0.5950 -2.6294
 3503TIP3    H234705   7.385   4.126   2.678 -0.4015  0.2999 -0.8779
 3504TIP3   OH234706   7.266   0.520   8.272  0.2406 -0.1548 -0.1102
 3504TIP3    H134707   7.257   0.481   8.185 -0.7035  0.2917 -0.2291
 3504TIP3    H234708   7.355   0.553   8.274  0.4446 -0.6322 -0.7097
 3505TIP3   OH234709   0.964   0.495   8.044 -0.1487  0.5501 -0.5338
 3505TIP3    H134710   1.001   0.454   7.966  0.9590 -0.1086  0.3158
 3505TIP3    H234711   0.974   0.589   8.028  3.7772  0.4808  0.4035
 3506TIP3   OH234712   6.573   4.011   0.308 -0.0844  0.0119 -0.4281
 3506TIP3    H134713   6.601   4.039   0.395  0.8551  1.9557 -1.2883
 3506TIP3    H234714   6.622   3.930   0.292 -0.6129 -0.6207  1.0016
 3507TIP3   OH234715   4.380   0.499   2.210  0.3067  0.2092  0.8150
 3507TIP3    H134716   4.427   0.424   2.247 -0.2999 -0.1279  0.9107
 3507TIP3    H234717   4.310   0.517   2.272 -0.7356 -0.3797 -0.1600
 3508TIP3   OH234718   5.757   0.097   9.067 -0.1243  0.2541 -0.2862
 3508TIP3    H134719   5.773   0.009   9.101  2.3639  1.3488  1.6953
 3508TIP3    H234720   5.701   0.138   9.133 -2.0641 -0.0488 -1.6601
 3509TIP3   OH234721   5.784   5.181   1.165  0.9122  0.1259  0.1729
 3509TIP3    H134722   5.828   5.099   1.186  0.8801 -0.5266 -2.0055
 3509TIP3    H234723   5.693   5.157   1.152  0.8932  0.5012 -0.4539
 3510TIP3   OH234724   6.679   2.715   2.509  0.1136  0.3292 -0.4451
 3510TIP3    H134725   6.609   2.730   2.571  0.3851  1.6846 -0.4329
 3510TIP3    H234726   6.668   2.624   2.481 -0.3656 -0.1126  1.1169
 3511TIP3   OH234727   4.502   0.566   0.723  0.1340 -0.0798 -0.5743
 3511TIP3    H134728   4.521   0.613   0.804 -1.2023 -2.4344  1.2225
 3511TIP3    H234729   4.583   0.573   0.672  0.2372  3.4470 -0.1700
 3512TIP3   OH234730   6.253   0.027   8.178 -0.4032  0.1767 -0.5691
 3512TIP3    H134731   6.265   0.108   8.128 -1.4292 -0.3879 -1.8127
 3512TIP3    H234732   6.256   0.054   8.269  0.7491  1.3842 -0.9321
 3513TIP3   OH234733   4.278   6.172   2.801  0.0874 -0.0201  0.4682
 3513TIP3    H134734   4.366   6.202   2.822  0.2412 -1.3008  1.9059
 3513TIP3    H234735   4.260   6.104   2.866 -1.6358 -0.3918 -0.3256
 3514TIP3   OH234736   6.241   3.546   1.277  0.4216 -0.5084  0.4846
 3514TIP3    H134737   6.280   3.466   1.240  1.0663  1.1164 -2.6910
 3514TIP3    H234738   6.310   3.611   1.271 -0.9993  1.0307  0.1494
 3515TIP3   OH234739   0.018   5.323   2.291 -0.1053 -0.7449 -0.2065
 3515TIP3    H134740  -0.019   5.252   2.343 -1.8482  0.0074 -0.3271
 3515TIP3    H234741   0.042   5.282   2.208 -0.4030 -1.3237 -0.0143
 3516TIP3   OH234742   0.043   4.874   0.322 -0.4898  0.4678 -0.3327
 3516TIP3    H134743   0.077   4.958   0.292 -1.0590  0.4430 -1.0739
 3516TIP3    H234744  -0.051   4.880   0.309 -0.5239 -0.3278 -0.4979
 3517TIP3   OH234745   3.217   4.507   1.722  0.2087  0.3457 -0.6833
 3517TIP3    H134746   3.174   4.580   1.766 -2.0397 -1.5143  0.4514
 3517TIP3    H234747   3.215   4.530   1.630  2.5455  3.1028 -0.1917
 3518TIP3   OH234748   3.891   2.758   1.980  0.3738 -0.2587  0.2263
 3518TIP3    H134749   3.895   2.664   1.965 -2.1638 -0.0447 -2.6095
 3518TIP3    H234750   3.960   2.795   1.925  2.6415 -0.4098  2.7324
 3519TIP3   OH234751   3.573   3.828   1.196  0.4346 -0.6978 -0.2551
 3519TIP3    H134752   3.537   3.914   1.219  1.6692 -0.6107  1.5510
 3519TIP3    H234753   3.540   3.769   1.264 -0.0243 -1.5854 -1.2145
 3520TIP3   OH234754   6.728   3.271   7.413 -0.0287  0.3667 -0.3871
 3520TIP3    H134755   6.799   3.208   7.426  0.0694  0.0139 -2.2877
 3520TIP3    H234756   6.655   3.235   7.464  0.8628  0.2576  0.8651
 3521TIP3   OH234757   4.620   0.609   9.357 -0.3738  0.0326  0.2481
 3521TIP3    H134758   4.640   0.591   9.265 -0.7786 -2.1957  0.5506
 3521TIP3    H234759   4.689   0.564   9.406 -0.7008  0.4018  1.0661
 3522TIP3   OH234760   1.254   0.251   7.470 -0.4981  0.0359 -0.0122
 3522TIP3    H134761   1.207   0.227   7.550 -2.2018 -0.1099 -1.0064
 3522TIP3    H234762   1.193   0.230   7.399  0.8639  0.4087 -1.3463
 3523TIP3   OH234763   0.264   2.474   8.857 -0.5497  0.6263  0.1898
 3523TIP3    H134764   0.294   2.442   8.942 -2.1551  0.9021  0.8924
 3523TIP3    H234765   0.271   2.570   8.865 -1.0952  0.6704  0.1831
 3524TIP3   OH234766   3.965   4.213   7.640 -0.0360 -0.2713  0.4861
 3524TIP3    H134767   3.933   4.203   7.550 -0.7813 -1.2770  0.8519
 3524TIP3    H234768   3.885   4.218   7.693  0.4033 -0.2076  1.1500
 3525TIP3   OH234769   3.259   3.555   1.668  0.3354  0.0429 -0.0738
 3525TIP3    H134770   3.339   3.504   1.654 -0.3967 -0.6002 -2.3306
 3525TIP3    H234771   3.188   3.494   1.645 -0.7306  1.1108  0.2788
 3526TIP3   OH234772   7.173   4.560   7.581  0.3362  0.7399 -0.1606
 3526TIP3    H134773   7.128   4.633   7.625  0.5613  0.8899 -0.1757
 3526TIP3    H234774   7.224   4.602   7.511  0.7320  0.6043  0.0435
 3527TIP3   OH234775   0.277   6.783   9.482  0.4443  0.1798 -0.2896
 3527TIP3    H134776   0.266   6.740   9.567 -0.9044  1.3225  0.1697
 3527TIP3    H234777   0.340   6.853   9.499  1.5790 -0.7057 -0.7049
 3528TIP3   OH234778   4.853   5.053   9.143 -0.0849 -0.1241 -0.2488
 3528TIP3    H134779   4.850   5.112   9.219 -1.2088 -1.3213  0.6914
 3528TIP3    H234780   4.874   5.110   9.069 -1.3893  1.5174  0.5656
 3529TIP3   OH234781   6.615   5.887   1.214 -0.3436  0.3539  0.1096
 3529TIP3    H134782   6.709   5.866   1.218 -0.5593 -0.5212  1.2698
 3529TIP3    H234783   6.588   5.888   1.306 -1.7320 -0.6085 -0.2750
 3530TIP3   OH234784   4.573   2.911   7.376  0.5530 -0.1409  0.0698
 3530TIP3    H134785   4.623   2.980   7.417 -0.1142  1.4519 -1.6593
 3530TIP3    H234786   4.482   2.942   7.378  0.2552 -0.8793 -0.8857
 3531TIP3   OH234787   2.808   4.348   7.137  0.0898 -0.1013  0.6077
 3531TIP3    H134788   2.791   4.262   7.097  1.0221 -0.2902  0.5885
 3531TIP3    H234789   2.897   4.370   7.108 -0.8080  1.7777 -0.9840
 3532TIP3   OH234790   1.381   1.587   0.685 -0.1559  0.1465 -0.0011
 3532TIP3    H134791   1.400   1.525   0.614 -2.6532 -1.1279  0.3405
 3532TIP3    H234792   1.286   1.591   0.688 -0.0902  1.3722  2.2868
 3533TIP3   OH234793   0.218   1.648   7.815  0.1832  0.1781 -0.7653
 3533TIP3    H134794   0.243   1.563   7.779  2.3364  0.5098 -0.1879
 3533TIP3    H234795   0.263   1.711   7.760 -0.1421  0.8745 -0.2436
 3534TIP3   OH234796   0.713   0.103   7.095  0.2970 -0.0142 -0.3882
 3534TIP3    H134797   0.757   0.045   7.157 -1.5413 -1.2263 -0.1170
 3534TIP3    H234798   0.783   0.146   7.048  1.7453 -0.8809  0.8797
 3535TIP3   OH234799   0.552   6.107   9.341 -0.7502 -0.1838  0.7449
 3535TIP3    H134800   0.511   6.023   9.363 -2.7305  0.6045  0.2918
 3535TIP3    H234801   0.608   6.127   9.416  1.1335 -2.6640  0.1478
 3536TIP3   OH234802   3.125   4.121   8.355 -0.2820  0.1709 -0.4796
 3536TIP3    H134803   3.104   4.029   8.372 -2.7970  0.8297  0.4765
 3536TIP3    H234804   3.171   4.120   8.271  0.1700 -1.9824 -0.2758
 3537TIP3   OH234805   1.800   1.163   0.395 -0.2765  0.0209  0.5365
 3537TIP3    H134806   1.737   1.227   0.361 -2.4338 -1.2861  1.8488
 3537TIP3    H234807   1.829   1.114   0.319  0.2161  1.4917 -0.2679
 3538TIP3   OH234808   3.737   1.649   2.902 -0.5194 -0.1871 -0.0476
 3538TIP3    H134809   3.658   1.629   2.851 -0.4643 -0.2649 -0.1026
 3538TIP3    H234810   3.782   1.716   2.851 -0.0362 -0.8593 -0.5359
 3539TIP3   OH234811   5.834   6.115   6.432  0.6958  0.2065  0.4066
 3539TIP3    H134812   5.913   6.098   6.381  0.5458  0.8352 -0.0360
 3539TIP3    H234813   5.866   6.131   6.521  0.9717 -0.7015  0.4808
 3540TIP3   OH234814   3.060   0.154   7.205 -0.2363  0.3547  0.0183
 3540TIP3    H134815   2.981   0.204   7.182  0.1464  1.2545  0.5798
 3540TIP3    H234816   3.029   0.085   7.264 -0.6956  0.2988 -0.2879
 3541TIP3   OH234817   5.525   4.285   9.659  0.2417  0.3297 -0.8289
 3541TIP3    H134818   5.475   4.350   9.707  0.8227  0.0281  0.2084
 3541TIP3    H234819   5.582   4.244   9.725  0.3531 -0.7706 -1.5749
 3542TIP3   OH234820   0.100   5.516   9.540  0.0688 -0.2668 -0.5233
 3542TIP3    H134821   0.072   5.539   9.452 -0.6532  1.4429  0.1091
 3542TIP3    H234822   0.031   5.549   9.597  0.6345 -1.1221  0.7148
 3543TIP3   OH234823   1.553   1.858   8.119  0.3620  0.3477  0.0103
 3543TIP3    H134824   1.643   1.853   8.151  0.1297  1.0836  0.8259
 3543TIP3    H234825   1.514   1.773   8.142  0.8653 -0.0001 -0.4157
 3544TIP3   OH234826   6.584   4.139   0.814 -0.0499 -0.0242 -0.2744
 3544TIP3    H134827   6.498   4.107   0.841  0.3096 -0.5027  0.3551
 3544TIP3    H234828   6.571   4.231   0.792 -0.3796  0.3922  1.5486
 3545TIP3   OH234829   0.079   0.747   1.237  0.1460  0.1462 -0.4307
 3545TIP3    H134830   0.049   0.695   1.162  1.0191 -0.3977 -0.4219
 3545TIP3    H234831   0.174   0.736   1.237  0.1367 -0.1812  0.9745
 3546TIP3   OH234832   3.424   7.259   8.081 -0.0034  0.4150 -0.6293
 3546TIP3    H134833   3.469   7.298   8.006  1.7380  1.8374  1.0404
 3546TIP3    H234834   3.398   7.334   8.135 -5.6267 -0.1581 -1.9167
 3547TIP3   OH234835   6.636   5.963   9.380 -0.0855 -0.1411 -0.2110
 3547TIP3    H134836   6.626   6.058   9.386  1.8776  0.2489 -2.0727
 3547TIP3    H234837   6.690   5.949   9.302 -0.5002 -2.8126 -0.1180
 3548TIP3   OH234838   6.569   1.798   0.630 -0.2954  0.3768  0.0553
 3548TIP3    H134839   6.633   1.761   0.690 -0.9691 -2.0588 -0.6328
 3548TIP3    H234840   6.621   1.851   0.569  0.7605  0.3011  0.8710
 3549TIP3   OH234841   2.934   2.996   0.294  0.1923 -0.0333 -0.2683
 3549TIP3    H134842   2.940   3.080   0.249 -0.1028 -0.6002 -1.4032
 3549TIP3    H234843   2.961   3.014   0.383  1.0778  1.0717 -0.7461
 3550TIP3   OH234844   6.929   4.663   8.379  0.5969  0.0371  0.1768
 3550TIP3    H134845   6.869   4.603   8.335  1.6489  0.2362 -1.6003
 3550TIP3    H234846   6.998   4.608   8.415  0.0389 -0.0689  1.1178
 3551TIP3   OH234847   4.583   2.386   0.522 -0.3552 -0.3236  0.1756
 3551TIP3    H134848   4.653   2.451   0.522 -1.4306  0.8841  0.9987
 3551TIP3    H234849   4.590   2.344   0.608 -0.6159 -0.2126  0.2530
 3552TIP3   OH234850   1.286   1.498   2.165 -0.5054 -0.0449  0.2188
 3552TIP3    H134851   1.305   1.502   2.259 -0.8946 -0.9168  0.3419
 3552TIP3    H234852   1.366   1.462   2.126  0.4453  2.1793 -0.0683
 3553TIP3   OH234853   2.027   7.006   9.300  0.1489  0.0506  0.0825
 3553TIP3    H134854   1.991   7.082   9.254 -2.5704 -0.3599  1.3302
 3553TIP3    H234855   2.037   7.035   9.391  1.0080 -0.4859  0.1674
 3554TIP3   OH234856   0.560   6.022   8.606  0.1331  0.6291 -0.6630
 3554TIP3    H134857   0.468   6.044   8.589 -0.5192 -0.9357  0.5464
 3554TIP3    H234858   0.587   6.083   8.674 -0.8320 -0.4694  0.7694
 3555TIP3   OH234859   5.393   4.537   8.809 -0.2317 -0.2399  0.3932
 3555TIP3    H134860   5.359   4.452   8.837 -2.2191  0.6323  0.7572
 3555TIP3    H234861   5.426   4.521   8.720  1.0260 -1.7523  1.0844
 3556TIP3   OH234862   1.637   3.466   9.193 -0.1063  0.7055 -0.7470
 3556TIP3    H134863   1.560   3.522   9.199 -0.7685 -0.3485  1.1022
 3556TIP3    H234864   1.635   3.432   9.103 -1.0472  1.7017 -1.1215
 3557TIP3   OH234865   4.071   4.301   2.127 -0.6420 -0.3315  0.3566
 3557TIP3    H134866   3.992   4.304   2.073 -0.8223 -0.9263  0.5805
 3557TIP3    H234867   4.128   4.237   2.083 -0.0319  0.5392 -0.1383
 3558TIP3   OH234868   5.558   7.304   0.884 -0.0152 -0.1870 -0.1629
 3558TIP3    H134869   5.483   7.278   0.830 -0.0323  0.6148 -0.5445
 3558TIP3    H234870   5.588   7.386   0.844  0.0141  0.3961  1.0075
 3559TIP3   OH234871   2.690   2.272   2.941 -0.1769 -0.0537  0.4511
 3559TIP3    H134872   2.649   2.357   2.925 -0.1980  0.0346  0.9702
 3559TIP3    H234873   2.622   2.209   2.916 -0.3002  0.0824  0.4387
 3560TIP3   OH234874   2.452   0.523   2.498 -0.5443  0.2225 -0.0753
 3560TIP3    H134875   2.544   0.551   2.497 -0.5602  0.3069 -1.2804
 3560TIP3    H234876   2.416   0.559   2.417 -1.4268 -0.5258 -0.0260
 3561TIP3   OH234877   3.671   1.585   0.918  0.0439 -0.2080 -0.2021
 3561TIP3    H134878   3.751   1.631   0.891 -0.1057 -0.6414 -1.4786
 3561TIP3    H234879   3.602   1.622   0.863 -0.8758  0.9506  1.6675
 3562TIP3   OH234880   5.795   2.172   9.485  0.4273 -0.2558 -0.1788
 3562TIP3    H134881   5.825   2.113   9.554 -1.4042 -0.5984  0.3645
 3562TIP3    H234882   5.876   2.211   9.451  1.3868  0.2016  2.3702
 3563TIP3   OH234883   1.806   1.627   0.012 -0.4365  0.6644  0.3298
 3563TIP3    H134884   1.825   1.557  -0.051  0.5296  1.5284 -0.3649
 3563TIP3    H234885   1.770   1.698  -0.041 -0.7777  0.9500  0.9323
 3564TIP3   OH234886   2.764   1.905   7.120 -0.1085 -0.0048 -0.1670
 3564TIP3    H134887   2.796   1.869   7.202  0.5055 -0.4370 -0.5947
 3564TIP3    H234888   2.780   1.837   7.055 -1.6027 -0.1258 -0.4635
 3565TIP3   OH234889   3.913   5.356   2.337  0.6251  0.0569  0.3900
 3565TIP3    H134890   3.890   5.430   2.394 -0.7650 -0.2878  0.3230
 3565TIP3    H234891   3.960   5.296   2.394 -0.1898  0.0065  1.0298
 3566TIP3   OH234892   6.482   0.929   8.703  0.2411  0.6462  0.3190
 3566TIP3    H134893   6.434   0.926   8.786  0.9898  0.9341  0.7775
 3566TIP3    H234894   6.436   0.868   8.646  0.3351 -0.3655  1.2910
 3567TIP3   OH234895   2.794   3.670   0.307  0.3378 -0.0432  0.5245
 3567TIP3    H134896   2.704   3.698   0.290  0.7741  1.3821  0.3894
 3567TIP3    H234897   2.791   3.628   0.393 -0.2515  1.0622  1.0637
 3568TIP3   OH234898   6.993   3.170   7.764  0.5440  0.2526 -0.7107
 3568TIP3    H134899   6.992   3.113   7.841  0.0691 -0.1066 -0.9793
 3568TIP3    H234900   7.030   3.252   7.796  0.7834 -0.0461 -0.2065
 3569TIP3   OH234901   4.570   1.157   6.818  0.9830  0.5728  0.1298
 3569TIP3    H134902   4.562   1.137   6.725 -1.8187  3.0463 -0.2708
 3569TIP3    H234903   4.521   1.087   6.862  0.5635  0.5209 -0.4146
 3570TIP3   OH234904   0.837   1.435   8.472  0.2371 -0.2111 -0.2069
 3570TIP3    H134905   0.900   1.388   8.527  0.1800 -0.2123 -0.1423
 3570TIP3    H234906   0.862   1.527   8.482  0.3318 -0.2258 -0.3121
 3571TIP3   OH234907   6.422   0.334   2.560  1.0518 -0.0450  0.1213
 3571TIP3    H134908   6.467   0.390   2.623  0.1038 -1.8338  2.5274
 3571TIP3    H234909   6.399   0.393   2.488  1.2214  2.3599  1.9244
 3572TIP3   OH234910   2.385   3.245   7.494  0.0026 -0.1915 -0.1666
 3572TIP3    H134911   2.403   3.194   7.415 -0.3980 -0.4256 -0.1098
 3572TIP3    H234912   2.467   3.241   7.544  0.3853  0.2697 -0.7339
 3573TIP3   OH234913   3.999   2.440   8.847  0.0708 -0.5207  0.5576
 3573TIP3    H134914   3.991   2.347   8.824  1.8089 -0.5713  0.0848
 3573TIP3    H234915   4.041   2.440   8.933 -1.4675 -0.1851  1.3457
 3574TIP3   OH234916   3.092   5.092   6.541  0.1362  0.0197  0.0478
 3574TIP3    H134917   3.020   5.096   6.479  0.3315  0.6970 -0.1436
 3574TIP3    H234918   3.068   5.155   6.609  0.5518  0.2492 -0.0186
 3575TIP3   OH234919   2.315   4.669   2.228 -0.0945  0.6619 -0.1398
 3575TIP3    H134920   2.305   4.764   2.218  0.6226  0.7451 -0.1217
 3575TIP3    H234921   2.384   4.645   2.166 -0.1509  0.1784 -0.0199
 3576TIP3   OH234922   1.932   4.790   2.581 -0.1994 -0.4859  0.2301
 3576TIP3    H134923   1.925   4.872   2.532  0.7992 -1.8281 -2.3858
 3576TIP3    H234924   2.021   4.760   2.563 -1.1642 -3.0916 -0.6045
 3577TIP3   OH234925   2.515   4.850   7.096 -0.4112  0.4459 -0.1239
 3577TIP3    H134926   2.584   4.917   7.091  0.3656 -0.3528 -0.2885
 3577TIP3    H234927   2.440   4.896   7.134  0.2202  1.3227  0.0918
 3578TIP3   OH234928   1.171   4.592   7.780  0.2215  0.2888  0.1864
 3578TIP3    H134929   1.166   4.553   7.693  1.4572 -0.0837  0.2587
 3578TIP3    H234930   1.144   4.683   7.767 -2.1071 -0.3980 -0.0912
 3579TIP3   OH234931   0.107   1.235   9.230  0.0915 -0.3204 -0.1531
 3579TIP3    H134932   0.089   1.306   9.292 -0.4796 -1.3345  0.8875
 3579TIP3    H234933   0.151   1.277   9.157 -0.4714  1.1488  0.3188
 3580TIP3   OH234934   5.563   0.824   7.384  0.1215 -0.6049  0.2710
 3580TIP3    H134935   5.555   0.919   7.384 -1.6402 -0.6837  1.6014
 3580TIP3    H234936   5.529   0.797   7.298  2.1091 -0.0032 -0.7544
 3581TIP3   OH234937   4.351   1.973   1.563  0.6288 -0.0366 -0.2175
 3581TIP3    H134938   4.420   1.928   1.515 -1.6830 -2.1196 -1.8947
 3581TIP3    H234939   4.303   2.022   1.496 -0.1386  0.5309  0.7186
 3582TIP3   OH234940   1.846   1.744   8.940  0.5620 -0.1819 -0.2684
 3582TIP3    H134941   1.888   1.736   8.854 -1.4220 -0.3724 -1.2694
 3582TIP3    H234942   1.851   1.656   8.978  0.4913 -0.3557 -0.6611
 3583TIP3   OH234943   6.434   6.233   0.142 -0.5152 -0.3860 -0.6042
 3583TIP3    H134944   6.407   6.319   0.173  0.4450 -0.1285 -0.4418
 3583TIP3    H234945   6.441   6.180   0.222  0.7093 -0.0794 -0.4841
 3584TIP3   OH234946   2.343   3.953   8.838 -0.6853 -0.9569  0.1655
 3584TIP3    H134947   2.396   3.953   8.918  0.7903 -1.0040 -0.7622
 3584TIP3    H234948   2.258   3.987   8.865  0.2413  0.4805  1.4705
 3585TIP3   OH234949   5.841   4.833   7.544  0.0500 -0.0993  0.9356
 3585TIP3    H134950   5.933   4.843   7.569 -0.2357  1.9333  1.4032
 3585TIP3    H234951   5.809   4.923   7.536 -1.9268 -0.7562  0.8928
 3586TIP3   OH234952   0.744   5.450   9.533 -0.1349 -0.2711 -0.3422
 3586TIP3    H134953   0.768   5.451   9.625 -1.3405  1.4972 -0.0048
 3586TIP3    H234954   0.655   5.415   9.532 -0.2871  0.1184 -0.7816
 3587TIP3   OH234955   4.844   2.340   6.896  0.7732  0.5258 -0.1173
 3587TIP3    H134956   4.769   2.352   6.838 -0.2029 -0.4882  0.9003
 3587TIP3    H234957   4.913   2.393   6.856 -0.3222  1.0912 -1.3428
 3588TIP3   OH234958   5.484   6.547   9.498  0.0134  0.1223 -0.1962
 3588TIP3    H134959   5.518   6.498   9.423 -2.0993 -1.9128  0.0471
 3588TIP3    H234960   5.515   6.499   9.574  0.9843  1.3728  0.2281
 3589TIP3   OH234961   7.285   5.846   0.476  0.0933 -0.5124  0.3584
 3589TIP3    H134962   7.337   5.766   0.484 -0.0224 -0.4952  1.4293
 3589TIP3    H234963   7.213   5.834   0.539  0.0670  0.4210  0.5212
 3590TIP3   OH234964   4.578   7.396   8.990 -1.0473  0.3769  0.3063
 3590TIP3    H134965   4.597   7.316   8.941 -0.0055  0.0666  1.1849
 3590TIP3    H234966   4.490   7.420   8.962 -1.4702 -1.1935  0.1702
 3591TIP3   OH234967   6.302   2.163   1.986  0.1227  0.0885  0.1953
 3591TIP3    H134968   6.325   2.148   2.078  0.5428 -1.7616 -0.1794
 3591TIP3    H234969   6.369   2.224   1.955  0.2334  0.3880  0.9946
 3592TIP3   OH234970   5.113   0.412   8.030 -0.2247  0.0330  0.0179
 3592TIP3    H134971   5.066   0.445   8.107  1.3488  0.3753  0.8796
 3592TIP3    H234972   5.096   0.477   7.962 -0.5095  0.4626  0.4934
 3593TIP3   OH234973   6.883   3.561   9.110  0.1966  0.4714  0.1723
 3593TIP3    H134974   6.866   3.468   9.091 -1.4178  0.9750 -1.0363
 3593TIP3    H234975   6.800   3.594   9.144  0.5503  1.6464 -0.0597
 3594TIP3   OH234976   4.444   3.934   9.436  0.0514 -0.1495 -0.4384
 3594TIP3    H134977   4.483   3.856   9.476 -0.0756  0.6138  1.2320
 3594TIP3    H234978   4.427   3.993   9.509 -0.4772  1.1905 -1.5972
 3595TIP3   OH234979   4.692   3.967   9.614 -0.2730 -0.2715  0.7040
 3595TIP3    H134980   4.711   4.051   9.655 -1.0597  0.7923 -1.0310
 3595TIP3    H234981   4.616   3.934   9.661 -2.0455  1.5934 -0.6919
 3596TIP3   OH234982   4.228   3.296   0.902 -0.4034  0.0310  0.3065
 3596TIP3    H134983   4.195   3.207   0.892  0.1668 -0.2518  0.8791
 3596TIP3    H234984   4.155   3.352   0.875 -0.6439 -0.6081 -0.4036
 3597TIP3   OH234985   5.549   1.970   7.486 -0.3510  0.1728 -0.5251
 3597TIP3    H134986   5.586   1.931   7.407 -2.6440 -2.9488 -0.2219
 3597TIP3    H234987   5.496   2.043   7.454  2.1556  1.7782 -1.3391
 3598TIP3   OH234988   5.344   6.726   7.230  0.5913 -0.0492 -0.3019
 3598TIP3    H134989   5.266   6.773   7.261  1.9645  2.7405 -0.7961
 3598TIP3    H234990   5.321   6.633   7.241 -2.6261  0.6386 -0.0748
 3599TIP3   OH234991   5.831   1.446   7.027 -0.3482  0.1302  0.4378
 3599TIP3    H134992   5.910   1.483   6.986  0.1578 -0.1374  1.1417
 3599TIP3    H234993   5.855   1.356   7.046 -0.8487  0.0336  0.6032
 3600TIP3   OH234994   5.542   1.059   9.072 -0.2591  0.2976  0.1044
 3600TIP3    H134995   5.573   0.996   9.137  0.4967  0.0760 -0.4490
 3600TIP3    H234996   5.602   1.047   8.997 -0.9377  0.7349 -0.5192
 3601TIP3   OH234997   3.016   3.121   9.144  0.1224 -0.1962 -0.0585
 3601TIP3    H134998   3.028   3.055   9.075  3.1579 -1.4466  1.4524
 3601TIP3    H234999   2.922   3.124   9.158 -0.3546 -2.0962 -2.1731
 3602TIP3   OH235000   6.353   3.392   9.538 -0.0061  0.0508  0.0889
 3602TIP3    H135001   6.273   3.375   9.488 -0.6123 -0.2225  1.1086
 3602TIP3    H235002   6.416   3.329   9.504 -0.1504  0.4159 -0.8800
 3603TIP3   OH235003   0.241   1.798   8.469 -0.6184 -0.2044  0.0938
 3603TIP3    H135004   0.149   1.778   8.452 -0.7660  0.9904 -0.6064
 3603TIP3    H235005   0.262   1.747   8.548 -1.2151 -2.2886 -0.9970
 3604TIP3   OH235006   6.709   3.344   0.741  0.4083  0.2807  0.3147
 3604TIP3    H135007   6.705   3.254   0.773 -0.5721  0.6232  1.1925
 3604TIP3    H235008   6.798   3.372   0.761  0.2745 -0.0171  1.3956
 3605TIP3   OH235009   0.719   4.331   1.812 -0.3064  0.6571 -0.5442
 3605TIP3    H135010   0.636   4.342   1.766 -1.3935 -0.0803  1.1112
 3605TIP3    H235011   0.740   4.418   1.845 -0.9658  0.6803 -0.1569
 3606TIP3   OH235012   6.996   6.547   7.530  0.2579 -0.1616 -0.1722
 3606TIP3    H135013   6.954   6.607   7.593  1.1108 -0.6783  0.9333
 3606TIP3    H235014   6.927   6.486   7.505 -0.3497  0.6438 -0.4984
 3607TIP3   OH235015   6.874   1.484   6.383  0.1521  0.2455  0.1150
 3607TIP3    H135016   6.841   1.556   6.437  0.9793  0.3846  0.4473
 3607TIP3    H235017   6.953   1.454   6.429  0.3320 -0.2623 -0.5132
 3608TIP3   OH235018   4.288   5.323   1.834 -0.9055  0.4056 -0.1219
 3608TIP3    H135019   4.381   5.307   1.849 -0.9740 -0.2279 -0.3442
 3608TIP3    H235020   4.268   5.400   1.887 -0.4769 -0.0268  0.6763
 3609TIP3   OH235021   4.046   4.586   6.959  0.2645 -0.3296  0.3118
 3609TIP3    H135022   4.058   4.602   6.865  0.5583 -1.9128  0.0509
 3609TIP3    H235023   4.121   4.534   6.984  0.8231  1.0641  1.7356
 3610TIP3   OH235024   1.703   1.710   7.454 -0.9591 -0.8824 -0.2774
 3610TIP3    H135025   1.730   1.670   7.537  0.7298  0.7719  0.0350
 3610TIP3    H235026   1.651   1.642   7.410  0.1796 -2.6875  1.0357
 3611TIP3   OH235027   0.582   6.352   1.375  0.3016 -0.5629  0.1646
 3611TIP3    H135028   0.678   6.360   1.376  0.2312  0.5143 -0.5577
 3611TIP3    H235029   0.551   6.434   1.337 -1.0499  0.1895  2.6408
 3612TIP3   OH235030   2.151   3.737   9.350  0.2127  1.5296  0.1715
 3612TIP3    H135031   2.191   3.681   9.283 -0.7567  0.6707  0.2781
 3612TIP3    H235032   2.198   3.716   9.430 -1.2806 -0.5245  0.6011
 3613TIP3   OH235033   2.357   1.044   2.183 -0.0912 -0.3998  0.1989
 3613TIP3    H135034   2.327   1.123   2.226 -0.4976  0.0709 -0.8964
 3613TIP3    H235035   2.383   0.986   2.254  1.0762  1.0392  0.9873
 3614TIP3   OH235036   7.021   0.072   7.249 -0.1787 -0.1294  0.1255
 3614TIP3    H135037   7.066  -0.003   7.287 -2.4081 -0.4436  2.4490
 3614TIP3    H235038   7.029   0.140   7.317  1.3991  1.6848 -1.7288
 3615TIP3   OH235039   7.053   6.945   6.991  0.1398 -0.2279 -0.5999
 3615TIP3    H135040   7.068   6.850   6.994  0.4203 -0.1662  0.0051
 3615TIP3    H235041   7.058   6.966   6.897  0.2704 -0.7776 -0.7252
 3616TIP3   OH235042   5.617   5.851   2.757 -0.4743  0.7555  0.1520
 3616TIP3    H135043   5.628   5.758   2.778  0.5142  1.0118  0.8380
 3616TIP3    H235044   5.700   5.891   2.783 -0.6801  1.7425 -0.6707
 3617TIP3   OH235045   2.600   0.036   8.058  0.7260 -0.4664 -0.1743
 3617TIP3    H135046   2.651   0.030   7.977 -0.1239  1.3570 -0.9053
 3617TIP3    H235047   2.526   0.092   8.036 -0.2116 -0.9494  1.5503
 3618TIP3   OH235048   1.554   7.381   7.883  0.6238  0.1054  0.6019
 3618TIP3    H135049   1.553   7.437   7.805  1.6421 -2.8436 -1.7187
 3618TIP3    H235050   1.603   7.431   7.948  0.7635  2.2170 -1.0268
 3619TIP3   OH235051   4.341   2.694   2.642 -0.3548 -0.3596  0.1475
 3619TIP3    H135052   4.248   2.694   2.665 -0.5268 -0.5939 -0.5129
 3619TIP3    H235053   4.370   2.605   2.660  0.2022  0.1673  2.0668
 3620TIP3   OH235054   0.726   0.294   9.321 -0.0842 -0.0808  0.6931
 3620TIP3    H135055   0.700   0.386   9.323  0.5842  0.1964 -1.0197
 3620TIP3    H235056   0.742   0.271   9.412 -2.0472  0.9564  1.3549
 3621TIP3   OH235057   2.685   0.288   1.424 -0.6919  0.5594 -0.1359
 3621TIP3    H135058   2.612   0.270   1.364  0.7765 -0.8058 -1.5970
 3621TIP3    H235059   2.740   0.351   1.377  0.6131 -0.7315 -0.3976
 3622TIP3   OH235060   7.325   5.381   1.791  0.1096  0.0353 -0.3865
 3622TIP3    H135061   7.393   5.447   1.794  0.4841 -0.3645  1.0888
 3622TIP3    H235062   7.243   5.430   1.796  0.3772  0.4286  0.3757
 3623TIP3   OH235063   6.344   0.699   8.249  0.8025  0.0816 -0.2404
 3623TIP3    H135064   6.282   0.678   8.180  0.7414 -0.6060  0.0095
 3623TIP3    H235065   6.302   0.767   8.301  0.8399  0.5874 -0.8575
 3624TIP3   OH235066   2.663   5.543   0.322 -0.1638  0.2931  0.3091
 3624TIP3    H135067   2.647   5.637   0.319  1.6968  0.6489 -1.8291
 3624TIP3    H235068   2.759   5.536   0.326 -0.0564 -1.4126 -2.5588
 3625TIP3   OH235069   1.478   3.184   6.739 -0.3350  0.5230 -0.2940
 3625TIP3    H135070   1.394   3.150   6.768 -0.3990  1.2210  0.3621
 3625TIP3    H235071   1.470   3.279   6.748  0.8790  0.5570  0.7988
 3626TIP3   OH235072   0.336   6.032   8.814 -0.1293 -0.0311  0.3004
 3626TIP3    H135073   0.285   5.985   8.747 -1.3229  1.0872  0.3901
 3626TIP3    H235074   0.391   5.964   8.854  1.7441 -0.5253 -2.7749
 3627TIP3   OH235075   5.389   3.072   1.802 -0.1841 -0.1650  0.1182
 3627TIP3    H135076   5.410   2.983   1.829 -0.9102 -0.1592  0.7389
 3627TIP3    H235077   5.343   3.061   1.719  0.8497 -0.2740 -0.4542
 3628TIP3   OH235078   0.852   3.238   9.529  0.2318 -0.1493 -0.6199
 3628TIP3    H135079   0.783   3.300   9.550 -0.9511 -1.5976 -0.0575
 3628TIP3    H235080   0.920   3.291   9.488 -0.1955  1.7120  0.9250
 3629TIP3   OH235081   6.980   3.451   0.743 -0.1915  0.1806 -0.0546
 3629TIP3    H135082   6.968   3.505   0.665  0.4889 -1.8031 -1.6243
 3629TIP3    H235083   7.047   3.387   0.718 -0.0980 -0.6612  2.1097
 3630TIP3   OH235084   1.786   2.664   8.344 -0.0158 -0.1177  0.1810
 3630TIP3    H135085   1.718   2.620   8.294 -0.7184 -0.3300  1.2833
 3630TIP3    H235086   1.744   2.742   8.380  0.4227 -0.0593  0.5878
 3631TIP3   OH235087   4.215   4.619   2.069 -0.3974  0.2975  0.6009
 3631TIP3    H135088   4.183   4.650   2.153 -0.1019  0.0624  0.8009
 3631TIP3    H235089   4.236   4.699   2.021  0.8271  0.4131  1.2959
 3632TIP3   OH235090   7.203   0.691   7.072 -0.7033  0.5686 -0.0659
 3632TIP3    H135091   7.233   0.760   7.014  0.5885 -0.2591 -0.4369
 3632TIP3    H235092   7.275   0.680   7.135  0.3552 -2.1197 -1.5436
 3633TIP3   OH235093   6.575   5.382   1.138  0.1935  1.4812  0.0268
 3633TIP3    H135094   6.554   5.346   1.052  1.2645 -1.1302  0.7618
 3633TIP3    H235095   6.660   5.423   1.127  1.2500 -0.5320  0.1752
 3634TIP3   OH235096   6.586   2.036   1.224 -0.2329  0.2383  0.4518
 3634TIP3    H135097   6.584   2.068   1.134  3.1230 -0.0144  0.1793
 3634TIP3    H235098   6.616   2.111   1.275  0.8658 -0.4702  0.8682
 3635TIP3   OH235099   2.602   0.035   8.510 -0.2184  0.5013 -0.1069
 3635TIP3    H135100   2.529   0.092   8.534 -0.7748 -0.1873 -0.1185
 3635TIP3    H235101   2.662   0.040   8.584 -0.6581  0.4694  0.2612
 3636TIP3   OH235102   2.774   0.521   0.672  0.3098 -0.2087 -0.1062
 3636TIP3    H135103   2.816   0.500   0.755  0.5464  1.9362  0.3818
 3636TIP3    H235104   2.836   0.491   0.605  0.8114 -0.6052  0.5266
 3637TIP3   OH235105   2.628   2.751   9.149  0.1648  0.6781  0.4037
 3637TIP3    H135106   2.577   2.780   9.225 -0.9869 -1.8164  0.6929
 3637TIP3    H235107   2.567   2.759   9.075  0.0870 -0.2034  0.3646
 3638TIP3   OH235108   5.514   1.626   1.998 -0.0115 -0.0265  0.5022
 3638TIP3    H135109   5.508   1.600   2.090 -1.7215  1.9924  1.0428
 3638TIP3    H235110   5.424   1.647   1.974  0.6366  0.9283 -1.1847
 3639TIP3   OH235111   1.936   5.556   7.264 -0.0400  0.1380  0.3618
 3639TIP3    H135112   1.867   5.585   7.324  0.3627  1.2161  0.3290
 3639TIP3    H235113   2.015   5.552   7.318  0.2526  0.7650 -0.0063
 3640TIP3   OH235114   4.479   3.745   2.987  0.0899 -0.6061  0.3481
 3640TIP3    H135115   4.479   3.839   2.971 -0.8455 -0.4774  1.0477
 3640TIP3    H235116   4.402   3.729   3.041  1.0753 -1.5563  1.5473
 3641TIP3   OH235117   3.005   0.300   2.255 -0.2309  0.0730  0.2273
 3641TIP3    H135118   3.041   0.343   2.177 -0.7051  1.8902  0.9623
 3641TIP3    H235119   2.984   0.372   2.315  1.0419 -1.2885  2.4658
 3642TIP3   OH235120   1.707   2.673   9.087 -0.1256 -0.1528  0.1639
 3642TIP3    H135121   1.657   2.659   9.168 -0.3301  0.9040  0.2412
 3642TIP3    H235122   1.787   2.717   9.117 -0.0807 -0.0031 -0.1754
 3643TIP3   OH235123   1.276   0.655   1.909  0.0764  0.1563  0.7146
 3643TIP3    H135124   1.198   0.698   1.874 -0.5134 -1.4202 -0.0203
 3643TIP3    H235125   1.347   0.684   1.852  0.2607  2.3429  1.9523
 3644TIP3   OH235126   6.539   0.366   7.007 -0.6229 -0.5420  0.2929
 3644TIP3    H135127   6.461   0.333   6.963 -0.4618 -2.5324  1.3699
 3644TIP3    H235128   6.546   0.313   7.086  1.8150 -0.4269  0.2288
 3645TIP3   OH235129   6.262   7.386   9.355  0.0404 -0.5344  0.0497
 3645TIP3    H135130   6.227   7.322   9.293 -3.0197  0.7648  0.3048
 3645TIP3    H235131   6.284   7.462   9.301 -2.6250  0.5977  0.4525
 3646TIP3   OH235132   5.761   2.217   7.448 -0.2396  0.1425  0.1309
 3646TIP3    H135133   5.813   2.139   7.469 -0.6837 -0.1556  0.1451
 3646TIP3    H235134   5.699   2.186   7.381  0.0667  0.6656 -0.4004
 3647TIP3   OH235135   6.646   0.887   9.469 -0.1321  0.3145  0.3447
 3647TIP3    H135136   6.709   0.839   9.524 -0.6973 -0.7831  0.0628
 3647TIP3    H235137   6.596   0.819   9.425 -0.1957  1.1809 -0.9705
 3648TIP3   OH235138   7.322   5.229   8.055  0.3347 -0.2066 -0.1563
 3648TIP3    H135139   7.309   5.149   8.106  0.4115  0.2730  0.6358
 3648TIP3    H235140   7.273   5.296   8.102 -0.1015  0.1261 -1.0602
 3649TIP3   OH235141   1.566   5.516   1.728 -0.1115 -0.1704  0.2584
 3649TIP3    H135142   1.603   5.462   1.799  2.1368 -0.2667 -0.8961
 3649TIP3    H235143   1.608   5.601   1.738 -1.7787  0.6551  0.5737
 3650TIP3   OH235144   2.177   6.222   7.796  0.1878 -0.5902  0.6071
 3650TIP3    H135145   2.227   6.143   7.777 -1.5491 -1.4301 -0.7959
 3650TIP3    H235146   2.097   6.190   7.838 -0.1806  0.5067  0.7761
 3651TIP3   OH235147   5.630   0.447   1.657 -0.4489 -0.6003  0.4506
 3651TIP3    H135148   5.683   0.429   1.580  2.5630  0.8223  2.0157
 3651TIP3    H235149   5.612   0.541   1.652 -0.2924 -0.5072  1.4215
 3652TIP3   OH235150   0.915   7.402   7.986  0.9459 -0.2642  0.3967
 3652TIP3    H135151   0.851   7.440   8.046  0.3785  0.1749 -0.4837
 3652TIP3    H235152   0.865   7.379   7.908  1.4596 -1.8827  0.4976
 3653TIP3   OH235153   6.512   7.310   7.781  0.4762  0.5900  0.0643
 3653TIP3    H135154   6.565   7.231   7.791  1.7662  1.7138  3.2446
 3653TIP3    H235155   6.428   7.289   7.822  0.9774  0.9741  1.3132
 3654TIP3   OH235156   5.377   1.289   1.602 -0.5031 -1.0919  0.2257
 3654TIP3    H135157   5.402   1.198   1.587  1.0656 -0.6250 -0.1599
 3654TIP3    H235158   5.459   1.339   1.594 -1.3829  0.4044  0.0261
 3655TIP3   OH235159   6.288   4.308   3.059 -0.2472  0.0819  0.2696
 3655TIP3    H135160   6.312   4.335   2.971  0.3716 -0.5840  0.2292
 3655TIP3    H235161   6.205   4.354   3.076 -1.0513 -0.7625 -1.1389
 3656TIP3   OH235162   0.755   2.926   1.954 -0.1481  0.0540 -0.1022
 3656TIP3    H135163   0.831   2.867   1.958 -0.3032 -0.2459 -1.3060
 3656TIP3    H235164   0.793   3.013   1.941 -0.0195 -0.2964 -2.4650
 3657TIP3   OH235165   5.588   0.968   2.555 -0.4116  0.2771 -0.0987
 3657TIP3    H135166   5.552   0.918   2.628 -0.8776  0.2091 -0.3746
 3657TIP3    H235167   5.682   0.949   2.557 -0.3705  0.5159  0.6695
 3658TIP3   OH235168   2.293   4.990   9.629  0.0429 -0.1313 -0.1620
 3658TIP3    H135169   2.314   4.897   9.643 -1.4076 -0.3881  0.5275
 3658TIP3    H235170   2.313   5.032   9.713  0.2354  0.0922 -0.3195
 3659TIP3   OH235171   6.550   5.494   8.308  0.1462 -0.2526  0.2219
 3659TIP3    H135172   6.486   5.462   8.371  1.8713 -0.8041  1.7937
 3659TIP3    H235173   6.577   5.579   8.343 -0.4708  0.4693 -0.9986
 3660TIP3   OH235174   5.608   6.572   8.299 -0.2665 -0.1345 -0.2786
 3660TIP3    H135175   5.597   6.550   8.391  2.0690  1.1040  0.3560
 3660TIP3    H235176   5.573   6.661   8.291  0.6655  0.2385 -0.2963
 3661TIP3   OH235177   3.792   0.876   1.066  0.7038  0.0213  0.3992
 3661TIP3    H135178   3.791   0.782   1.083 -0.7699  0.0783  0.7910
 3661TIP3    H235179   3.772   0.884   0.973  0.3021 -0.0500  0.4757
 3662TIP3   OH235180   5.803   6.540   1.139 -0.3462  0.6739  0.3146
 3662TIP3    H135181   5.858   6.616   1.122  0.4491 -0.1777 -1.0703
 3662TIP3    H235182   5.790   6.541   1.234  2.6928  0.5316  0.8488
 3663TIP3   OH235183   2.342   4.098   1.859  0.1230  0.3144  0.1297
 3663TIP3    H135184   2.300   4.039   1.797  0.4353 -0.9248  1.0744
 3663TIP3    H235185   2.351   4.181   1.810 -0.8186 -0.2309 -1.0180
 3664TIP3   OH235186   6.684   5.389   6.692 -0.3076  0.1847  0.2794
 3664TIP3    H135187   6.627   5.343   6.753  1.0295 -1.3286  0.4392
 3664TIP3    H235188   6.717   5.464   6.741 -0.0916 -0.4156  1.0608
 3665TIP3   OH235189   7.369   6.606   1.044  0.5338 -0.0870 -0.6130
 3665TIP3    H135190   7.457   6.596   1.007  1.1589  0.0636  0.7371
 3665TIP3    H235191   7.339   6.691   1.013  1.3317  0.3542 -0.2236
 3666TIP3   OH235192   2.855   1.006   7.502  0.8789  0.3722 -0.0501
 3666TIP3    H135193   2.776   1.008   7.448  0.1002 -0.9306  0.9903
 3666TIP3    H235194   2.856   1.091   7.545 -1.1006 -0.2927  1.4555
 3667TIP3   OH235195   4.828   0.855   8.386  0.2057 -0.0718  0.2961
 3667TIP3    H135196   4.819   0.908   8.464 -0.5229  0.4914 -0.1621
 3667TIP3    H235197   4.830   0.765   8.418 -0.4983  0.1331  0.9321
 3668TIP3   OH235198   3.135   5.121   1.819  0.2963 -0.3904  0.3080
 3668TIP3    H135199   3.226   5.152   1.824  0.4777 -0.5437 -1.5432
 3668TIP3    H235200   3.142   5.032   1.784 -0.5671 -0.4368  0.2406
 3669TIP3   OH235201   1.016   3.978   8.438  0.1316 -0.3580  0.4331
 3669TIP3    H135202   0.990   4.066   8.412  1.6379 -0.1865 -0.6134
 3669TIP3    H235203   0.990   3.971   8.530 -0.3412  1.0416  0.4190
 3670TIP3   OH235204   4.855   6.451   1.393 -0.0163  0.2347 -0.2181
 3670TIP3    H135205   4.931   6.496   1.430  0.7427 -0.6254 -0.6930
 3670TIP3    H235206   4.826   6.509   1.322 -0.1232  0.8138  0.2937
 3671TIP3   OH235207   5.712   4.058   9.414  0.2972  0.5718  0.4100
 3671TIP3    H135208   5.749   3.993   9.354  0.5438 -0.6250  1.8076
 3671TIP3    H235209   5.659   4.115   9.358 -1.3311 -1.8344 -0.6686
 3672TIP3   OH235210   4.327   4.147   0.775  0.9525 -0.3134  0.3766
 3672TIP3    H135211   4.329   4.190   0.689  0.3440 -0.4290  0.3023
 3672TIP3    H235212   4.272   4.069   0.762  1.9782 -1.0950  0.5240
 3673TIP3   OH235213   5.874   2.896   2.038  0.3093  0.4382 -0.3378
 3673TIP3    H135214   5.782   2.914   2.059  0.9287  0.9714  2.2943
 3673TIP3    H235215   5.908   2.851   2.116  2.1577 -0.2329 -1.4772
 3674TIP3   OH235216   6.663   5.945   6.846 -0.4388 -0.2221 -0.4824
 3674TIP3    H135217   6.659   6.028   6.799 -2.4030 -0.4189 -0.7387
 3674TIP3    H235218   6.752   5.913   6.831  0.6470  2.1941  0.3055
 3675TIP3   OH235219   0.466   6.899   0.063  0.1129 -0.2328  0.2060
 3675TIP3    H135220   0.469   6.841   0.139  1.1847 -0.3924  0.0546
 3675TIP3    H235221   0.426   6.979   0.095  0.7921 -0.2043  1.0055
 3676TIP3   OH235222   7.018   5.998   1.778 -0.0516 -0.7531 -1.0067
 3676TIP3    H135223   7.046   5.941   1.707 -1.2020 -2.0136 -0.4992
 3676TIP3    H235224   6.976   6.072   1.735 -1.1048 -1.6970 -1.6539
 3677TIP3   OH235225   4.051   3.907   1.942 -0.7844  0.4072 -0.4633
 3677TIP3    H135226   4.058   3.985   1.998 -1.2676  0.4737 -0.4889
 3677TIP3    H235227   3.964   3.873   1.961 -0.9487  0.4314 -1.1812
 3678TIP3   OH235228   2.240   4.113   7.382  0.5803  0.2015 -0.8026
 3678TIP3    H135229   2.225   4.037   7.325  0.1418 -1.7398  1.6978
 3678TIP3    H235230   2.332   4.135   7.370  0.4659 -0.0514 -2.3239
 3679TIP3   OH235231   7.341   2.138   8.293 -0.2019  0.9736 -0.4288
 3679TIP3    H135232   7.343   2.057   8.242 -0.0547  0.2669  0.6549
 3679TIP3    H235233   7.278   2.194   8.248 -1.6924 -0.4453 -0.2091
 3680TIP3   OH235234   4.640   0.706   1.803 -0.0718  0.1343 -0.9655
 3680TIP3    H135235   4.616   0.776   1.743 -3.6950 -0.2406 -0.1567
 3680TIP3    H235236   4.719   0.738   1.847  0.8276  1.7819 -3.5479
 3681TIP3   OH235237   7.104   3.738   7.744 -0.7359 -0.4288 -0.4627
 3681TIP3    H135238   7.184   3.782   7.774 -1.6930  0.6288  0.6440
 3681TIP3    H235239   7.135   3.658   7.702  0.9140  0.0586 -0.2488
 3682TIP3   OH235240   4.230   0.828   0.000 -0.2033  0.3870  0.1728
 3682TIP3    H135241   4.294   0.894  -0.028  1.2920 -0.6374  0.9893
 3682TIP3    H235242   4.257   0.806   0.090  0.0158 -2.0653 -0.4116
 3683TIP3   OH235243   2.246   0.645   9.349 -0.5873 -0.1539 -0.4374
 3683TIP3    H135244   2.183   0.577   9.323  1.2153 -1.4153 -1.7554
 3683TIP3    H235245   2.192   0.723   9.364 -2.3979 -0.9129 -2.4522
 3684TIP3   OH235246   6.548   2.845   9.503  0.0398  0.0245 -0.0852
 3684TIP3    H135247   6.496   2.831   9.583  0.7652  0.9767  0.5667
 3684TIP3    H235248   6.620   2.783   9.511  1.1843  1.4349  0.9752
 3685TIP3   OH235249   1.238   1.739   2.873 -0.3125  0.9903 -0.6459
 3685TIP3    H135250   1.201   1.661   2.833 -0.0824 -0.1071  1.1728
 3685TIP3    H235251   1.298   1.706   2.940 -0.0090  2.7282  0.0068
 3686TIP3   OH235252   1.025   2.416   7.478 -0.2476  0.0408 -0.1581
 3686TIP3    H135253   0.982   2.487   7.431 -0.0448  0.8067  0.7678
 3686TIP3    H235254   1.117   2.442   7.481 -0.0344 -0.6638 -0.5128
 3687TIP3   OH235255   1.595   5.499   2.293  0.0581 -0.0177 -0.0130
 3687TIP3    H135256   1.669   5.554   2.319 -0.1414  1.0190 -1.5005
 3687TIP3    H235257   1.632   5.410   2.288  0.8477  0.2605  0.5874
 3688TIP3   OH235258   1.022   1.278   6.600 -0.1372 -0.1002  0.1292
 3688TIP3    H135259   1.028   1.316   6.512 -0.5025  0.6918  0.4402
 3688TIP3    H235260   0.996   1.351   6.656 -1.8585 -1.0199  0.5920
 3689TIP3   OH235261   4.184   6.216   6.936  0.2282 -0.6921  0.0517
 3689TIP3    H135262   4.239   6.284   6.896 -1.3543  0.5329 -0.1729
 3689TIP3    H235263   4.172   6.246   7.026 -2.4581  0.7226 -0.6786
 3690TIP3   OH235264   3.775   6.786   6.856 -0.4096 -0.5772  0.4575
 3690TIP3    H135265   3.753   6.873   6.823 -0.3246 -0.7021  0.0706
 3690TIP3    H235266   3.692   6.738   6.855 -0.1904 -0.9567 -0.7239
 3691TIP3   OH235267   1.977   6.846   1.914 -0.3933 -0.0675  0.1335
 3691TIP3    H135268   1.885   6.874   1.922 -0.5652 -0.2230 -1.1280
 3691TIP3    H235269   2.020   6.918   1.867 -0.1118 -0.4677 -0.2287
 3692TIP3   OH235270   1.863   2.069   7.583 -0.3371 -0.7135 -0.3261
 3692TIP3    H135271   1.893   1.984   7.548 -1.0783 -1.4047  0.6660
 3692TIP3    H235272   1.776   2.080   7.545 -0.3161 -0.4793 -0.3035
 3693TIP3   OH235273   1.378   4.933   8.703  0.3267 -0.1145  0.2943
 3693TIP3    H135274   1.473   4.924   8.708  0.2900 -0.9967 -0.5018
 3693TIP3    H235275   1.345   4.875   8.772  0.3430 -0.1257  0.2926
 3694TIP3   OH235276   1.969   3.279   2.330  0.0696 -0.7203  0.0196
 3694TIP3    H135277   2.048   3.329   2.309 -0.4611  0.5877  0.9916
 3694TIP3    H235278   1.955   3.295   2.423 -1.1892 -1.1624 -0.0813
 3695TIP3   OH235279   0.594   6.599   1.866 -0.8956 -0.2328  0.7511
 3695TIP3    H135280   0.541   6.558   1.798  0.3836 -0.3081 -0.2242
 3695TIP3    H235281   0.651   6.660   1.820 -0.1423 -0.1350  1.7665
 3696TIP3   OH235282   4.530   2.412   9.011  0.3440 -0.3076  0.0996
 3696TIP3    H135283   4.566   2.364   8.936 -0.3718  0.8479 -1.0309
 3696TIP3    H235284   4.493   2.492   8.972 -1.0014 -0.1839  1.5463
 3697TIP3   OH235285   2.266   0.586   2.088  0.3011 -0.1425  0.0833
 3697TIP3    H135286   2.338   0.592   2.151  0.9251 -1.2058 -0.5018
 3697TIP3    H235287   2.304   0.541   2.013 -0.7984 -0.0922 -0.5226
 3698TIP3   OH235288   2.419   0.128   2.977 -0.3409 -0.0438  0.7748
 3698TIP3    H135289   2.475   0.102   2.904  0.0642 -0.7721  1.3322
 3698TIP3    H235290   2.364   0.198   2.941 -0.6055 -0.8250 -0.4106
 3699TIP3   OH235291   0.339   2.805   9.461 -0.1532 -0.0178 -0.5720
 3699TIP3    H135292   0.265   2.860   9.435  1.3414  1.9415 -0.8973
 3699TIP3    H235293   0.366   2.839   9.546  1.0497  0.0643 -0.9614
 3700TIP3   OH235294   2.513   2.093   2.623 -0.1011  0.0724  0.1423
 3700TIP3    H135295   2.599   2.131   2.636  0.6573 -1.2030 -0.9413
 3700TIP3    H235296   2.518   2.049   2.538 -1.0763 -1.9559  1.0599
 3701TIP3   OH235297   0.760   6.967   1.355 -0.0802  0.0215  0.1054
 3701TIP3    H135298   0.852   6.968   1.327 -0.3911  1.0209 -1.0031
 3701TIP3    H235299   0.719   6.901   1.299 -0.2136  0.2495 -0.0678
 3702TIP3   OH235300   2.233   6.103   1.711  0.8382 -0.5649 -0.2999
 3702TIP3    H135301   2.315   6.147   1.689  0.4325 -0.7458 -2.3809
 3702TIP3    H235302   2.169   6.173   1.720  1.0553 -0.4734  0.5976
 3703TIP3   OH235303   4.494   4.521   7.739 -0.1157  1.0739 -0.6049
 3703TIP3    H135304   4.534   4.434   7.745  0.2637  1.3350  1.3419
 3703TIP3    H235305   4.445   4.519   7.657  1.2555 -0.3791 -1.4530
 3704TIP3   OH235306   5.440   5.749   8.531  0.5911 -0.1215 -0.1804
 3704TIP3    H135307   5.480   5.747   8.618  1.0651  1.6791 -0.3135
 3704TIP3    H235308   5.361   5.802   8.542  1.1783  0.9676 -1.0190
 3705TIP3   OH235309   0.353   3.536   6.758 -0.0781 -0.2639  0.1076
 3705TIP3    H135310   0.262   3.545   6.730 -0.0472  0.9132  0.3254
 3705TIP3    H235311   0.349   3.529   6.853  0.1752  3.0102  0.4717
 3706TIP3   OH235312   0.767   3.532   8.621 -0.4674 -0.0354 -0.1414
 3706TIP3    H135313   0.713   3.462   8.584  0.4046 -0.1181 -1.2956
 3706TIP3    H235314   0.823   3.560   8.549  1.2654 -0.1675  1.0968
 3707TIP3   OH235315   3.591   6.458   2.425  0.6091  0.0854  0.3438
 3707TIP3    H135316   3.599   6.510   2.504  1.6360 -0.1655  0.4208
 3707TIP3    H235317   3.682   6.441   2.398  0.2807 -0.4700 -0.4571
 3708TIP3   OH235318   2.537   2.104   1.633 -0.5271  0.6658 -0.1795
 3708TIP3    H135319   2.589   2.025   1.620 -1.0589  0.4643 -1.1981
 3708TIP3    H235320   2.526   2.111   1.728 -1.0622 -0.8593 -0.1146
 3709TIP3   OH235321   1.405   1.348   8.897  0.0175 -0.1726  0.7015
 3709TIP3    H135322   1.476   1.411   8.902  0.4451 -0.4245 -1.3394
 3709TIP3    H235323   1.325   1.401   8.894  0.3981  0.3742 -1.5467
 3710TIP3   OH235324   1.289   2.031   7.401  0.4767 -0.4200  0.6133
 3710TIP3    H135325   1.248   2.087   7.467  1.7538  0.2142  0.9105
 3710TIP3    H235326   1.290   2.084   7.321  2.1957  0.2565  1.0366
 3711TIP3   OH235327   3.433   0.446   8.500  0.0872 -0.0639 -0.1015
 3711TIP3    H135328   3.338   0.445   8.486 -0.3295 -1.6433  2.2580
 3711TIP3    H235329   3.460   0.357   8.478  0.5923 -0.3311  1.5069
 3712TIP3   OH235330   2.041   1.314   7.111 -0.3602 -0.3889  0.0574
 3712TIP3    H135331   2.002   1.242   7.162 -2.1921 -0.2043 -0.9787
 3712TIP3    H235332   1.981   1.388   7.125 -0.0568  0.0963 -1.1174
 3713TIP3   OH235333   4.692   0.381   0.886 -0.1298 -0.0537  0.6899
 3713TIP3    H135334   4.767   0.435   0.861 -0.2558 -0.0181  0.3844
 3713TIP3    H235335   4.695   0.306   0.826  0.7108 -0.9850  1.8449
 3714TIP3   OH235336   6.772   5.220   9.105 -0.6052 -0.1280  0.5779
 3714TIP3    H135337   6.796   5.232   9.197 -1.2135  0.1080  0.7115
 3714TIP3    H235338   6.681   5.192   9.108 -0.5539 -0.3603  0.0533
 3715TIP3   OH235339   5.162   3.943   9.117 -0.1194 -0.4461 -0.0217
 3715TIP3    H135340   5.133   3.961   9.207  0.0606 -1.1368  0.1805
 3715TIP3    H235341   5.253   3.971   9.115 -0.1329 -0.4015  0.0073
 3716TIP3   OH235342   2.633   6.486   8.323 -0.0112 -0.1791  0.3650
 3716TIP3    H135343   2.544   6.490   8.359  0.0891 -1.0108  0.7356
 3716TIP3    H235344   2.651   6.392   8.315  0.9449 -0.0201  0.5475
 3717TIP3   OH235345   2.589   5.857   6.831 -0.1691  0.2746 -0.4666
 3717TIP3    H135346   2.674   5.839   6.790  0.7275  0.0119  1.3919
 3717TIP3    H235347   2.593   5.949   6.854 -0.4167  0.2781 -0.4414
 3718TIP3   OH235348   4.846   5.247   0.927 -0.2241 -0.2977  0.3027
 3718TIP3    H135349   4.936   5.246   0.895 -0.6209  0.9112 -0.9864
 3718TIP3    H235350   4.833   5.337   0.958 -1.4057 -0.0285 -0.8908
 3719TIP3   OH235351   6.817   0.274   7.329 -0.3071  1.0360 -0.5921
 3719TIP3    H135352   6.728   0.251   7.303 -0.0418  0.7475 -1.2487
 3719TIP3    H235353   6.819   0.257   7.423  0.0072 -2.0815 -1.0796
 3720TIP3   OH235354   2.213   0.869   1.262 -0.2126 -0.2488  0.6082
 3720TIP3    H135355   2.119   0.851   1.256 -0.0092 -1.8381  1.7386
 3720TIP3    H235356   2.222   0.922   1.341 -0.1209 -0.2126  0.5741
 3721TIP3   OH235357   1.356   3.186   2.497 -0.1666 -0.0294  0.1825
 3721TIP3    H135358   1.363   3.254   2.431 -0.6893  0.2156  0.3776
 3721TIP3    H235359   1.359   3.232   2.581  0.3993 -0.3279  0.3327
 3722TIP3   OH235360   6.158   5.844   1.234  0.0591 -0.0215 -0.0365
 3722TIP3    H135361   6.195   5.861   1.147 -0.1284 -0.0363 -0.1198
 3722TIP3    H235362   6.068   5.817   1.217 -0.0301  0.1375  0.1740
 3723TIP3   OH235363   0.650   3.730   1.800 -0.3885 -0.4638  0.1560
 3723TIP3    H135364   0.644   3.819   1.836  0.2623  0.1526 -1.2183
 3723TIP3    H235365   0.597   3.733   1.720 -0.4851 -1.3598  0.1812
 3724TIP3   OH235366   3.895   7.100   9.178  0.2900  1.1001  0.1321
 3724TIP3    H135367   3.948   7.033   9.223 -1.3655 -0.0408  0.4677
 3724TIP3    H235368   3.831   7.128   9.243  0.1039  2.0364 -0.4427
 3725TIP3   OH235369   0.612   6.038   2.698  0.1969  1.2726 -0.1029
 3725TIP3    H135370   0.574   6.089   2.769  1.2065  0.3770  1.1322
 3725TIP3    H235371   0.571   5.952   2.706 -0.0927  1.3184 -0.9744
 3726TIP3   OH235372   5.254   3.323   0.748  0.7613 -0.3110  0.3682
 3726TIP3    H135373   5.206   3.401   0.723  1.1362 -0.4373 -0.8183
 3726TIP3    H235374   5.322   3.355   0.807  0.3572  0.1295  0.5983
 3727TIP3   OH235375   6.171   4.130   2.268  0.2214  0.3218  0.2196
 3727TIP3    H135376   6.161   4.074   2.191  1.2707 -0.0555  0.3399
 3727TIP3    H235377   6.236   4.195   2.242 -0.3415  0.9608  0.3794
 3728TIP3   OH235378   4.117   5.333   2.889  0.0014  0.3274  0.5734
 3728TIP3    H135379   4.095   5.271   2.819  0.0672  0.6139  0.2948
 3728TIP3    H235380   4.185   5.288   2.939 -0.8205 -0.3383  1.1214
 3729TIP3   OH235381   2.726   5.790   0.706  0.1642  0.7785  0.4280
 3729TIP3    H135382   2.804   5.789   0.762 -0.1132  1.7873  0.8433
 3729TIP3    H235383   2.653   5.806   0.765 -0.2261  1.0463 -0.1124
 3730TIP3   OH235384   1.991   4.980   9.499 -0.0862  0.0509  0.1595
 3730TIP3    H135385   2.062   5.041   9.479 -0.0742  0.4531  1.3722
 3730TIP3    H235386   1.920   5.035   9.530 -1.0984 -0.3157 -1.3852
 3731TIP3   OH235387   2.252   4.233   2.832  0.1822  0.0778 -0.0415
 3731TIP3    H135388   2.238   4.139   2.846  2.1427 -0.3313 -0.4007
 3731TIP3    H235389   2.348   4.242   2.828  0.0246  2.0332 -0.4704
 3732TIP3   OH235390   0.699   5.410   1.210 -0.0898 -0.5271 -0.1372
 3732TIP3    H135391   0.621   5.444   1.253  0.5518  1.1971 -0.2511
 3732TIP3    H235392   0.754   5.378   1.281 -0.0243  0.1726  0.1336
 3733TIP3   OH235393   5.338   0.986   2.441 -0.4831 -0.1793 -0.2257
 3733TIP3    H135394   5.334   1.069   2.488  0.6140  0.1933 -0.7622
 3733TIP3    H235395   5.423   0.948   2.466  0.1774  0.0740 -1.9445
 3734TIP3   OH235396   0.689   5.538   9.090  0.3333 -0.4627  0.2463
 3734TIP3    H135397   0.710   5.631   9.098  0.1821 -0.1946 -1.8627
 3734TIP3    H235398   0.766   5.499   9.049 -0.0401 -1.0482  0.0777
 3735TIP3   OH235399   1.763   3.384   1.368 -0.3740 -0.2280  0.0866
 3735TIP3    H135400   1.681   3.384   1.317 -0.0432 -2.7276 -0.5931
 3735TIP3    H235401   1.741   3.338   1.449 -0.0488  0.6591  0.6874
 3736TIP3   OH235402   5.558   6.636   8.920 -0.0426 -0.1142  0.2160
 3736TIP3    H135403   5.623   6.604   8.982 -1.5813 -1.1929  1.3359
 3736TIP3    H235404   5.476   6.639   8.969 -0.7814  1.6935 -1.0076
 3737TIP3   OH235405   1.333   0.389   3.053  0.1847 -0.1725  0.7758
 3737TIP3    H135406   1.418   0.346   3.049 -0.3924 -1.4015  1.1122
 3737TIP3    H235407   1.347   0.474   3.011  1.3218 -0.7673 -0.1346
 3738TIP3   OH235408   2.383   2.402   2.701 -0.1617  0.0364  0.1196
 3738TIP3    H135409   2.379   2.320   2.750 -2.8573 -0.5174 -0.8561
 3738TIP3    H235410   2.324   2.461   2.748  2.3883  1.8342  1.3145
 3739TIP3   OH235411   3.411   0.918   0.942 -0.0190 -0.4606 -0.0185
 3739TIP3    H135412   3.471   0.988   0.916  0.3733 -1.1778 -1.1469
 3739TIP3    H235413   3.404   0.927   1.037  0.9610  0.3627  0.0060
 3740TIP3   OH235414   3.194   4.552   6.834  0.4193 -0.1347  0.2185
 3740TIP3    H135415   3.243   4.609   6.775 -0.4923 -1.5657 -2.0316
 3740TIP3    H235416   3.223   4.463   6.812 -2.5602 -0.9948 -0.7311
 3741TIP3   OH235417   2.405   3.318   0.016 -0.1385  0.0285 -0.7363
 3741TIP3    H135418   2.463   3.351   0.084  1.5639 -0.3011 -1.9637
 3741TIP3    H235419   2.412   3.382  -0.055 -0.1915 -0.7308 -1.4431
 3742TIP3   OH235420   3.940   3.639   8.159 -0.0173 -0.2661 -0.0568
 3742TIP3    H135421   3.897   3.603   8.082  1.0431 -3.2613  0.6250
 3742TIP3    H235422   3.907   3.587   8.232  0.1463  1.4820  1.3323
 3743TIP3   OH235423   0.563   6.001   2.440  0.0614 -0.3786 -0.1716
 3743TIP3    H135424   0.585   6.016   2.532 -1.4655 -0.6108  0.2613
 3743TIP3    H235425   0.484   6.053   2.426 -0.7764 -1.7808 -0.8296
 3744TIP3   OH235426   6.300   0.128   8.430  0.1002  0.1425  0.0032
 3744TIP3    H135427   6.247   0.206   8.419  0.6562  0.3450 -1.3415
 3744TIP3    H235428   6.376   0.157   8.481 -0.4788  0.1040  0.9092
 3745TIP3   OH235429   1.994   0.735   8.363  0.2440 -0.6683 -0.4330
 3745TIP3    H135430   2.056   0.748   8.434  0.3697 -1.1995 -0.4427
 3745TIP3    H235431   2.028   0.789   8.292  0.6578 -0.8915 -0.4121
 3746TIP3   OH235432   5.354   0.298   6.777  0.1497 -0.1080 -0.9697
 3746TIP3    H135433   5.330   0.227   6.836 -0.8256  1.5000  0.6817
 3746TIP3    H235434   5.449   0.298   6.777  0.2417  0.6713  1.7916
 3747TIP3   OH235435   0.611   6.205   8.814 -0.1725 -0.6342  0.2878
 3747TIP3    H135436   0.537   6.196   8.874 -0.4749 -2.2432 -0.2704
 3747TIP3    H235437   0.688   6.206   8.870 -0.5860  3.5132  1.0961
 3748TIP3   OH235438   0.739   5.319   1.918  0.1235  0.2394 -0.2563
 3748TIP3    H135439   0.710   5.394   1.970 -1.3838 -1.2944  1.2217
 3748TIP3    H235440   0.664   5.260   1.915  0.7253 -0.5660 -2.7398
 3749TIP3   OH235441   5.739   0.589   8.762  0.3035 -0.1546 -0.5239
 3749TIP3    H135442   5.686   0.575   8.684  0.2368 -0.2509 -0.4620
 3749TIP3    H235443   5.676   0.585   8.834  0.2737  0.5360 -0.5082
 3750TIP3   OH235444   1.580   6.610   1.470  0.6529 -0.2863 -0.0413
 3750TIP3    H135445   1.575   6.614   1.375  2.3535 -0.9269 -0.1960
 3750TIP3    H235446   1.582   6.701   1.498 -1.6014 -0.0604 -0.4630
 3751TIP3   OH235447   3.117   4.066   9.303 -0.0301  0.2673  0.7405
 3751TIP3    H135448   3.056   4.139   9.295 -2.4205 -1.6145  0.2396
 3751TIP3    H235449   3.177   4.075   9.229 -2.5183 -0.1340 -1.4871
 3752TIP3   OH235450   6.424   2.274   7.619  0.4355  0.1438  0.1049
 3752TIP3    H135451   6.341   2.227   7.615 -0.2449  1.1733  1.3281
 3752TIP3    H235452   6.404   2.361   7.583  0.5037  0.9756  1.9320
 3753TIP3   OH235453   6.195   5.508   0.424  0.1338  0.0701 -0.8128
 3753TIP3    H135454   6.167   5.430   0.472  3.3764 -0.6504  0.1405
 3753TIP3    H235455   6.146   5.580   0.465  0.6590 -0.8914  1.6844
 3754TIP3   OH235456   1.390   3.032   0.753 -0.6205 -0.1299 -0.2099
 3754TIP3    H135457   1.430   2.956   0.711 -0.4823 -0.7515  1.0132
 3754TIP3    H235458   1.394   3.013   0.847 -2.2436  0.5601  0.0369
 3755TIP3   OH235459   3.180   7.341   7.942  0.1798  0.3159  0.2237
 3755TIP3    H135460   3.158   7.431   7.967  0.7981  0.1237  1.5355
 3755TIP3    H235461   3.248   7.314   8.004 -0.5536 -1.3304  0.3837
 3756TIP3   OH235462   7.021   0.545   8.889  0.5069  0.0331  0.2607
 3756TIP3    H135463   7.045   0.507   8.974  1.5973  3.0821  1.4432
 3756TIP3    H235464   7.101   0.540   8.838  0.4867  0.1972  0.2133
 3757TIP3   OH235465   5.918   4.530   6.727  0.7693  0.4016 -0.5903
 3757TIP3    H135466   5.948   4.510   6.638  0.3823  0.9826 -0.8580
 3757TIP3    H235467   5.991   4.504   6.783  0.2994 -1.8092 -0.8844
 3758TIP3   OH235468   6.617   0.237   0.020  0.0258  0.0086 -0.3526
 3758TIP3    H135469   6.637   0.221   0.113 -2.5891 -1.1855  0.0886
 3758TIP3    H235470   6.526   0.209   0.010 -0.3774  1.8851 -2.8796
 3759TIP3   OH235471   2.275   1.878   0.478 -0.2634  0.4638  0.9633
 3759TIP3    H135472   2.190   1.916   0.502 -0.2314  1.1968 -0.0246
 3759TIP3    H235473   2.256   1.785   0.463 -0.7651  0.4982  1.3405
 3760TIP3   OH235474   4.262   1.856   0.907 -0.5059  0.5310 -0.5930
 3760TIP3    H135475   4.238   1.929   0.850  0.4348  0.4305 -1.1334
 3760TIP3    H235476   4.321   1.895   0.972 -1.6815  0.6776  0.4333
 3761TIP3   OH235477   2.055   6.343   9.377 -0.1892  0.0543 -0.1079
 3761TIP3    H135478   2.018   6.415   9.327 -0.7496 -0.5545 -0.5852
 3761TIP3    H235479   2.105   6.292   9.313  0.7996  0.4101  0.3689
 3762TIP3   OH235480   6.301   4.512   9.224  0.2403  0.2417  0.1626
 3762TIP3    H135481   6.303   4.475   9.312 -0.0753  4.1814  2.0517
 3762TIP3    H235482   6.226   4.571   9.225  0.6631  0.9459 -2.5321
 3763TIP3   OH235483   5.399   0.896   1.698 -0.5538 -0.0507  0.3280
 3763TIP3    H135484   5.394   0.866   1.789 -1.3690 -0.8542  0.0344
 3763TIP3    H235485   5.341   0.972   1.694  0.6967  0.9595  0.8279
 3764TIP3   OH235486   6.286   5.899   2.839 -0.2009  0.2519 -0.3237
 3764TIP3    H135487   6.286   5.994   2.833 -0.7541  0.4590  2.0005
 3764TIP3    H235488   6.238   5.880   2.919  2.2460 -1.8723  0.7757
 3765TIP3   OH235489   4.418   2.091   2.372 -0.1806  0.7659  0.2832
 3765TIP3    H135490   4.414   2.174   2.420  0.1690  0.5369  0.7164
 3765TIP3    H235491   4.358   2.033   2.420 -0.1987  0.6808  0.1592
 3766TIP3   OH235492   0.417   4.708   8.079  0.5688 -0.0344 -0.3405
 3766TIP3    H135493   0.473   4.632   8.065  1.7373  0.7561 -0.1493
 3766TIP3    H235494   0.358   4.709   8.004  1.0982 -0.6547 -0.7750
 3767TIP3   OH235495   5.452   4.098   7.592 -0.2341 -0.2915 -0.3137
 3767TIP3    H135496   5.528   4.101   7.650 -1.4026  2.3194  1.2558
 3767TIP3    H235497   5.441   4.188   7.563 -3.0367 -0.4509 -0.0125
 3768TIP3   OH235498   6.155   0.763   0.583  0.6109 -0.3271 -0.2979
 3768TIP3    H135499   6.213   0.689   0.602  0.1085 -0.7570 -0.4022
 3768TIP3    H235500   6.071   0.722   0.560 -0.0965  0.3065  1.0397
 3769TIP3   OH235501   3.419   4.865   1.975  0.0845  0.6792 -0.1956
 3769TIP3    H135502   3.379   4.929   2.035 -1.0556 -1.9255  1.9994
 3769TIP3    H235503   3.513   4.878   1.986 -0.1058  0.6350  1.8079
 3770TIP3   OH235504   7.203   7.194   1.920  0.4206  0.0251  0.6310
 3770TIP3    H135505   7.170   7.163   1.836  1.2354  1.3749 -0.2362
 3770TIP3    H235506   7.209   7.116   1.975 -0.3683 -0.8439 -0.4811
 3771TIP3   OH235507   3.139   5.765   9.036 -0.3954  0.1804  0.0598
 3771TIP3    H135508   3.228   5.732   9.027 -0.6262 -0.5317  0.3794
 3771TIP3    H235509   3.096   5.705   9.096 -1.4333 -0.1615 -0.9875
 3772TIP3   OH235510   0.420   0.804   7.443  0.4762 -0.0103  0.3526
 3772TIP3    H135511   0.500   0.839   7.404  0.3489 -1.0372 -0.8975
 3772TIP3    H235512   0.440   0.712   7.462  0.0624  0.1044  1.4058
 3773TIP3   OH235513   0.977   2.855   8.080 -0.0162 -0.5049 -0.1060
 3773TIP3    H135514   0.971   2.759   8.088  0.2367 -0.7619 -2.2954
 3773TIP3    H235515   0.890   2.886   8.104 -1.0447 -1.5788 -2.1486
 3774TIP3   OH235516   0.325   2.267   1.578  0.1843  0.7254  0.0480
 3774TIP3    H135517   0.406   2.310   1.605  0.5600 -0.1193  0.3266
 3774TIP3    H235518   0.285   2.327   1.516  0.6586  1.4855  0.4611
 3775TIP3   OH235519   4.598   2.903   2.670 -0.2983  0.5159 -0.3496
 3775TIP3    H135520   4.558   2.861   2.746  0.5914 -0.1882 -0.2578
 3775TIP3    H235521   4.602   2.996   2.694  0.9198  0.1758  0.9323
 3776TIP3   OH235522   2.201   6.341   7.521 -0.1887  0.0603  0.5672
 3776TIP3    H135523   2.195   6.300   7.608 -0.3923  1.0074  1.0053
 3776TIP3    H235524   2.281   6.305   7.484 -0.3547 -0.7378  0.9391
 3777TIP3   OH235525   6.486   2.364   1.910  0.0775  0.6271  0.5233
 3777TIP3    H135526   6.497   2.408   1.826 -3.0591  2.8113  1.1068
 3777TIP3    H235527   6.565   2.388   1.959  1.0201  0.9715 -1.0661
 3778TIP3   OH235528   0.483   1.159   0.582 -0.2395  0.6710  0.2204
 3778TIP3    H135529   0.471   1.090   0.517  2.3086  0.2026  0.1324
 3778TIP3    H235530   0.493   1.239   0.530  1.9599  0.2734 -0.0884
 3779TIP3   OH235531   7.049   2.396   6.812 -0.0295  0.2625 -0.7185
 3779TIP3    H135532   7.139   2.400   6.844 -0.1762 -1.3560 -0.0226
 3779TIP3    H235533   7.045   2.315   6.761 -1.4520 -0.4920  0.5075
 3780TIP3   OH235534   5.186   0.325   9.046  0.0061  0.8095  0.0616
 3780TIP3    H135535   5.176   0.408   9.093 -0.5935 -0.0082  1.4338
 3780TIP3    H235536   5.182   0.258   9.114 -1.3574 -0.4562 -1.1870
 3781TIP3   OH235537   0.773   4.227   8.227  0.7113 -0.5044 -0.1281
 3781TIP3    H135538   0.825   4.285   8.171 -1.3937  1.1175 -0.5480
 3781TIP3    H235539   0.706   4.192   8.168  0.8615 -1.9779  0.5406
 3782TIP3   OH235540   3.330   6.398   1.937  0.0484 -0.4591  0.4853
 3782TIP3    H135541   3.360   6.467   1.996 -1.7704  0.3831  0.4793
 3782TIP3    H235542   3.325   6.440   1.852  1.0081 -1.2219  0.0247
 3783TIP3   OH235543   6.064   2.481   8.191  0.3253  0.6023 -0.4266
 3783TIP3    H135544   6.091   2.552   8.133 -1.0656  0.6785 -0.9984
 3783TIP3    H235545   6.123   2.408   8.169 -1.1485  0.0999 -3.0889
 3784TIP3   OH235546   2.480   1.874   8.922  0.1008 -0.0969  0.2061
 3784TIP3    H135547   2.448   1.916   9.002 -2.0932  1.1428 -1.2191
 3784TIP3    H235548   2.418   1.804   8.905  0.3934 -0.1726 -0.5675
 3785TIP3   OH235549   0.776   7.323   1.028 -0.2136 -0.0556 -0.1533
 3785TIP3    H135550   0.757   7.310   1.121 -0.7215 -0.2656 -0.2818
 3785TIP3    H235551   0.735   7.248   0.985  0.3819 -0.1831 -0.5044
 3786TIP3   OH235552   1.455   0.425   7.193 -0.2874  0.5413  0.3547
 3786TIP3    H135553   1.487   0.426   7.103  0.0021  2.4807  0.4292
 3786TIP3    H235554   1.443   0.332   7.214 -0.3590  0.0573 -1.6612
 3787TIP3   OH235555   0.140   0.665   7.016  0.1998 -0.1145 -0.1286
 3787TIP3    H135556   0.207   0.708   6.963  0.2800 -0.8775 -0.6596
 3787TIP3    H235557   0.138   0.716   7.097  0.8583  0.3978 -0.4209
 3788TIP3   OH235558   7.407   0.870   8.615 -0.4202 -0.1255  0.1551
 3788TIP3    H135559   7.312   0.861   8.607 -0.3810  0.2204 -0.7868
 3788TIP3    H235560   7.441   0.846   8.529  0.2292  1.2046  0.0072
 3789TIP3   OH235561   0.179   5.042   2.557  0.1607 -0.4457  0.1041
 3789TIP3    H135562   0.099   5.084   2.524 -0.7938 -2.9649 -1.0676
 3789TIP3    H235563   0.224   5.011   2.479 -0.1377 -3.0973  0.8535
 3790TIP3   OH235564   0.541   1.151   8.718  0.0273  0.2109 -0.0389
 3790TIP3    H135565   0.600   1.115   8.652  1.9597 -0.8554  2.1559
 3790TIP3    H235566   0.573   1.240   8.734 -2.5411  1.8427 -2.8349
 3791TIP3   OH235567   4.587   4.717   7.327 -0.1688  0.7120 -0.1966
 3791TIP3    H135568   4.539   4.732   7.408  1.1058  0.5172  0.6268
 3791TIP3    H235569   4.676   4.697   7.355  0.4416  1.1909 -1.6703
 3792TIP3   OH235570   7.348   6.472   1.495  0.8377 -0.3351 -0.4701
 3792TIP3    H135571   7.363   6.444   1.404  0.5665 -0.0637 -0.5972
 3792TIP3    H235572   7.434   6.462   1.537  0.9189 -0.6518 -0.7047
 3793TIP3   OH235573   6.524   7.070   2.608  0.4683  0.1608  0.4390
 3793TIP3    H135574   6.538   6.976   2.600  0.0780 -0.0332  1.7286
 3793TIP3    H235575   6.438   7.077   2.651  0.9545  1.0715  1.2938
 3794TIP3   OH235576   4.782   2.649   8.969 -0.4058 -0.7005 -0.1106
 3794TIP3    H135577   4.702   2.695   8.944 -0.1367 -0.5917 -0.7575
 3794TIP3    H235578   4.774   2.639   9.064 -1.1457 -0.6081 -0.1547
 3795TIP3   OH235579   6.305   0.132   1.853  0.0902  0.7711 -0.2604
 3795TIP3    H135580   6.306   0.145   1.758  1.1556  2.4696 -0.0801
 3795TIP3    H235581   6.268   0.045   1.866 -1.7259  1.2003 -2.1392
 3796TIP3   OH235582   6.218   2.878   2.088  0.0038 -0.1948  0.0670
 3796TIP3    H135583   6.173   2.795   2.071 -1.4000  0.7850 -1.2084
 3796TIP3    H235584   6.233   2.915   2.001 -0.1071  1.2586  0.6462
 3797TIP3   OH235585   6.608   6.850   8.960 -0.5723 -0.2800  0.5027
 3797TIP3    H135586   6.694   6.886   8.937 -0.8012  0.9064  1.3663
 3797TIP3    H235587   6.546   6.916   8.931 -1.0546 -0.2083  1.6350
 3798TIP3   OH235588   5.640   2.225   1.356 -0.0544 -0.2365  0.7162
 3798TIP3    H135589   5.563   2.254   1.406  0.2930 -1.3101  1.9400
 3798TIP3    H235590   5.711   2.279   1.390  0.0199 -0.3525  0.7447
 3799TIP3   OH235591   2.481   5.879   8.783  0.5490 -0.0408 -0.1891
 3799TIP3    H135592   2.460   5.831   8.863 -0.1949 -2.7223 -1.8711
 3799TIP3    H235593   2.565   5.841   8.754 -0.3855 -0.9292 -1.9122
 3800TIP3   OH235594   2.335   5.575   8.689  0.3477 -0.0498  1.1302
 3800TIP3    H135595   2.387   5.648   8.723  1.9984  0.0700 -1.4411
 3800TIP3    H235596   2.314   5.600   8.599 -0.6637 -1.9620  0.7905
 3801TIP3   OH235597   5.179   5.668   8.281  0.0081 -0.0297  0.0498
 3801TIP3    H135598   5.173   5.607   8.355 -0.6231 -0.5994 -0.4585
 3801TIP3    H235599   5.120   5.632   8.215  0.0893  0.8120 -0.4990
 3802TIP3   OH235600   0.803   5.895   1.876 -0.0791 -0.5351  0.8684
 3802TIP3    H135601   0.709   5.912   1.884 -0.0257 -0.7969  2.2432
 3802TIP3    H235602   0.837   5.971   1.829 -0.9977 -0.5124  0.2146
 3803TIP3   OH235603   1.318   3.404   0.504  0.2539 -0.1182  0.0282
 3803TIP3    H135604   1.332   3.430   0.595  1.7926 -1.3718  0.1978
 3803TIP3    H235605   1.245   3.342   0.507 -0.8427  1.1375  0.1419
 3804TIP3   OH235606   1.572   4.922   7.474  0.0435 -0.3951  0.2723
 3804TIP3    H135607   1.645   4.984   7.476 -0.2971  0.0853 -1.0241
 3804TIP3    H235608   1.584   4.872   7.393 -1.1712 -0.1407 -0.0984
 3805TIP3   OH235609   1.412   0.869   9.031 -0.3981 -0.3070 -0.0294
 3805TIP3    H135610   1.411   0.883   8.936  3.1135  1.3859  0.0001
 3805TIP3    H235611   1.346   0.929   9.065 -1.0165 -0.2084 -1.3568
 3806TIP3   OH235612   4.705   6.627   2.579  0.3447 -0.1154 -0.3620
 3806TIP3    H135613   4.744   6.702   2.534  0.4051 -0.4086 -0.8039
 3806TIP3    H235614   4.611   6.639   2.571  0.2766  1.1786  1.6602
 3807TIP3   OH235615   5.590   2.936   0.309 -0.1011 -0.3203 -0.5502
 3807TIP3    H135616   5.563   2.942   0.401  0.0343  0.4926 -0.5581
 3807TIP3    H235617   5.547   2.857   0.276  0.6370 -1.1898  0.4789
 3808TIP3   OH235618   4.381   0.348   7.254  0.1042  0.1465 -0.0621
 3808TIP3    H135619   4.402   0.412   7.322  0.9815 -1.0726  0.8497
 3808TIP3    H235620   4.463   0.302   7.239 -0.6122 -1.0593 -0.3884
 3809TIP3   OH235621   3.750   5.133   1.837 -0.3568 -0.4408 -0.5440
 3809TIP3    H135622   3.719   5.109   1.924 -0.8192  3.2325  0.4650
 3809TIP3    H235623   3.837   5.171   1.852 -1.2841  2.1816 -1.2566
 3810TIP3   OH235624   2.504   4.491   1.228 -0.8014 -0.3263 -0.0124
 3810TIP3    H135625   2.543   4.509   1.314  1.6060  1.0902 -1.2804
 3810TIP3    H235626   2.440   4.561   1.215  0.4574  0.8274 -0.2468
 3811TIP3   OH235627   5.165   2.356   2.529 -0.2971 -0.0134  0.0420
 3811TIP3    H135628   5.203   2.269   2.514  0.5019  0.5757 -1.5629
 3811TIP3    H235629   5.233   2.417   2.503 -0.2486  1.1835  2.6834
 3812TIP3   OH235630   3.163   5.654   8.510  0.2457 -0.1468 -0.2703
 3812TIP3    H135631   3.108   5.706   8.451 -1.3907 -2.4354 -0.9236
 3812TIP3    H235632   3.224   5.608   8.452 -0.8040 -1.7508 -0.1724
 3813TIP3   OH235633   5.532   6.457   0.536  0.6229 -0.1840 -0.2207
 3813TIP3    H135634   5.494   6.393   0.476  0.4788 -1.3252  1.0430
 3813TIP3    H235635   5.461   6.518   0.554  0.1948 -0.7645  0.0516
 3814TIP3   OH235636   1.443   5.776   0.550 -0.1300 -0.1715 -0.0459
 3814TIP3    H135637   1.382   5.763   0.623 -2.1295 -3.0491 -2.0167
 3814TIP3    H235638   1.501   5.699   0.554 -0.0087 -0.1525 -1.2631
 3815TIP3   OH235639   5.141   2.024   7.787 -0.0775  0.2514  0.1868
 3815TIP3    H135640   5.105   1.966   7.855 -0.9565 -0.1532 -0.5977
 3815TIP3    H235641   5.088   2.005   7.710  0.5156  1.1424 -0.4497
 3816TIP3   OH235642   2.995   4.060   1.917  0.0894 -0.5743  0.2479
 3816TIP3    H135643   2.983   4.151   1.890 -0.0562 -0.8012 -0.4724
 3816TIP3    H235644   2.912   4.035   1.958  0.2849 -0.2516  0.8534
 3817TIP3   OH235645   5.098   5.551   9.050 -0.6774  0.2228 -0.7120
 3817TIP3    H135646   5.183   5.516   9.021 -0.5569  0.3336 -0.4983
 3817TIP3    H235647   5.111   5.570   9.143 -0.9975  0.0538 -0.6317
 3818TIP3   OH235648   0.413   4.347   1.760  0.1304  0.4216  0.5854
 3818TIP3    H135649   0.366   4.325   1.841 -0.5374 -0.7681 -0.1049
 3818TIP3    H235650   0.359   4.415   1.719 -1.6262 -1.6270 -0.6955
 3819TIP3   OH235651   5.851   2.841   0.397 -0.1135 -0.0546 -0.0534
 3819TIP3    H135652   5.758   2.839   0.376 -0.0804 -1.3305 -0.1684
 3819TIP3    H235653   5.895   2.819   0.314  0.2495 -0.3022  0.2028
 3820TIP3   OH235654   3.015   6.734   8.674 -0.6677 -0.3304  0.0561
 3820TIP3    H135655   2.952   6.776   8.732  0.1005  0.5452  0.2817
 3820TIP3    H235656   2.962   6.692   8.607 -1.4979  0.4637  0.1922
 3821TIP3   OH235657   2.726   1.775   8.908  0.1315 -0.8861 -0.2507
 3821TIP3    H135658   2.634   1.792   8.928  0.2340 -0.1381 -0.3883
 3821TIP3    H235659   2.770   1.860   8.919  0.6405 -1.0232 -1.0816
 3822TIP3   OH235660   4.967   2.687   7.331 -0.1288  0.6124 -0.2026
 3822TIP3    H135661   4.978   2.660   7.423  1.4294  1.6140 -0.0759
 3822TIP3    H235662   5.050   2.727   7.307 -0.7165  0.8855 -1.8997
 3823TIP3   OH235663   1.927   7.378   0.332  0.5655  0.3891 -0.1099
 3823TIP3    H135664   1.983   7.339   0.399  1.7754  0.6041 -0.9563
 3823TIP3    H235665   1.938   7.473   0.344  1.7099  0.4451 -1.2908
 3824TIP3   OH235666   5.960   6.132   9.472  0.0361  0.3961  0.5601
 3824TIP3    H135667   5.872   6.096   9.487 -0.2747  0.2879 -1.3538
 3824TIP3    H235668   6.019   6.063   9.503 -0.5574 -0.5022 -0.2750
 3825TIP3   OH235669   6.397   2.145   8.494 -0.3680  0.3334 -0.1633
 3825TIP3    H135670   6.466   2.080   8.505  0.0201  0.2011 -2.8026
 3825TIP3    H235671   6.443   2.228   8.483 -0.8362  0.9961  2.2133
 3826TIP3   OH235672   1.917   6.395   0.974  0.7052 -0.3228 -0.3217
 3826TIP3    H135673   1.939   6.433   0.889  2.4020  0.9810  0.6386
 3826TIP3    H235674   1.991   6.337   0.993  1.6364  1.3482  1.3748
 3827TIP3   OH235675   3.557   0.377   9.563  0.3069 -0.4523  0.2742
 3827TIP3    H135676   3.606   0.426   9.629 -0.8466  0.4092  0.5297
 3827TIP3    H235677   3.624   0.333   9.510  1.2757 -1.0035  1.8757
 3828TIP3   OH235678   2.320   2.501   7.835 -0.1502  0.6193 -0.2813
 3828TIP3    H135679   2.338   2.435   7.768  2.3337  0.9406 -0.0202
 3828TIP3    H235680   2.278   2.452   7.906 -3.7061  0.4167 -2.2784
 3829TIP3   OH235681   3.382   2.751   7.898  0.1217  0.2598  0.1096
 3829TIP3    H135682   3.319   2.724   7.965 -2.1480  0.3115 -1.8516
 3829TIP3    H235683   3.329   2.797   7.833  2.0684 -0.4199 -2.0863
 3830TIP3   OH235684   5.801   3.003   8.324  0.1564 -0.5532 -0.2561
 3830TIP3    H135685   5.802   2.912   8.296 -1.8984 -0.3225 -1.2696
 3830TIP3    H235686   5.837   3.052   8.250  1.2444 -0.5201  0.2810
 3831TIP3   OH235687   4.096   5.571   8.362  0.4422 -0.1165  0.1453
 3831TIP3    H135688   4.191   5.578   8.359  0.4600 -0.3110  0.1933
 3831TIP3    H235689   4.069   5.632   8.431  0.5718 -0.3842  0.4398
 3832TIP3   OH235690   0.969   3.327   2.162 -0.1268 -0.3732  0.1032
 3832TIP3    H135691   0.916   3.297   2.237  0.9727 -2.1966  0.2053
 3832TIP3    H235692   0.955   3.421   2.160 -1.2863 -0.4534  1.7511
 3833TIP3   OH235693   5.437   0.073   1.988  0.0843 -0.0139  0.1532
 3833TIP3    H135694   5.477   0.066   2.075  0.4592 -2.4652 -0.1298
 3833TIP3    H235695   5.364   0.135   2.000 -0.9873 -1.5704  2.6944
 3834TIP3   OH235696   1.486   5.569   0.144 -0.1730  0.4750  0.5166
 3834TIP3    H135697   1.537   5.619   0.207  1.2512 -0.8514  0.4941
 3834TIP3    H235698   1.502   5.477   0.168 -0.8544 -0.0250 -0.8182
 3835TIP3   OH235699   6.432   2.147   9.543 -0.4746 -0.0453 -0.0495
 3835TIP3    H135700   6.507   2.112   9.496 -0.1343  0.4150  0.1475
 3835TIP3    H235701   6.361   2.085   9.524  0.2865 -1.2498  0.8673
 3836TIP3   OH235702   0.609   0.636   7.651  0.1343 -0.5157 -0.4367
 3836TIP3    H135703   0.626   0.725   7.679 -1.5597  0.3551 -2.0209
 3836TIP3    H235704   0.644   0.632   7.562 -0.4090 -1.2311 -0.6272
 3837TIP3   OH235705   1.266   5.783   0.766 -0.3449 -0.4028  0.0205
 3837TIP3    H135706   1.222   5.705   0.731  0.1078  0.2455 -2.1234
 3837TIP3    H235707   1.259   5.773   0.861 -3.0979 -1.4833 -0.1820
 3838TIP3   OH235708   1.198   1.644   1.496 -0.7829 -0.4021  0.1122
 3838TIP3    H135709   1.199   1.647   1.400 -0.1966  0.3033  0.1339
 3838TIP3    H235710   1.123   1.698   1.521  1.6670  3.3648  0.1255
 3839TIP3   OH235711   3.159   1.040   8.480  0.0859  0.2636 -0.3689
 3839TIP3    H135712   3.145   0.946   8.470  0.8138  0.2145 -1.0510
 3839TIP3    H235713   3.136   1.077   8.395 -1.0969  0.8285  0.1794
 3840TIP3   OH235714   5.049   0.872   7.678  0.0357  0.6057  0.0576
 3840TIP3    H135715   5.112   0.808   7.644 -1.4420 -1.4317  0.9491
 3840TIP3    H235716   5.104   0.944   7.710  1.9163 -0.9323  0.5293
 3841TIP3   OH235717   0.466   6.692   6.535  0.0554  0.1068 -0.0024
 3841TIP3    H135718   0.375   6.669   6.517 -0.1916  0.1204  1.1457
 3841TIP3    H235719   0.507   6.695   6.449 -0.1350 -3.4601 -0.3346
 3842TIP3   OH235720   0.533   3.084   8.878  0.1833  0.1308  0.1355
 3842TIP3    H135721   0.480   3.037   8.814 -1.1798  0.1477  1.1945
 3842TIP3    H235722   0.502   3.175   8.872  1.3624  0.5055 -0.4766
 3843TIP3   OH235723   4.567   3.990   8.694  0.0705  0.4929  0.1610
 3843TIP3    H135724   4.587   3.965   8.603  1.0095 -0.5622  0.6351
 3843TIP3    H235725   4.493   3.935   8.718  2.2090 -2.1280  1.2425
 3844TIP3   OH235726   5.961   5.800   7.746  0.1619  0.1629  0.1133
 3844TIP3    H135727   6.010   5.799   7.828  1.2874 -0.4029 -0.5354
 3844TIP3    H235728   5.870   5.786   7.772  0.7187 -1.8989  1.1447
 3845TIP3   OH235729   7.247   5.628   7.245 -0.0466  0.1546 -0.0542
 3845TIP3    H135730   7.247   5.560   7.312 -0.9439  0.7670  0.5966
 3845TIP3    H235731   7.280   5.706   7.290 -0.3873  0.5056 -0.4047
 3846TIP3   OH235732   5.921   5.099   0.035 -0.4540  0.2252  0.6218
 3846TIP3    H135733   5.953   5.015   0.001 -0.4469 -0.1408  1.5163
 3846TIP3    H235734   5.983   5.121   0.105  0.1149  1.4613 -0.2317
 3847TIP3   OH235735   2.758   1.632   1.462  0.5835 -0.2184  0.2080
 3847TIP3    H135736   2.781   1.664   1.374 -4.3860  1.2884 -0.8726
 3847TIP3    H235737   2.725   1.543   1.448  1.4960 -0.6844  0.9169
 3848TIP3   OH235738   1.325   7.171   0.001  0.2740 -0.4110  0.4052
 3848TIP3    H135739   1.415   7.161  -0.030  0.9997  1.5590  1.7177
 3848TIP3    H235740   1.290   7.244  -0.050 -0.6995 -1.3594 -0.3093
 3849TIP3   OH235741   2.174   2.953   9.072 -0.4706  0.6708  0.0927
 3849TIP3    H135742   2.194   2.958   9.165 -0.0967 -0.5848  0.0962
 3849TIP3    H235743   2.138   2.865   9.059  2.8772 -0.6130 -1.5385
 3850TIP3   OH235744   4.505   4.086   9.050 -0.6534 -0.9326  0.3414
 3850TIP3    H135745   4.579   4.093   8.990  0.2217 -1.8833  1.2713
 3850TIP3    H235746   4.544   4.090   9.138 -1.9726  1.2732  0.9205
 3851TIP3   OH235747   5.608   6.832   7.246 -0.9561  0.1342 -0.2845
 3851TIP3    H135748   5.598   6.878   7.163  0.1358 -0.5550 -0.8041
 3851TIP3    H235749   5.529   6.778   7.253 -1.6128  1.0546 -0.2945
 3852TIP3   OH235750   6.616   2.390   9.221 -0.3565  0.0698 -0.3199
 3852TIP3    H135751   6.557   2.358   9.289 -0.6777  0.6220 -0.3376
 3852TIP3    H235752   6.561   2.444   9.164 -0.0977 -0.3791 -1.0236
 3853TIP3   OH235753   4.005   0.824   6.850  0.2952  0.3493 -0.3766
 3853TIP3    H135754   3.981   0.903   6.899  0.2742  0.0533  0.0950
 3853TIP3    H235755   3.922   0.778   6.836  0.5433 -0.6765  1.2585
 3854TIP3   OH235756   3.910   6.125   2.531  0.3626 -0.1509  0.2076
 3854TIP3    H135757   3.862   6.044   2.512  0.0282 -0.1796  1.1336
 3854TIP3    H235758   3.855   6.171   2.595  1.0609  0.3071  0.4901
 3855TIP3   OH235759   0.144   4.436   7.615 -0.1108 -0.1007  0.5526
 3855TIP3    H135760   0.110   4.450   7.527  0.3977  0.6658  0.4623
 3855TIP3    H235761   0.072   4.395   7.663 -2.0503  3.4078  0.9728
 3856TIP3   OH235762   2.116   6.360   6.558  0.1962  0.0166  0.6051
 3856TIP3    H135763   2.033   6.399   6.587 -1.1078 -1.6832 -0.6130
 3856TIP3    H235764   2.127   6.283   6.612  0.6507 -0.1288  0.3131
 3857TIP3   OH235765   3.715   4.564   7.866  0.2307  0.2344 -0.0502
 3857TIP3    H135766   3.702   4.478   7.907 -1.1549  0.3620 -0.1675
 3857TIP3    H235767   3.754   4.618   7.935  0.0432 -0.1760  0.3818
 3858TIP3   OH235768   4.745   4.768   8.718  0.7976  0.2562 -0.0819
 3858TIP3    H135769   4.700   4.794   8.799  0.7894 -0.3381  0.1107
 3858TIP3    H235770   4.677   4.773   8.651  0.4012 -0.7155  0.2235
 3859TIP3   OH235771   0.617   6.608   6.763 -0.0325  0.6544 -0.5449
 3859TIP3    H135772   0.571   6.641   6.686  2.4216  2.3404 -1.3941
 3859TIP3    H235773   0.654   6.524   6.735 -1.2378  0.0125 -0.3174
 3860TIP3   OH235774   2.154   3.167   0.927 -0.0199 -0.2558  0.4252
 3860TIP3    H135775   2.153   3.080   0.886  0.9586 -0.3407  0.5607
 3860TIP3    H235776   2.069   3.205   0.904 -0.0942 -0.8894 -0.4119
 3861TIP3   OH235777   4.261   4.583   7.271  0.5108 -0.1248 -0.4772
 3861TIP3    H135778   4.263   4.536   7.188  1.4373  0.8654 -1.0289
 3861TIP3    H235779   4.333   4.645   7.266  0.9315 -0.3995  1.2888
 3862TIP3   OH235780   2.133   4.877   2.125  0.6890 -0.0104  0.1840
 3862TIP3    H135781   2.078   4.938   2.077  0.7650  0.1776  0.3332
 3862TIP3    H235782   2.218   4.920   2.130  0.8295 -0.2649  0.0212
 3863TIP3   OH235783   2.579   3.166   8.183  0.1363  0.7570 -0.3555
 3863TIP3    H135784   2.578   3.260   8.197 -0.8159  0.8222 -0.8442
 3863TIP3    H235785   2.507   3.149   8.124  0.7547 -0.1943 -0.8672
 3864TIP3   OH235786   3.760   0.044   0.785  0.0353  0.5906 -0.7353
 3864TIP3    H135787   3.818  -0.032   0.779  0.6829  0.8218  1.6952
 3864TIP3    H235788   3.776   0.092   0.703  1.7415 -0.3981 -1.0405
 3865TIP3   OH235789   3.007   2.232   0.060 -0.9326  0.1210  0.7374
 3865TIP3    H135790   3.059   2.310   0.043 -0.5185 -0.3000  0.0266
 3865TIP3    H235791   2.926   2.265   0.100  0.1127  0.7257  2.4308
 3866TIP3   OH235792   1.275   5.275   9.026 -0.4377  0.0055  0.1814
 3866TIP3    H135793   1.254   5.308   9.113 -0.6048 -3.1825  1.4532
 3866TIP3    H235794   1.353   5.221   9.038  0.7957  1.1244 -2.0824
 3867TIP3   OH235795   0.558   0.952   2.986 -0.3373 -0.3011  0.3802
 3867TIP3    H135796   0.491   1.016   2.960 -1.0884 -0.5593  1.6402
 3867TIP3    H235797   0.630   0.967   2.923 -0.9790  0.9577 -0.0977
 3868TIP3   OH235798   4.935   6.886   8.361 -0.2774  0.1715 -0.2270
 3868TIP3    H135799   4.885   6.811   8.331 -1.0893  0.8906 -0.7041
 3868TIP3    H235800   5.023   6.873   8.325 -0.4351 -0.5089 -0.3644
 3869TIP3   OH235801   4.713   3.374   9.462 -0.3528  0.4122  0.2331
 3869TIP3    H135802   4.630   3.349   9.502  0.5363 -0.6776  1.4655
 3869TIP3    H235803   4.690   3.398   9.372 -1.7949 -1.3893  0.0625
 3870TIP3   OH235804   3.245   4.750   0.236  0.3009 -0.1860  0.6744
 3870TIP3    H135805   3.224   4.830   0.188  0.1055 -1.2095 -1.0710
 3870TIP3    H235806   3.160   4.714   0.262  0.1375 -1.2616 -1.1257
 3871TIP3   OH235807   3.023   1.252   9.506 -0.1841 -0.4067  0.2191
 3871TIP3    H135808   3.039   1.217   9.593  0.4688  0.1384  0.3178
 3871TIP3    H235809   2.952   1.197   9.471 -0.0443 -0.9996  0.8598
 3872TIP3   OH235810   1.057   5.707   9.462  0.0244 -0.2114 -0.3427
 3872TIP3    H135811   1.023   5.624   9.429 -0.0119 -0.0165 -0.8116
 3872TIP3    H235812   1.080   5.690   9.553 -0.0066 -0.7269 -0.4309
 3873TIP3   OH235813   4.940   2.671   2.723 -0.5912 -0.4776  0.1716
 3873TIP3    H135814   4.899   2.684   2.808 -0.0123 -2.2763  0.7599
 3873TIP3    H235815   5.034   2.674   2.740 -0.3428  2.9494 -1.0561
 3874TIP3   OH235816   4.670   1.949   7.400 -0.1764  0.1533  0.1362
 3874TIP3    H135817   4.611   1.971   7.472 -0.5541  1.2860 -0.4803
 3874TIP3    H235818   4.717   2.031   7.382  0.1365 -0.1931 -0.6835
 3875TIP3   OH235819   5.865   3.669   0.922 -0.0512 -0.3579 -0.1928
 3875TIP3    H135820   5.900   3.597   0.974  0.5237  1.3090  1.8602
 3875TIP3    H235821   5.884   3.747   0.973  0.1722  1.3907 -2.7486
 3876TIP3   OH235822   5.726   4.341   8.531  0.4029 -0.2411  0.5382
 3876TIP3    H135823   5.795   4.395   8.569 -0.4410  0.9996  0.3603
 3876TIP3    H235824   5.754   4.327   8.440  0.0157  1.0044  0.2108
 3877TIP3   OH235825   3.558   4.708   0.881 -0.1032 -0.0689 -0.7161
 3877TIP3    H135826   3.605   4.733   0.801  0.4670 -0.1251 -0.4041
 3877TIP3    H235827   3.527   4.791   0.917  2.6448  0.4115  0.8578
 3878TIP3   OH235828   7.062   2.686   1.630  0.3767 -0.2939 -0.1232
 3878TIP3    H135829   7.039   2.713   1.719 -0.8164 -0.9509 -0.1998
 3878TIP3    H235830   6.984   2.707   1.578  0.5422 -1.1269 -0.7373
 3879TIP3   OH235831   4.413   3.792   1.254  0.4821  0.2104  0.6244
 3879TIP3    H135832   4.322   3.822   1.265  0.5136  0.1385  1.1080
 3879TIP3    H235833   4.420   3.770   1.161 -0.2317 -0.5550  0.7466
 3880TIP3   OH235834   5.280   6.143   2.076  0.2696  0.2287  0.1672
 3880TIP3    H135835   5.192   6.176   2.097 -0.7583 -2.9150  1.3069
 3880TIP3    H235836   5.283   6.140   1.980 -0.4882  1.2452  0.0993
 3881TIP3   OH235837   4.332   0.727   8.200  0.2313 -0.7732 -0.2185
 3881TIP3    H135838   4.269   0.689   8.261  0.0534  0.2820  0.2709
 3881TIP3    H235839   4.282   0.740   8.119  0.0292 -0.6674 -0.0779
 3882TIP3   OH235840   1.592   2.289   8.117 -0.2124 -0.0203  0.3442
 3882TIP3    H135841   1.561   2.280   8.207  1.6585 -0.0548  1.0398
 3882TIP3    H235842   1.534   2.354   8.077  0.2043  1.6044  2.2386
 3883TIP3   OH235843   6.978   2.579   2.110 -0.2831 -0.0736  0.0375
 3883TIP3    H135844   7.015   2.597   2.196 -0.7452 -1.4359  0.5392
 3883TIP3    H235845   6.884   2.575   2.125 -0.4117  0.1881 -0.6446
 3884TIP3   OH235846   6.795   2.223   8.929  0.0565 -0.1926  0.3324
 3884TIP3    H135847   6.848   2.204   8.852 -2.0734  1.8083 -1.7901
 3884TIP3    H235848   6.857   2.261   8.992  1.4499  0.5955 -1.4297
 3885TIP3   OH235849   5.051   0.397   6.975  0.0667  0.1858 -0.2288
 3885TIP3    H135850   4.988   0.341   7.020  1.9673 -0.4837  1.7690
 3885TIP3    H235851   4.998   0.446   6.912 -2.2861 -0.9523  0.7208
 3886TIP3   OH235852   2.844   7.232   0.761 -0.4362 -0.0772 -0.5119
 3886TIP3    H135853   2.781   7.223   0.689 -1.4237 -1.6804  0.4889
 3886TIP3    H235854   2.812   7.308   0.810 -2.0437 -1.2304  0.3387
 3887TIP3   OH235855   0.853   5.711   0.174  0.4919  0.3977  0.0685
 3887TIP3    H135856   0.820   5.665   0.251  0.0586  0.0986 -0.2904
 3887TIP3    H235857   0.826   5.802   0.188  0.6593  0.3986  0.4000
 3888TIP3   OH235858   1.464   3.521   7.162  0.0966 -0.1394 -0.3088
 3888TIP3    H135859   1.472   3.533   7.067 -0.5367 -0.2209 -0.3808
 3888TIP3    H235860   1.377   3.557   7.183  0.1091 -0.3954  0.1887
 3889TIP3   OH235861   2.183   1.002   1.506  0.1327 -0.2170 -0.7286
 3889TIP3    H135862   2.135   0.935   1.555  0.5583  0.8067  1.1757
 3889TIP3    H235863   2.161   1.084   1.549  0.0292  0.8363 -2.7030
 3890TIP3   OH235864   6.766   5.214   7.400 -0.2637 -0.6359 -0.3093
 3890TIP3    H135865   6.694   5.192   7.460 -2.1106 -1.2047 -2.5763
 3890TIP3    H235866   6.729   5.282   7.344  1.8982  0.9081  0.0422
 3891TIP3   OH235867   5.887   1.146   8.002 -0.1829 -0.3665  0.2385
 3891TIP3    H135868   5.929   1.222   8.040 -1.1079 -0.1650  0.8825
 3891TIP3    H235869   5.917   1.072   8.055 -0.6221 -0.2239  0.6934
 3892TIP3   OH235870   2.739   1.944   2.286 -0.2443 -0.1624  0.4460
 3892TIP3    H135871   2.764   1.956   2.377  0.3229  1.4596  0.1224
 3892TIP3    H235872   2.644   1.952   2.285 -0.1864  0.7396  0.8000
 3893TIP3   OH235873   2.988   5.820   8.385  0.1774  0.3619  0.1405
 3893TIP3    H135874   2.911   5.865   8.420 -0.4883  0.6285 -1.5668
 3893TIP3    H235875   3.038   5.888   8.340  0.9426  0.0092  0.4316
 3894TIP3   OH235876   0.198   2.446   1.430 -0.1877 -0.6672  0.0926
 3894TIP3    H135877   0.124   2.420   1.375  0.9548 -0.3795 -1.6615
 3894TIP3    H235878   0.160   2.507   1.494 -1.6685 -1.4878  0.0375
 3895TIP3   OH235879   0.398   1.375   0.422 -0.3702 -0.3991  0.1137
 3895TIP3    H135880   0.326   1.429   0.454 -0.1064  0.5374 -0.8387
 3895TIP3    H235881   0.355   1.301   0.379 -0.8242  0.6362 -1.3025
 3896TIP3   OH235882   0.016   2.360   0.003  1.0478  0.0650  0.3562
 3896TIP3    H135883   0.042   2.450  -0.015  0.9744 -0.4167 -2.7552
 3896TIP3    H235884  -0.058   2.344  -0.056  1.6827 -2.3046  0.0878
 3897TIP3   OH235885   6.442   5.225   0.432 -0.0970  0.5580  0.2976
 3897TIP3    H135886   6.443   5.273   0.349  1.0082  1.5687  0.8773
 3897TIP3    H235887   6.506   5.155   0.420  0.9777  1.4453  0.6978
 3898TIP3   OH235888   1.568   1.523   8.105 -0.1315 -0.6631 -0.6050
 3898TIP3    H135889   1.657   1.517   8.069 -0.2280  0.3925 -1.0420
 3898TIP3    H235890   1.514   1.549   8.031 -0.3427  1.4954  0.2460
 3899TIP3   OH235891   0.370   2.957   8.150  0.0644 -0.2503  0.2111
 3899TIP3    H135892   0.424   2.884   8.182 -0.7499 -0.9222  0.0905
 3899TIP3    H235893   0.308   2.973   8.221 -0.6099 -0.5641 -0.3012
 3900TIP3   OH235894   4.256   4.173   1.942  0.3161  0.2631 -0.0273
 3900TIP3    H135895   4.313   4.113   1.894 -0.4758 -0.4132 -0.1480
 3900TIP3    H235896   4.296   4.259   1.929  0.8837 -0.0916 -0.7436
 3901TIP3   OH235897   6.335   0.241   7.896  0.7956  0.1974 -0.2008
 3901TIP3    H135898   6.417   0.195   7.912  0.7646  0.5091  0.9417
 3901TIP3    H235899   6.360   0.333   7.890  0.5129  0.3279  0.4618
 3902TIP3   OH235900   3.807   0.151   0.553 -0.3632  0.4728 -0.0681
 3902TIP3    H135901   3.897   0.146   0.523 -0.1567  0.4690  0.5344
 3902TIP3    H235902   3.756   0.105   0.486  0.3809 -1.6913  0.7600
 3903TIP3   OH235903   4.166   6.950   9.203  0.3414  0.0245  0.5714
 3903TIP3    H135904   4.168   6.883   9.135 -0.5511  0.1129  0.4367
 3903TIP3    H235905   4.242   6.932   9.258  2.6627  1.5167 -1.9285
 3904TIP3   OH235906   2.107   5.079   8.054 -0.3038  0.5488  0.5012
 3904TIP3    H135907   2.149   5.040   7.977 -0.2712  0.6693  0.4575
 3904TIP3    H235908   2.180   5.108   8.109 -0.3097  2.1368 -0.2737
 3905TIP3   OH235909   1.799   7.043   8.355 -0.5903  0.0453  0.3891
 3905TIP3    H135910   1.756   7.080   8.279 -0.2096 -1.5189 -0.6384
 3905TIP3    H235911   1.870   7.104   8.375  0.0817 -0.1190 -1.3058
 3906TIP3   OH235912   0.876   4.632   0.879  0.3806 -0.3044 -0.2097
 3906TIP3    H135913   0.958   4.593   0.910  0.4013 -2.0175 -2.1575
 3906TIP3    H235914   0.813   4.615   0.949  0.9700 -1.8410 -0.0064
 3907TIP3   OH235915   2.456   1.611   7.621  0.3893 -0.2455 -0.0098
 3907TIP3    H135916   2.401   1.559   7.563  1.5043 -0.9845 -0.4387
 3907TIP3    H235917   2.446   1.701   7.589  1.6184 -0.7300 -1.9397
 3908TIP3   OH235918   6.513   2.175   7.859 -0.0646 -0.8958 -0.1988
 3908TIP3    H135919   6.480   2.210   7.776 -0.3655 -0.6702  0.0130
 3908TIP3    H235920   6.465   2.094   7.872  0.0800 -1.0000 -0.3098
 3909TIP3   OH235921   1.152   6.416   9.387  0.1774 -0.0978  0.0080
 3909TIP3    H135922   1.199   6.333   9.382  0.5819  0.1836 -1.0850
 3909TIP3    H235923   1.202   6.469   9.449 -1.0494 -1.2488  2.0822
 3910TIP3   OH235924   3.859   5.149   1.006  0.6443  0.3193  0.2834
 3910TIP3    H135925   3.912   5.121   0.931 -1.4424  2.0390 -1.9722
 3910TIP3    H235926   3.775   5.105   0.994  0.3743  0.3303  1.8738
 3911TIP3   OH235927   2.589   2.854   1.703  0.9191 -0.2366  0.4232
 3911TIP3    H135928   2.523   2.895   1.648  1.3610 -1.2757 -0.9543
 3911TIP3    H235929   2.648   2.925   1.728 -0.2736  0.5576  1.0359
 3912TIP3   OH235930   7.311   6.943   1.776  0.3026  0.6560 -0.5417
 3912TIP3    H135931   7.398   6.966   1.808  0.1197  2.9073 -1.4947
 3912TIP3    H235932   7.327   6.908   1.688  0.3162  0.1084 -0.3240
 3913TIP3   OH235933   7.049   1.517   8.725  0.8022  0.1240  0.0543
 3913TIP3    H135934   6.964   1.561   8.721  1.6595  1.8301 -0.0767
 3913TIP3    H235935   7.030   1.426   8.701 -1.0805  0.3080  0.7014
 3914TIP3   OH235936   7.278   5.070   8.951 -0.5911  0.2354 -0.5426
 3914TIP3    H135937   7.183   5.068   8.961 -0.5826  1.1731 -0.1774
 3914TIP3    H235938   7.296   5.016   8.874 -1.4738  0.5592 -0.9852
 3915TIP3   OH235939   7.131   4.495   8.506 -0.4037 -0.1003  0.1755
 3915TIP3    H135940   7.072   4.464   8.575 -2.7726  0.0488 -1.6749
 3915TIP3    H235941   7.138   4.421   8.446  0.4785  0.2570 -0.1809
 3916TIP3   OH235942   4.109   2.668   2.291 -0.1297  0.8150 -0.4232
 3916TIP3    H135943   4.048   2.626   2.352  0.5369  1.0091  0.4026
 3916TIP3    H235944   4.098   2.762   2.307 -0.2578  0.8842 -0.9093
 3917TIP3   OH235945   6.447   0.400   9.200 -0.0216 -0.1271 -0.4898
 3917TIP3    H135946   6.366   0.354   9.177 -0.2264  1.0366 -2.2610
 3917TIP3    H235947   6.459   0.381   9.294 -1.7999 -1.1203 -0.4093
 3918TIP3   OH235948   2.730   6.775   0.663  0.0205 -0.1108 -0.0386
 3918TIP3    H135949   2.640   6.762   0.691 -0.0821 -1.3164 -0.8735
 3918TIP3    H235950   2.779   6.791   0.744 -1.0782  1.5660  0.3482
 3919TIP3   OH235951   7.047   4.471   9.600 -0.5522  0.5357  0.2598
 3919TIP3    H135952   7.050   4.565   9.619 -0.8085  0.8041 -0.9383
 3919TIP3    H235953   7.091   4.430   9.675  3.3987  1.8748 -1.0758
 3920TIP3   OH235954   0.643   6.548   8.838  0.0176 -0.4972 -0.2129
 3920TIP3    H135955   0.669   6.486   8.906  0.0918 -1.0140 -0.7052
 3920TIP3    H235956   0.670   6.633   8.872  2.8450 -1.0166 -0.8775
 3921TIP3   OH235957   4.435   1.496   1.115  0.1952  0.0149 -0.1671
 3921TIP3    H135958   4.369   1.542   1.064 -0.6335 -1.4529 -0.4944
 3921TIP3    H235959   4.488   1.450   1.050 -0.0854 -0.8718  0.2164
 3922TIP3   OH235960   6.317   2.905   7.433  0.3133  0.1874 -0.0839
 3922TIP3    H135961   6.250   2.880   7.496  0.7136 -0.8381 -0.0387
 3922TIP3    H235962   6.268   2.927   7.353 -0.1566  0.9417  0.4088
 3923TIP3   OH235963   4.814   5.713   0.904  0.2118 -0.4841  0.1748
 3923TIP3    H135964   4.784   5.767   0.977  1.4229 -0.8204  0.9563
 3923TIP3    H235965   4.886   5.762   0.865 -0.1112 -0.5337 -0.5106
 3924TIP3   OH235966   4.616   3.115   1.326 -0.1531 -0.2630  1.0290
 3924TIP3    H135967   4.700   3.156   1.346 -0.0992 -0.3763  1.0386
 3924TIP3    H235968   4.636   3.054   1.255 -0.2312 -0.2759  1.0186
 3925TIP3   OH235969   2.184   4.753   0.346 -0.3611  0.0175 -0.1464
 3925TIP3    H135970   2.150   4.793   0.266  1.1529 -1.2787 -1.4962
 3925TIP3    H235971   2.278   4.743   0.330 -0.1800 -1.1521  1.4113
 3926TIP3   OH235972   0.854   4.389   6.222  0.7385  0.6291 -0.1303
 3926TIP3    H135973   0.899   4.403   6.305  0.2611  0.3872  0.1791
 3926TIP3    H235974   0.765   4.422   6.237 -0.1663 -1.7585  0.3358
 3927TIP3   OH235975   0.287   5.448   2.519  0.4484 -0.0404  0.0968
 3927TIP3    H135976   0.328   5.426   2.435  0.3977 -0.4153  0.1670
 3927TIP3    H235977   0.219   5.381   2.531  0.7460 -0.2581  0.6435
 3928TIP3   OH235978   1.371   4.256   1.659  0.2762 -0.6726  0.1246
 3928TIP3    H135979   1.359   4.263   1.754 -0.6561 -2.1866  0.1575
 3928TIP3    H235980   1.421   4.176   1.648  1.2802  0.0429 -0.6344
 3929TIP3   OH235981   4.126   0.673   8.360 -0.2113 -0.5084 -0.1411
 3929TIP3    H135982   4.030   0.665   8.357 -0.1737 -0.9863 -0.1801
 3929TIP3    H235983   4.145   0.706   8.448 -0.3980 -0.6318 -0.0538
 3930TIP3   OH235984   1.569   3.334   0.417 -0.8893 -0.0666 -0.3796
 3930TIP3    H135985   1.549   3.241   0.409 -2.1049  0.3354 -2.7392
 3930TIP3    H235986   1.484   3.378   0.416 -0.3020  1.1216 -0.1427
 3931TIP3   OH235987   6.091   3.343   7.372  0.6392  0.7034  0.5866
 3931TIP3    H135988   6.171   3.313   7.327 -0.1857  1.4197 -1.5024
 3931TIP3    H235989   6.081   3.434   7.345 -1.1523  0.4785  0.3592
 3932TIP3   OH235990   4.037   1.091   7.695 -0.4223 -0.2930 -0.3090
 3932TIP3    H135991   3.979   1.160   7.664  0.9676  1.2865  0.4405
 3932TIP3    H235992   3.984   1.011   7.693 -2.1817  0.8459 -0.8674
 3933TIP3   OH235993   5.327   3.632   2.497 -0.7437 -0.1203 -0.1030
 3933TIP3    H135994   5.335   3.591   2.583 -0.2846 -0.7747 -0.4409
 3933TIP3    H235995   5.410   3.611   2.453 -1.9352 -2.0421 -1.6400
 3934TIP3   OH235996   1.679   4.251   9.544  0.1947  0.1259  0.3521
 3934TIP3    H135997   1.638   4.164   9.550 -0.0881  0.2510  0.2513
 3934TIP3    H235998   1.607   4.312   9.558 -0.0226  0.4015 -1.6756
 3935TIP3   OH235999   5.216   1.826   9.552  0.5857  0.2465 -0.2577
 3935TIP3    H136000   5.299   1.788   9.580 -0.2699 -0.0730  2.1576
 3935TIP3    H236001   5.186   1.875   9.628 -2.9022 -2.2771  0.2665
 3936TIP3   OH236002   7.167   3.478   7.551  0.1099 -0.4124  0.2848
 3936TIP3    H136003   7.099   3.418   7.522 -0.3427  0.7916 -1.2826
 3936TIP3    H236004   7.248   3.445   7.512 -0.5036  1.2596 -2.7541
 3937TIP3   OH236005   1.413   3.073   0.480 -0.0686 -0.0366  0.1529
 3937TIP3    H136006   1.367   3.084   0.563 -1.9581  2.4616 -1.0951
 3937TIP3    H236007   1.353   3.021   0.426 -0.3916  1.1472 -0.6739
 3938TIP3   OH236008   1.344   0.944   6.836 -0.5822 -0.5910  0.1100
 3938TIP3    H136009   1.288   0.872   6.863 -0.9128  0.0393  1.1266
 3938TIP3    H236010   1.395   0.909   6.763 -2.3098 -1.1644 -0.8576
 3939TIP3   OH236011   4.736   5.575   8.350 -0.0704 -0.5317 -0.1644
 3939TIP3    H136012   4.763   5.592   8.441 -1.5586  1.3295 -0.0066
 3939TIP3    H236013   4.660   5.518   8.358 -1.5665  1.3835 -0.0450
 3940TIP3   OH236014   4.406   3.331   0.596  0.5206  0.6990 -0.3653
 3940TIP3    H136015   4.314   3.353   0.578  0.2273 -1.6600 -2.1644
 3940TIP3    H236016   4.427   3.381   0.675 -3.0024 -0.4174  1.4657
 3941TIP3   OH236017   4.476   1.232   1.269 -0.3335  0.6242  0.3630
 3941TIP3    H136018   4.560   1.188   1.256 -0.9284 -0.7571  0.9735
 3941TIP3    H236019   4.489   1.320   1.235  0.5954 -0.3314 -1.9236
 3942TIP3   OH236020   3.735   3.154   7.738 -0.3891 -0.1994  0.1181
 3942TIP3    H136021   3.774   3.073   7.771 -0.8082 -0.8096 -0.8402
 3942TIP3    H236022   3.805   3.219   7.747  0.7092 -1.1609 -1.1004
 3943TIP3   OH236023   6.182   7.326   1.889 -0.0825  0.0693  0.2188
 3943TIP3    H136024   6.157   7.237   1.912 -1.6337  0.0814 -1.1781
 3943TIP3    H236025   6.120   7.381   1.937  1.6802  0.5095  2.0923
 3944TIP3   OH236026   1.198   6.550   8.483 -0.2594  0.5124  0.1208
 3944TIP3    H136027   1.114   6.527   8.444  0.5231  0.2614 -1.4903
 3944TIP3    H236028   1.244   6.466   8.493  0.3432  0.7817 -0.3395
 3945TIP3   OH236029   6.616   5.121   8.835 -0.9072 -0.0906  0.0182
 3945TIP3    H136030   6.634   5.128   8.929 -1.7191  0.0992  0.1686
 3945TIP3    H236031   6.701   5.100   8.796 -0.3686  0.7430  0.6874
 3946TIP3   OH236032   0.324   6.039   0.908 -0.0880  0.1676 -0.4575
 3946TIP3    H136033   0.273   6.042   0.827  3.0798 -1.8329 -2.7520
 3946TIP3    H236034   0.304   6.122   0.952 -3.0822  0.6712 -2.4723
 3947TIP3   OH236035   6.991   0.114   8.656 -0.6323  0.0776 -0.1105
 3947TIP3    H136036   7.042   0.189   8.687 -0.1017  0.2379 -1.3266
 3947TIP3    H236037   6.922   0.153   8.603 -1.4083 -0.2097  0.6629
 3948TIP3   OH236038   7.158   6.983   8.055 -0.4435  0.4605 -0.6305
 3948TIP3    H136039   7.236   6.974   8.001  1.4206  0.4789  1.8460
 3948TIP3    H236040   7.187   7.037   8.129 -1.8657 -2.0935  2.0104
 3949TIP3   OH236041   7.072   3.634   8.447  0.1259 -0.1587  0.0939
 3949TIP3    H136042   6.986   3.623   8.406  0.3742 -0.8565 -0.2701
 3949TIP3    H236043   7.125   3.563   8.409  1.1387  0.8632 -0.4480
 3950TIP3   OH236044   6.694   4.643   9.336 -0.8083 -0.2123 -0.2060
 3950TIP3    H136045   6.599   4.654   9.341 -0.9915 -1.2681 -0.9083
 3950TIP3    H236046   6.707   4.588   9.259  0.0988 -2.7407  1.5894
 3951TIP3   OH236047   4.949   7.076   2.523 -0.4887  0.1272 -0.0037
 3951TIP3    H136048   5.025   7.132   2.507 -1.5653  1.3284 -1.0736
 3951TIP3    H236049   4.945   7.069   2.618  1.2449 -0.3946  0.0789
 3952TIP3   OH236050   7.365   0.600   7.278  0.0983 -0.5785  0.6821
 3952TIP3    H136051   7.320   0.559   7.352 -0.0602 -1.1473  0.2799
 3952TIP3    H236052   7.393   0.526   7.223 -1.6021 -0.1229 -0.8965
 3953TIP3   OH236053   4.336   1.235   1.780 -0.1643 -0.0098  0.0669
 3953TIP3    H136054   4.413   1.194   1.741  0.6963 -0.5204  2.1368
 3953TIP3    H236055   4.308   1.300   1.716  2.9083  1.2437 -0.2032
 3954TIP3   OH236056   0.520   3.189   8.013 -0.0635 -0.3798 -0.0465
 3954TIP3    H136057   0.546   3.149   8.096  0.0888  0.7070  0.4469
 3954TIP3    H236058   0.426   3.176   8.008 -0.1518 -0.0154  0.5515
 3955TIP3   OH236059   2.704   3.635   0.836 -0.4056  0.9020  0.6543
 3955TIP3    H136060   2.690   3.546   0.802 -0.9378  1.3457 -0.3601
 3955TIP3    H236061   2.624   3.655   0.883 -1.3104  1.6827 -1.1137
 3956TIP3   OH236062   0.027   0.885   3.104  0.3730  0.1983  0.2861
 3956TIP3    H136063   0.111   0.851   3.135  0.8021 -0.0642 -1.0828
 3956TIP3    H236064   0.046   0.975   3.078  0.1755  0.2049  0.1644
 3957TIP3   OH236065   2.801   4.845   7.680  0.5877  0.3353 -0.2864
 3957TIP3    H136066   2.709   4.867   7.693  0.1072 -0.8571 -1.4686
 3957TIP3    H236067   2.842   4.928   7.659 -0.3105  0.8025 -0.2545
 3958TIP3   OH236068   4.812   0.930   7.168  0.3713 -0.3298 -0.0915
 3958TIP3    H136069   4.808   0.848   7.119 -0.1251 -1.0245  1.0683
 3958TIP3    H236070   4.849   0.906   7.253 -1.2211  0.3351  0.8404
 3959TIP3   OH236071   4.175   0.069   8.718 -0.9347  0.0269  0.1816
 3959TIP3    H136072   4.236   0.056   8.645  0.3631 -0.3623  1.2905
 3959TIP3    H236073   4.131  -0.015   8.728 -0.9253  0.0022  0.0246
 3960TIP3   OH236074   2.078   0.487   8.200  0.1239 -0.3124 -0.5689
 3960TIP3    H136075   2.150   0.463   8.259  0.5764 -0.9622 -1.3709
 3960TIP3    H236076   2.080   0.582   8.198  2.3357 -0.3127 -2.1943
 3961TIP3   OH236077   3.129   2.385   1.785 -0.3706  0.0405  0.1855
 3961TIP3    H136078   3.174   2.414   1.705  1.3225 -0.5708  0.8771
 3961TIP3    H236079   3.145   2.455   1.848 -1.4224  0.3626  0.1226
 3962TIP3   OH236080   3.763   4.259   8.430  0.7853 -0.0077 -0.0335
 3962TIP3    H136081   3.816   4.337   8.418 -0.0975  0.9987  2.1377
 3962TIP3    H236082   3.793   4.222   8.513  0.3117 -1.2891 -0.4041
 3963TIP3   OH236083   5.155   6.758   2.697  0.0396 -0.6941  0.2448
 3963TIP3    H136084   5.158   6.691   2.628  0.0009  0.2223 -0.6754
 3963TIP3    H236085   5.243   6.797   2.696  0.1023 -0.8157  0.8634
 3964TIP3   OH236086   6.510   4.802   2.177  0.6239 -0.3459  0.5819
 3964TIP3    H136087   6.436   4.818   2.119  2.2632  1.1227 -1.2460
 3964TIP3    H236088   6.483   4.838   2.262 -0.7422  0.1233 -0.0348
 3965TIP3   OH236089   3.311   5.467   8.383  0.0509 -0.7338 -0.2546
 3965TIP3    H136090   3.266   5.436   8.304  0.2359  1.3463 -1.2314
 3965TIP3    H236091   3.381   5.403   8.397  0.1682 -1.0160 -1.9259
 3966TIP3   OH236092   0.684   3.596   0.617 -0.0038  0.1142  0.6026
 3966TIP3    H136093   0.717   3.508   0.638  1.1663  0.8697  2.1590
 3966TIP3    H236094   0.720   3.614   0.531  1.2088 -0.2773  0.9995
 3967TIP3   OH236095   6.739   3.586   2.362  0.0931 -0.0655 -0.0873
 3967TIP3    H136096   6.738   3.580   2.266 -0.9791  1.3847 -0.1894
 3967TIP3    H236097   6.731   3.679   2.381  1.6997 -0.1848  1.4275
 3968TIP3   OH236098   2.020   0.613   2.335 -0.4932  0.0870 -0.0075
 3968TIP3    H136099   2.091   0.589   2.275 -0.8795  0.8989 -0.8273
 3968TIP3    H236100   2.059   0.678   2.393 -0.9606  1.8267 -1.5432
 3969TIP3   OH236101   6.377   0.338   0.485 -0.3801 -0.0899 -0.0117
 3969TIP3    H136102   6.297   0.386   0.506  0.4732  1.0503  0.7191
 3969TIP3    H236103   6.405   0.373   0.401 -0.7978 -0.7146 -0.4230
 3970TIP3   OH236104   4.934   0.780   7.375 -0.3428  0.0413 -0.0637
 3970TIP3    H136105   4.971   0.730   7.302  0.2660  1.7499 -0.9914
 3970TIP3    H236106   5.011   0.818   7.418 -0.8217  0.6857  0.2261
 3971TIP3   OH236107   3.599   4.100   9.304  0.2008 -0.2325  0.1861
 3971TIP3    H136108   3.567   4.028   9.357 -0.2232 -0.9195 -0.9569
 3971TIP3    H236109   3.608   4.063   9.216 -2.7949  1.7408 -1.1223
 3972TIP3   OH236110   2.723   0.972   1.982 -0.2363  0.1772 -0.2911
 3972TIP3    H136111   2.722   0.895   1.925 -0.4142 -0.8728  1.0450
 3972TIP3    H236112   2.692   0.938   2.066 -0.2066  1.7074  0.3582
 3973TIP3   OH236113   1.443   3.312   8.314  0.0095 -0.4789 -0.2110
 3973TIP3    H136114   1.485   3.381   8.263  0.6350 -1.7887 -1.5467
 3973TIP3    H236115   1.510   3.286   8.378  0.1732 -0.5960 -0.4296
 3974TIP3   OH236116   0.212   2.645   1.846 -0.1209  0.1223  0.6771
 3974TIP3    H136117   0.291   2.691   1.878  1.5508 -0.3489 -2.3988
 3974TIP3    H236118   0.219   2.558   1.884  0.1920  0.4559  1.4077
 3975TIP3   OH236119   4.071   0.666   7.633  0.2426 -0.4583 -0.1034
 3975TIP3    H136120   4.068   0.622   7.548 -0.2127  0.0366 -0.3443
 3975TIP3    H236121   4.162   0.696   7.641  0.1222  0.1031 -0.7293
 3976TIP3   OH236122   6.673   6.218   9.539  0.1590  0.5188  0.0683
 3976TIP3    H136123   6.578   6.214   9.529 -0.0824  2.0082  1.4593
 3976TIP3    H236124   6.689   6.191   9.629  1.2812 -1.7814 -0.7409
 3977TIP3   OH236125   4.780   5.179   1.735  0.3319  0.5218  0.3234
 3977TIP3    H136126   4.829   5.208   1.812  3.5875  1.4310 -1.8759
 3977TIP3    H236127   4.843   5.128   1.684 -2.0344 -1.0505 -1.2529
 3978TIP3   OH236128   7.321   1.083   1.435  0.1829 -0.3414  0.2066
 3978TIP3    H136129   7.336   0.994   1.466  2.0421  0.1814  0.9270
 3978TIP3    H236130   7.227   1.097   1.447 -0.2371 -2.3288 -0.3476
 3979TIP3   OH236131   5.183   3.052   0.381  0.5297 -0.1172  0.2302
 3979TIP3    H136132   5.191   3.058   0.476 -1.1117  1.6935  0.2940
 3979TIP3    H236133   5.216   3.136   0.348  0.6544 -0.5445 -0.7931
 3980TIP3   OH236134   7.210   0.281   7.930  0.4950  0.5037  0.2840
 3980TIP3    H136135   7.188   0.210   7.990 -0.3580  1.2171  0.8505
 3980TIP3    H236136   7.202   0.360   7.984 -0.4335  1.1760 -0.8129
 3981TIP3   OH236137   6.611   1.207   8.708  0.5750 -0.5833  0.0908
 3981TIP3    H136138   6.588   1.125   8.665 -0.7245 -1.0559  1.6023
 3981TIP3    H236139   6.592   1.274   8.643 -0.6153 -1.3271 -0.3570
 3982TIP3   OH236140   2.007   1.764   1.290 -0.5096  0.2190 -0.2852
 3982TIP3    H136141   2.012   1.672   1.267 -0.6888 -0.1857  1.2228
 3982TIP3    H236142   2.094   1.799   1.271  0.0204 -0.6145  0.5453
 3983TIP3   OH236143   3.978   5.639   2.796  0.1056 -0.1050  0.1086
 3983TIP3    H136144   3.998   5.601   2.881 -0.5610  0.8831  0.7168
 3983TIP3    H236145   3.915   5.709   2.814  0.4803  0.5832 -1.1039
 3984TIP3   OH236146   1.416   4.921   0.179 -0.2712  0.2284 -0.4780
 3984TIP3    H136147   1.400   4.875   0.097  0.8724 -0.9025 -0.0869
 3984TIP3    H236148   1.511   4.924   0.187 -0.3163 -1.6387  1.8514
 3985TIP3   OH236149   4.366   7.228   1.999 -0.0009 -0.0006 -0.8180
 3985TIP3    H136150   4.438   7.268   1.951  0.4473 -0.5022 -0.5700
 3985TIP3    H236151   4.400   7.216   2.088 -0.3933 -0.2359 -0.6980
 3986TIP3   OH236152   5.203   1.205   9.651 -0.1814  0.4270 -0.3104
 3986TIP3    H136153   5.163   1.200   9.564 -0.3506  0.7493 -0.2497
 3986TIP3    H236154   5.138   1.248   9.706  0.0692  0.5556 -0.1095
 3987TIP3   OH236155   6.160   4.677   0.064  0.1471  0.0633 -0.3916
 3987TIP3    H136156   6.172   4.769   0.084  1.4555 -0.0393 -0.6535
 3987TIP3    H236157   6.247   4.645   0.039 -0.0903 -1.4512  0.5385
 3988TIP3   OH236158   7.135   5.108   9.224 -0.3509  0.4452 -0.5625
 3988TIP3    H136159   7.081   5.060   9.287 -0.3013  0.7055 -0.3213
 3988TIP3    H236160   7.088   5.099   9.141 -0.4180  0.1044 -0.4879
 3989TIP3   OH236161   6.531   1.322   8.175 -0.1288  0.1800 -0.1019
 3989TIP3    H136162   6.498   1.239   8.138 -0.8062  0.6888 -0.6861
 3989TIP3    H236163   6.614   1.336   8.131  1.2724 -1.4368  1.8367
 3990TIP3   OH236164   6.635   2.562   1.418  0.1642 -0.6509 -0.4072
 3990TIP3    H136165   6.617   2.619   1.344  1.7924  0.3563 -0.0880
 3990TIP3    H236166   6.629   2.473   1.383  0.2739 -0.2061 -1.5876
 3991TIP3   OH236167   3.642   6.003   8.279 -0.4064 -0.2234  0.5646
 3991TIP3    H136168   3.610   5.989   8.190  1.2920  0.4424 -0.2056
 3991TIP3    H236169   3.582   5.953   8.335  0.9775 -4.4588 -1.3317
 3992TIP3   OH236170   6.400   3.344   0.141 -0.3580  0.4181 -0.4210
 3992TIP3    H136171   6.330   3.287   0.174 -1.2853  1.8326  0.1378
 3992TIP3    H236172   6.373   3.365   0.052  0.3002 -0.4768 -0.8485
 3993TIP3   OH236173   7.196   6.732   8.463  0.4068  0.5715  0.3663
 3993TIP3    H136174   7.221   6.654   8.513  0.5029 -0.4208 -1.1645
 3993TIP3    H236175   7.266   6.743   8.399 -0.4216  0.9430 -0.4959
 3994TIP3   OH236176   5.116   1.254   7.491  0.4392  0.3929  0.4875
 3994TIP3    H136177   5.093   1.227   7.580 -0.0355 -2.0685 -0.3083
 3994TIP3    H236178   5.032   1.269   7.448  0.4130 -2.1364 -0.5397
 3995TIP3   OH236179   0.305   6.618   6.778 -0.0876  0.1136  0.1113
 3995TIP3    H136180   0.263   6.701   6.799 -0.1392 -0.2058  1.3303
 3995TIP3    H236181   0.371   6.641   6.712 -1.7029  0.7210 -1.3441
 3996TIP3   OH236182   2.570   1.959   8.668 -0.0063  0.7059  0.0611
 3996TIP3    H136183   2.635   2.027   8.685 -0.4248  1.0629  0.2477
 3996TIP3    H236184   2.534   1.938   8.755  1.0342 -0.6784  0.1757
 3997TIP3   OH236185   0.789   0.522   7.132  0.2418 -0.4750  0.6617
 3997TIP3    H136186   0.881   0.516   7.107  0.1860 -2.0415  0.7527
 3997TIP3    H236187   0.750   0.579   7.066  1.0735 -0.6415  0.0080
 3998TIP3   OH236188   0.475   4.938   0.574  0.2328  0.7341  0.1421
 3998TIP3    H136189   0.415   4.873   0.537  1.5191 -0.1969 -0.3772
 3998TIP3    H236190   0.485   5.004   0.505  1.4658 -0.2320 -0.6394
 3999TIP3   OH236191   3.993   5.534   9.142  0.1630  0.2034  0.5571
 3999TIP3    H136192   4.045   5.459   9.175  1.0575  0.7249  0.3652
 3999TIP3    H236193   3.983   5.517   9.049 -0.0599  0.0830  0.6013
 4000TIP3   OH236194   5.021   6.502   8.026 -0.2841  0.6250 -0.3121
 4000TIP3    H136195   5.110   6.527   8.049 -0.3988  1.3712 -0.6380
 4000TIP3    H236196   5.026   6.408   8.005  0.1583  0.3511  0.9486
 4001TIP3   OH236197   5.095   4.597   7.458  0.4649 -0.3136 -0.1385
 4001TIP3    H136198   5.159   4.652   7.503  0.6331  0.4196 -1.2254
 4001TIP3    H236199   5.132   4.583   7.371 -0.2030 -1.0495 -0.3195
 4002TIP3   OH236200   5.673   4.764   1.941 -0.3417  0.7393  0.5536
 4002TIP3    H136201   5.667   4.723   2.027  0.8523 -0.3996  0.1330
 4002TIP3    H236202   5.591   4.813   1.932 -0.9583  0.0108  1.8853
 4003TIP3   OH236203   2.055   7.088   9.593  0.4723  0.2011 -0.3380
 4003TIP3    H136204   2.120   7.036   9.640 -0.7380 -0.8673  0.2405
 4003TIP3    H236205   2.074   7.179   9.617  1.6074 -0.0987 -0.0378
 4004TIP3   OH236206   4.717   7.420   1.112  0.6314 -0.9053 -0.0363
 4004TIP3    H136207   4.715   7.350   1.177  1.6273  1.3311  2.5743
 4004TIP3    H236208   4.636   7.469   1.126  0.6051 -0.6774 -0.8806
 4005TIP3   OH236209   4.353   3.381   1.147  0.4320  0.5275 -0.4376
 4005TIP3    H136210   4.311   3.389   1.062  0.8555 -1.7196 -0.9215
 4005TIP3    H236211   4.294   3.326   1.198  0.0605  2.0410  0.8621
 4006TIP3   OH236212   0.268   0.118   0.079  0.1722 -0.7834 -0.0404
 4006TIP3    H136213   0.311   0.186   0.027  0.8728 -0.9203  0.3444
 4006TIP3    H236214   0.283   0.038   0.029 -1.6017 -0.5253 -1.0601
 4007TIP3   OH236215   3.543   0.181   2.203  0.4482 -0.0670  0.2320
 4007TIP3    H136216   3.482   0.210   2.271  0.9468  0.5229  0.4370
 4007TIP3    H236217   3.558   0.088   2.223 -0.4898 -0.2615  0.0871
 4008TIP3   OH236218   3.156   0.738   1.167  0.2523  0.0316 -0.2712
 4008TIP3    H136219   3.216   0.794   1.216  1.0604 -1.2532  0.2382
 4008TIP3    H236220   3.212   0.687   1.108 -0.4313 -0.5119 -0.4674
 4009TIP3   OH236221   5.343   3.111   9.665  0.6737 -0.3422 -0.0383
 4009TIP3    H136222   5.359   3.017   9.680  0.0232 -0.7876 -1.8850
 4009TIP3    H236223   5.340   3.149   9.753  0.3359 -2.1558  0.7814
 4010TIP3   OH236224   0.318   0.762   8.535  0.2680 -0.7482  0.6650
 4010TIP3    H136225   0.239   0.796   8.577  1.0235  0.5637  1.0911
 4010TIP3    H236226   0.365   0.717   8.605  0.9279  0.3648  0.9640
 4011TIP3   OH236227   4.085   0.305   9.034 -0.0203 -0.1555 -0.3459
 4011TIP3    H136228   4.180   0.300   9.048 -0.1556 -0.9796  0.3642
 4011TIP3    H236229   4.049   0.236   9.091 -1.2648  1.9178  1.5266
 4012TIP3   OH236230   3.910   6.169   7.958 -0.2760 -1.2011  0.2467
 4012TIP3    H136231   3.910   6.132   8.046 -2.0474 -1.9385 -0.0258
 4012TIP3    H236232   3.876   6.258   7.968 -0.1395 -1.1585  0.3392
 4013TIP3   OH236233   1.291   4.272   6.575 -0.2590  0.3664 -0.2784
 4013TIP3    H136234   1.282   4.226   6.492 -1.4109  0.7434 -0.3727
 4013TIP3    H236235   1.341   4.350   6.553  2.1896 -1.0238 -0.0209
 4014TIP3   OH236236   2.590   6.580   1.126  0.3417 -0.1728 -0.4913
 4014TIP3    H136237   2.550   6.642   1.188 -0.1748 -0.8456 -0.1462
 4014TIP3    H236238   2.659   6.537   1.176  1.0331  0.4614 -0.8757
 4015TIP3   OH236239   4.280   3.789   7.038  0.2309 -0.0385 -0.0076
 4015TIP3    H136240   4.211   3.723   7.027 -0.7233  1.1387 -1.5257
 4015TIP3    H236241   4.361   3.738   7.040 -0.5756 -1.3774  0.6290
 4016TIP3   OH236242   2.525   4.808   8.974  0.1946 -0.0420 -0.1914
 4016TIP3    H136243   2.535   4.903   8.966  2.3303 -0.0396  1.6080
 4016TIP3    H236244   2.529   4.777   8.883 -1.8874  1.6213 -0.9422
 4017TIP3   OH236245   3.423   7.417   7.024 -0.2325  0.2107  0.2098
 4017TIP3    H136246   3.501   7.375   6.989 -0.0195  1.0452 -0.3341
 4017TIP3    H236247   3.358   7.411   6.954 -0.2474  0.6521  0.1826
 4018TIP3   OH236248   1.905   4.061   6.614 -0.0674 -0.1993 -0.4838
 4018TIP3    H136249   1.993   4.089   6.639  0.0678 -0.6785 -0.4191
 4018TIP3    H236250   1.909   4.050   6.519 -0.9810  3.0877 -1.0372
 4019TIP3   OH236251   1.343   6.016   0.991  0.0800  0.1193 -0.0148
 4019TIP3    H136252   1.353   5.939   0.936 -0.2386  0.3247 -0.3618
 4019TIP3    H236253   1.255   6.049   0.971  0.5818  1.1363 -0.6027
 4020TIP3   OH236254   7.159   4.427   2.813  0.2772 -0.0795  0.2244
 4020TIP3    H136255   7.190   4.412   2.902 -0.0332 -0.0168  0.3454
 4020TIP3    H236256   7.129   4.518   2.813 -0.6324 -0.3638  0.3376
 4021TIP3   OH236257   4.282   4.192   7.448 -0.3796  0.5380  0.1939
 4021TIP3    H136258   4.283   4.220   7.357  2.1383 -0.5193 -0.1664
 4021TIP3    H236259   4.358   4.234   7.488  0.7398 -1.9102  0.8161
 4022TIP3   OH236260   5.272   4.552   0.776  0.0651 -0.6837  0.4756
 4022TIP3    H136261   5.299   4.491   0.707  1.4021 -1.5495  1.7130
 4022TIP3    H236262   5.353   4.577   0.820 -0.4927  1.6755  0.3206
 4023TIP3   OH236263   5.310   3.811   0.548  0.1147 -0.7891 -0.1845
 4023TIP3    H136264   5.398   3.814   0.510 -0.6380 -2.2238 -2.1950
 4023TIP3    H236265   5.253   3.784   0.476 -2.1683  1.0648  0.7882
 4024TIP3   OH236266   6.957   1.924   1.403  0.0202 -0.6005  0.3665
 4024TIP3    H136267   6.895   1.886   1.340  1.9075 -1.6553 -0.9904
 4024TIP3    H236268   7.037   1.871   1.392  1.0143  0.3816  2.3650
 4025TIP3   OH236269   4.672   1.365   0.478  0.2012  0.7175 -0.0774
 4025TIP3    H136270   4.621   1.411   0.413  0.4555  0.6061 -0.3602
 4025TIP3    H236271   4.633   1.389   0.562 -1.2122 -0.4616 -0.3596
 4026TIP3   OH236272   0.469   1.601   7.358  0.2222  0.4940  0.0758
 4026TIP3    H136273   0.538   1.574   7.297  1.0218 -0.3734  1.3229
 4026TIP3    H236274   0.388   1.584   7.310  0.8442  0.7517 -1.1041
 4027TIP3   OH236275   5.790   6.478   0.462 -0.0799  0.1501  0.4320
 4027TIP3    H136276   5.694   6.483   0.458 -0.0555  0.4236  0.0158
 4027TIP3    H236277   5.817   6.464   0.371  0.3046  0.7499  0.4465
 4028TIP3   OH236278   5.154   2.423   8.731  0.3545  0.3611  0.5847
 4028TIP3    H136279   5.172   2.334   8.698  1.2278  0.1308  1.6282
 4028TIP3    H236280   5.063   2.439   8.706  0.0375 -1.0033  0.7453
 4029TIP3   OH236281   7.330   2.379   7.187 -0.3530 -0.1268  0.1422
 4029TIP3    H136282   7.292   2.324   7.256  1.2436 -0.7012  0.6086
 4029TIP3    H236283   7.341   2.464   7.228  0.8956 -0.5537  0.7322
 4030TIP3   OH236284   3.947   0.527   8.962  0.4974  0.1106 -0.1299
 4030TIP3    H136285   4.012   0.458   8.966  0.4230  0.0703  0.7922
 4030TIP3    H236286   3.994   0.603   8.927  1.0550  0.0923  0.5543
 4031TIP3   OH236287   3.070   6.237   9.155 -0.0321 -0.7558  0.1126
 4031TIP3    H136288   3.037   6.321   9.124  0.5322 -0.7319 -0.4352
 4031TIP3    H236289   3.028   6.172   9.099  0.4950 -0.7560 -0.2823
 4032TIP3   OH236290   0.379   6.698   0.461  0.0617  0.0309 -0.0273
 4032TIP3    H136291   0.457   6.731   0.417  1.2412 -1.0009  1.1988
 4032TIP3    H236292   0.350   6.624   0.408  0.8650 -0.5627  0.3409
 4033TIP3   OH236293   2.507   3.200   0.364 -0.4982 -0.3481 -0.0339
 4033TIP3    H136294   2.514   3.183   0.458 -0.9640  1.8630  0.4675
 4033TIP3    H236295   2.592   3.238   0.341 -1.6306  2.8375  0.4680
 4034TIP3   OH236296   2.636   5.876   1.407  0.1150  0.3319 -0.3948
 4034TIP3    H136297   2.552   5.897   1.448  0.4284  0.4374  0.1965
 4034TIP3    H236298   2.612   5.827   1.328 -0.4721 -0.3598  0.2048
 4035TIP3   OH236299   3.765   4.550   8.576  0.9333  0.7651 -0.5679
 4035TIP3    H136300   3.854   4.524   8.551  1.0647  1.8385 -1.2666
 4035TIP3    H236301   3.777   4.631   8.625  0.6183 -0.9046  2.4856
 4036TIP3   OH236302   1.168   6.015   8.261  0.1467 -0.2218  0.5005
 4036TIP3    H136303   1.223   6.075   8.211 -0.4502 -0.9420 -1.0926
 4036TIP3    H236304   1.089   6.065   8.280  0.4996  0.1525  1.0052
 4037TIP3   OH236305   4.109   5.340   7.421 -0.1121 -0.1486 -0.0776
 4037TIP3    H136306   4.182   5.355   7.362 -0.8975  0.1384 -0.9933
 4037TIP3    H236307   4.031   5.349   7.366 -0.9712  2.0844  1.3623
 4038TIP3   OH236308   6.508   0.240   0.696 -0.1242 -0.1712 -0.6967
 4038TIP3    H136309   6.473   0.242   0.607 -1.4627  2.0953 -0.2110
 4038TIP3    H236310   6.430   0.233   0.751  0.5807 -0.1074  0.3270
 4039TIP3   OH236311   5.133   5.416   1.250  0.1616 -0.1646 -0.4004
 4039TIP3    H136312   5.225   5.416   1.223  0.4276  3.8926 -0.0718
 4039TIP3    H236313   5.084   5.429   1.169 -0.2777 -2.6910 -0.6291
 4040TIP3   OH236314   3.506   3.024   9.539  0.6978  0.1423 -0.3923
 4040TIP3    H136315   3.566   3.099   9.540  2.0861 -0.8927 -1.6080
 4040TIP3    H236316   3.538   2.967   9.609  0.2642  0.2189 -0.1307
 4041TIP3   OH236317   1.153   1.504   8.936 -0.7170 -0.7409 -0.1228
 4041TIP3    H136318   1.098   1.579   8.958 -0.4647 -0.2848 -0.9895
 4041TIP3    H236319   1.190   1.476   9.019 -0.7503  0.1487  0.2031
 4042TIP3   OH236320   3.994   2.753   7.999  0.0546 -0.4650  0.4143
 4042TIP3    H136321   4.040   2.673   8.022 -1.2334 -1.0770  0.9729
 4042TIP3    H236322   4.040   2.823   8.046  1.9728 -0.6606 -1.0773
 4043TIP3   OH236323   3.531   6.773   2.497 -0.0643 -0.2445  0.2851
 4043TIP3    H136324   3.460   6.717   2.466 -0.2316  0.8444 -1.3937
 4043TIP3    H236325   3.603   6.713   2.513 -1.1316 -1.2892  1.4021
 4044TIP3   OH236326   4.289   6.923   1.302 -0.6007  0.4779  0.2130
 4044TIP3    H136327   4.278   6.949   1.211  0.1218  0.5429  0.1405
 4044TIP3    H236328   4.372   6.962   1.329 -0.6209  0.1429  0.7845
 4045TIP3   OH236329   6.689   2.582   0.476 -0.0082  0.1276 -0.2859
 4045TIP3    H136330   6.691   2.606   0.383 -0.1984 -1.2565 -0.6794
 4045TIP3    H236331   6.697   2.665   0.523  0.9160  0.7763 -1.5319
 4046TIP3   OH236332   3.086   2.512   7.239 -0.0241 -0.3152 -0.6792
 4046TIP3    H136333   3.061   2.577   7.174  0.8372  1.1451  0.3873
 4046TIP3    H236334   3.042   2.541   7.319  0.1970 -1.1741 -0.2349
 4047TIP3   OH236335   1.571   4.025   1.555  0.3001  0.4216 -0.1560
 4047TIP3    H136336   1.547   4.093   1.493  0.7095  0.2587 -0.4950
 4047TIP3    H236337   1.596   4.072   1.634 -1.3120  0.5957  0.2859
 4048TIP3   OH236338   1.715   4.271   7.076  0.5508  0.1978 -0.2217
 4048TIP3    H136339   1.765   4.281   6.995 -1.5840 -1.3973 -1.8793
 4048TIP3    H236340   1.658   4.347   7.078  0.7130  0.3169 -0.1481
 4049TIP3   OH236341   2.142   3.313   3.017 -0.0537 -0.2659  0.0767
 4049TIP3    H136342   2.145   3.219   3.035 -0.0334 -0.3796 -0.5138
 4049TIP3    H236343   2.049   3.336   3.023 -0.0254 -0.2621  0.5206
 4050TIP3   OH236344   2.577   4.249   8.435  1.0831 -0.1109 -0.1407
 4050TIP3    H136345   2.501   4.239   8.492  0.3917  1.9320 -0.6095
 4050TIP3    H236346   2.652   4.223   8.488  0.1292 -1.4658  0.5649
 4051TIP3   OH236347   6.619   3.649   9.165 -0.1452 -0.0401  0.2433
 4051TIP3    H136348   6.536   3.611   9.192  0.6064 -1.2287  1.0020
 4051TIP3    H236349   6.666   3.665   9.248  0.3102  0.7917 -0.1595
 4052TIP3   OH236350   3.826   3.864   0.110  0.3883 -0.3596  0.0715
 4052TIP3    H136351   3.920   3.868   0.093  0.0478 -0.1738 -2.1146
 4052TIP3    H236352   3.795   3.954   0.096 -0.3980 -0.8299 -1.4947
 4053TIP3   OH236353   5.936   4.205   0.390  0.0747  0.3596 -0.4874
 4053TIP3    H136354   5.910   4.128   0.440  2.4362 -0.4775 -0.4359
 4053TIP3    H236355   5.905   4.188   0.301 -0.1558 -0.2449 -0.2957
 4054TIP3   OH236356   6.787   3.622   7.857  0.0637  0.5091  0.4483
 4054TIP3    H136357   6.711   3.617   7.798  0.8273 -1.1263 -0.4483
 4054TIP3    H236358   6.788   3.537   7.901  1.7818  0.2070 -0.1094
 4055TIP3   OH236359   3.618   2.971   8.929  0.2988  0.8900  0.8544
 4055TIP3    H136360   3.525   2.968   8.950  0.4438 -0.0994  1.4214
 4055TIP3    H236361   3.623   3.023   8.849 -0.8748 -0.0803  0.1162
 4056TIP3   OH236362   4.679   5.422   7.033  0.4807  0.4027  0.4202
 4056TIP3    H136363   4.637   5.499   7.070  1.3603  1.5879 -0.9481
 4056TIP3    H236364   4.614   5.384   6.974  0.1728  0.2771  0.8333
 4057TIP3   OH236365   5.937   5.968   6.951  0.0841 -0.8273  0.2246
 4057TIP3    H136366   5.902   6.033   7.012  0.0335 -2.7691  2.3913
 4057TIP3    H236367   6.029   5.993   6.940 -0.4515  0.8593 -0.7995
 4058TIP3   OH236368   2.389   4.309   7.932 -0.1399  0.1663 -0.1407
 4058TIP3    H136369   2.308   4.289   7.885  1.3957 -2.0813 -2.0769
 4058TIP3    H236370   2.435   4.370   7.874  0.2896  0.0563  0.0822
 4059TIP3   OH236371   3.259   6.557   9.217  0.1098 -0.0428  0.0515
 4059TIP3    H136372   3.270   6.473   9.262 -0.6023  0.3585  1.0119
 4059TIP3    H236373   3.316   6.617   9.264  2.6659 -0.4871 -2.2375
 4060TIP3   OH236374   0.187   3.306   1.560  0.0640  0.2251  0.0569
 4060TIP3    H136375   0.215   3.231   1.612  1.2819 -0.0218 -0.9074
 4060TIP3    H236376   0.245   3.305   1.483 -0.0279  2.0295 -0.0727
 4061TIP3   OH236377   5.994   1.960   8.226 -0.1195 -0.6607  0.5274
 4061TIP3    H136378   6.089   1.967   8.213  0.0149  0.1190  1.8054
 4061TIP3    H236379   5.981   1.978   8.319 -1.4768 -1.3222  0.4875
 4062TIP3   OH236380   6.380   4.969   8.628 -0.4813 -0.2826 -0.1215
 4062TIP3    H136381   6.416   4.881   8.628  1.4283  0.4273  1.5404
 4062TIP3    H236382   6.359   4.987   8.720 -2.0645  0.5558 -0.6021
 4063TIP3   OH236383   7.281   1.482   8.072  0.1978  0.8575 -0.0287
 4063TIP3    H136384   7.345   1.498   8.141  0.8066  0.1029 -0.4009
 4063TIP3    H236385   7.282   1.387   8.061 -0.2891  0.9274 -0.6980
 4064TIP3   OH236386   0.572   3.045   1.069 -0.0840 -0.2151  0.4066
 4064TIP3    H136387   0.652   2.992   1.065  2.0467  2.5725  2.1317
 4064TIP3    H236388   0.544   3.039   1.160 -2.0564 -1.3133 -0.2166
 4065TIP3   OH236389   2.484   6.373   9.354  0.1127 -0.0751  0.5810
 4065TIP3    H136390   2.471   6.310   9.425 -0.1882 -1.7703 -0.9128
 4065TIP3    H236391   2.567   6.415   9.374  1.0401 -1.9617  0.8966
 4066TIP3   OH236392   1.966   3.445   7.883 -0.1531  0.3676 -0.5750
 4066TIP3    H136393   1.970   3.538   7.904 -0.3610  0.1920  0.2443
 4066TIP3    H236394   2.030   3.434   7.813  0.6125  0.9395  0.0235
 4067TIP3   OH236395   5.389   0.780   8.258  0.0726  0.4170  0.3342
 4067TIP3    H136396   5.427   0.841   8.321  0.1391  1.2563 -0.4991
 4067TIP3    H236397   5.294   0.787   8.273  0.1458 -2.1985  2.8989
 4068TIP3   OH236398   2.805   7.404   0.054  0.6636 -0.3298  0.5087
 4068TIP3    H136399   2.838   7.314   0.059  3.3652  0.5429  0.0635
 4068TIP3    H236400   2.870   7.451   0.001 -0.6905  1.8930  0.6753
 4069TIP3   OH236401   3.205   3.887   6.905  0.1279 -0.2236 -0.4381
 4069TIP3    H136402   3.262   3.881   6.982 -0.2012 -1.7832 -0.2845
 4069TIP3    H236403   3.142   3.816   6.916 -1.7197  1.2989 -0.7346
 4070TIP3   OH236404   5.824   3.555   6.513  0.1225  0.1074 -0.2494
 4070TIP3    H136405   5.729   3.565   6.513 -0.1163 -1.8724 -0.6882
 4070TIP3    H236406   5.847   3.552   6.606  0.0040  2.1555 -0.0893
 4071TIP3   OH236407   5.901   1.994   8.492 -0.0881  0.2409 -0.5169
 4071TIP3    H136408   5.837   2.060   8.518  0.4944  0.7942 -0.4448
 4071TIP3    H236409   5.982   2.044   8.478 -0.0764 -0.1974 -2.2647
 4072TIP3   OH236410   6.132   1.249   1.638  0.4908 -0.3454 -0.2288
 4072TIP3    H136411   6.077   1.270   1.563 -0.9012  0.3515  0.9149
 4072TIP3    H236412   6.218   1.286   1.617 -0.3498  1.4310 -0.7457
 4073TIP3   OH236413   3.668   2.917   1.980  0.0868 -0.0489  0.0231
 4073TIP3    H136414   3.662   2.957   1.893 -0.4736  1.3010  0.6547
 4073TIP3    H236415   3.737   2.851   1.972 -0.0262 -0.0091 -1.4608
 4074TIP3   OH236416   3.553   1.300   0.591  0.5718  0.0671 -0.1320
 4074TIP3    H136417   3.527   1.392   0.583 -1.0313 -0.5172 -3.6649
 4074TIP3    H236418   3.645   1.299   0.564  0.5867  0.6498 -0.1233
 4075TIP3   OH236419   5.097   6.114   9.280 -0.5342  0.0482 -0.1265
 4075TIP3    H136420   5.009   6.109   9.315 -0.1322 -0.7503  0.8187
 4075TIP3    H236421   5.108   6.034   9.229 -0.2334 -0.0282  0.0544
 4076TIP3   OH236422   1.577   5.202   9.075  0.3621 -0.0164  0.6249
 4076TIP3    H136423   1.556   5.258   9.150  1.1052  1.0779  0.0375
 4076TIP3    H236424   1.609   5.120   9.115 -1.3597 -0.3049  1.4954
 4077TIP3   OH236425   5.171   3.780   0.953  0.2104  0.3365  0.0063
 4077TIP3    H136426   5.193   3.805   1.043  1.0342 -0.6963  0.1104
 4077TIP3    H236427   5.179   3.685   0.952 -1.7454  0.1304 -0.6491
 4078TIP3   OH236428   0.854   3.533   1.717 -0.1176 -0.5196  0.3178
 4078TIP3    H136429   0.926   3.542   1.779  1.1332  1.3236 -1.2940
 4078TIP3    H236430   0.782   3.582   1.756  0.5373  0.3144  0.5073
 4079TIP3   OH236431   2.978   2.689   7.040 -0.0533 -0.0263  0.6652
 4079TIP3    H136432   2.909   2.735   6.992 -0.1706 -0.8797 -0.0295
 4079TIP3    H236433   3.025   2.757   7.087 -0.3348  0.7685 -0.1757
 4080TIP3   OH236434   1.788   2.063   9.136  0.1401  0.2427  0.3246
 4080TIP3    H136435   1.828   2.127   9.195  0.9956 -0.1754  0.1995
 4080TIP3    H236436   1.734   2.116   9.077 -0.3092  0.7165  1.1243
 4081TIP3   OH236437   2.684   4.811   1.795  0.1201  0.0397  0.0474
 4081TIP3    H136438   2.593   4.791   1.816  0.0847 -0.6480 -0.7415
 4081TIP3    H236439   2.732   4.731   1.817  0.3345 -0.0769 -0.8188
 4082TIP3   OH236440   7.122   7.154   0.885  1.0163  0.0780 -0.3829
 4082TIP3    H136441   7.099   7.061   0.889  1.0341  0.0487 -0.9656
 4082TIP3    H236442   7.208   7.159   0.927  0.4959  0.0102  0.7198
 4083TIP3   OH236443   2.600   5.468   0.860 -0.1490 -0.2555  0.1459
 4083TIP3    H136444   2.603   5.535   0.792  1.0834 -0.0829  0.3411
 4083TIP3    H236445   2.641   5.391   0.820 -1.8633 -1.0226 -0.1920
 4084TIP3   OH236446   3.287   5.307   8.145  0.5161 -0.0220 -0.2119
 4084TIP3    H136447   3.375   5.274   8.162  0.0364 -1.3952 -0.2002
 4084TIP3    H236448   3.230   5.249   8.196 -0.2256  3.2014  3.0725
 4085TIP3   OH236449   1.306   5.054   1.393 -0.0907 -0.0628 -0.7326
 4085TIP3    H136450   1.269   5.131   1.349 -0.8959 -0.4358 -0.7360
 4085TIP3    H236451   1.261   4.980   1.353 -1.9251 -0.3534  1.6251
 4086TIP3   OH236452   1.056   3.918   9.330 -0.2163  0.0985  0.2389
 4086TIP3    H136453   1.123   3.850   9.327 -0.8071 -0.7910  3.6384
 4086TIP3    H236454   0.976   3.872   9.353 -1.0153  1.7217  0.8598
 4087TIP3   OH236455   2.345   6.964   9.321  0.1813 -0.1448  0.2203
 4087TIP3    H136456   2.324   6.982   9.413  0.3644 -0.3541  0.3038
 4087TIP3    H236457   2.299   7.033   9.273 -0.7286 -0.6083  0.3944
 4088TIP3   OH236458   6.452   0.776   0.836 -0.0102 -0.5111 -0.0970
 4088TIP3    H136459   6.548   0.782   0.843  0.0006  2.5328 -1.2067
 4088TIP3    H236460   6.437   0.735   0.751  0.4537  1.4146 -1.1900
 4089TIP3   OH236461   0.154   6.460   2.462  0.5780 -0.6008 -0.1307
 4089TIP3    H136462   0.113   6.391   2.411 -0.5948  0.1984 -0.3288
 4089TIP3    H236463   0.080   6.512   2.495  1.3442 -0.5061  1.5315
 4090TIP3   OH236464   6.128   3.289   1.729  0.1549 -0.4568 -0.0755
 4090TIP3    H136465   6.056   3.316   1.786  0.6709 -0.0344  0.3778
 4090TIP3    H236466   6.105   3.324   1.643 -1.1345 -1.9452 -0.3997
 4091TIP3   OH236467   3.217   5.270   2.979 -0.3926 -0.6678 -0.0690
 4091TIP3    H136468   3.242   5.196   3.035  1.4214 -0.7193 -0.8945
 4091TIP3    H236469   3.294   5.327   2.978 -0.2839 -0.7455 -2.6354
 4092TIP3   OH236470   3.672   2.709   6.878 -0.7194  0.1133 -0.0271
 4092TIP3    H136471   3.653   2.621   6.911 -0.0797 -0.1700 -0.4066
 4092TIP3    H236472   3.650   2.705   6.785  2.6118 -0.7258 -0.9124
 4093TIP3   OH236473   5.975   4.995   2.247  0.7807 -0.4828 -0.4344
 4093TIP3    H136474   5.908   4.943   2.292  0.9885  0.4330  0.9983
 4093TIP3    H236475   6.009   5.054   2.314 -0.1519  2.2291 -2.1329
 4094TIP3   OH236476   1.214   1.422   2.471 -0.4697  0.4795 -0.2427
 4094TIP3    H136477   1.301   1.392   2.498 -1.2721 -3.7161 -1.5516
 4094TIP3    H236478   1.157   1.398   2.545 -0.9009  0.7050 -0.4983
 4095TIP3   OH236479   1.953   6.291   2.771 -0.1426 -0.2493 -0.1644
 4095TIP3    H136480   1.859   6.280   2.784 -0.3653 -0.0063 -1.4174
 4095TIP3    H236481   1.974   6.374   2.814 -0.2283 -0.9323  1.2529
 4096TIP3   OH236482   6.172   2.863   7.004  0.1700  0.6588 -0.0200
 4096TIP3    H136483   6.256   2.816   7.005 -0.5668 -0.6993  0.1417
 4096TIP3    H236484   6.169   2.903   6.917  1.5935  1.9001  0.4620
 4097TIP3   OH236485   4.769   3.072   2.973 -0.2591 -0.2848  0.1546
 4097TIP3    H136486   4.692   3.103   2.926 -0.4556 -1.5316 -0.4079
 4097TIP3    H236487   4.789   3.141   3.036 -0.4470  1.1028 -1.2399
 4098TIP3   OH236488   7.069   3.141   9.465  0.1351  0.2934  0.2873
 4098TIP3    H136489   7.079   3.195   9.387  0.5448  0.8415  0.7034
 4098TIP3    H236490   7.091   3.053   9.437  0.9086  0.5914 -0.0685
 4099TIP3   OH236491   6.451   5.468   6.426  0.1217  0.2101  0.3927
 4099TIP3    H136492   6.389   5.479   6.354  1.4265  0.5435 -0.7190
 4099TIP3    H236493   6.398   5.435   6.499 -1.1031 -0.9630 -0.9654
 4100TIP3   OH236494   7.386   2.648   8.768  0.6346  0.3843  0.1472
 4100TIP3    H136495   7.444   2.660   8.843  1.1881  0.1941 -0.2411
 4100TIP3    H236496   7.303   2.620   8.806  1.4574 -1.6647  0.5875
 4101TIP3   OH236497   0.667   4.840   1.509 -0.1194 -0.1767  0.0173
 4101TIP3    H136498   0.738   4.798   1.558  0.3533  1.2303  0.5753
 4101TIP3    H236499   0.697   4.839   1.418  0.5160  0.1823  0.2146
 4102TIP3   OH236500   3.553   2.845   8.535  0.1747 -0.3627  0.3996
 4102TIP3    H136501   3.643   2.813   8.525  0.2950  0.3655 -1.1202
 4102TIP3    H236502   3.563   2.939   8.550 -0.3378 -0.0990 -0.7706
 4103TIP3   OH236503   2.227   4.530   8.083 -0.0144 -0.2537 -0.0813
 4103TIP3    H136504   2.133   4.545   8.087  0.1355  0.5445  2.2439
 4103TIP3    H236505   2.238   4.439   8.112 -0.1594 -1.2884 -2.9311
 4104TIP3   OH236506   5.192   0.657   2.096  0.1065 -0.0134 -0.2316
 4104TIP3    H136507   5.223   0.576   2.136 -0.4253 -0.5305 -0.8457
 4104TIP3    H236508   5.175   0.715   2.170 -0.4599 -0.8131  0.2872
 4105TIP3   OH236509   0.481   5.041   1.506 -0.0137  0.0601 -0.4059
 4105TIP3    H136510   0.551   4.977   1.520 -0.9350 -0.9461 -0.2522
 4105TIP3    H236511   0.405   5.003   1.551 -0.6641  1.1189 -0.5804
 4106TIP3   OH236512   3.687   1.974   7.929  0.1719  0.9304  0.0254
 4106TIP3    H136513   3.640   1.899   7.964  2.1031  0.5272  1.9302
 4106TIP3    H236514   3.706   1.950   7.838  0.6519 -0.8526  0.5607
 4107TIP3   OH236515   5.760   2.773   7.507 -0.1246 -0.1267 -0.5164
 4107TIP3    H136516   5.664   2.767   7.512 -0.2615  2.0731  1.6526
 4107TIP3    H236517   5.781   2.746   7.418 -2.8207 -0.1647 -1.2272
 4108TIP3   OH236518   3.964   3.100   2.019 -0.3724 -0.2916  0.2357
 4108TIP3    H136519   4.049   3.078   2.056 -0.9422  0.0647  1.8037
 4108TIP3    H236520   3.918   3.016   2.014 -1.2390 -0.0510  2.8690
 4109TIP3   OH236521   2.652   2.373   2.588 -0.3026  0.4329  0.1002
 4109TIP3    H136522   2.692   2.454   2.622  0.0187  0.8726 -1.2546
 4109TIP3    H236523   2.561   2.377   2.618 -0.4186  1.5457 -0.3452
 4110TIP3   OH236524   7.342   5.962   8.394 -0.5593  0.8400  0.3283
 4110TIP3    H136525   7.349   6.032   8.328 -0.4721  0.9611  0.4643
 4110TIP3    H236526   7.384   5.999   8.472  2.6825 -0.5895 -0.5640
 4111TIP3   OH236527   0.225   5.530   0.291 -0.2770 -0.1713 -0.1142
 4111TIP3    H136528   0.295   5.550   0.353  0.0436  2.6282 -1.2285
 4111TIP3    H236529   0.269   5.521   0.207 -1.0841 -0.0986 -0.5526
 4112TIP3   OH236530   6.430   3.906   9.404  0.2178  0.8408  0.4276
 4112TIP3    H136531   6.444   3.817   9.437  0.9801  1.0775  0.7734
 4112TIP3    H236532   6.377   3.895   9.325  0.7086  0.0378  0.2033
 4113TIP3   OH236533   1.648   3.170   2.622  0.2666  0.2195  0.3902
 4113TIP3    H136534   1.605   3.231   2.563 -0.0282 -0.8073 -0.4907
 4113TIP3    H236535   1.637   3.209   2.709 -1.0207  0.7809 -0.0027
 4114TIP3   OH236536   2.202   1.117   0.492  0.6231 -0.6198  0.3964
 4114TIP3    H136537   2.242   1.203   0.505  1.1231 -1.1375  2.7685
 4114TIP3    H236538   2.120   1.122   0.541 -0.1022 -1.0283 -0.7389
 4115TIP3   OH236539   3.923   5.967   0.033  0.1453  0.4663  0.2725
 4115TIP3    H136540   3.949   5.875   0.024 -0.8563  0.2747 -0.8079
 4115TIP3    H236541   3.991   6.015  -0.015  0.9244  0.3528  1.2231
 4116TIP3   OH236542   5.228   0.613   1.640 -0.1938  0.2795 -0.0877
 4116TIP3    H136543   5.275   0.695   1.626  0.8754 -0.0556  1.3404
 4116TIP3    H236544   5.139   0.639   1.660  0.1958  1.1127  0.5948
 4117TIP3   OH236545   0.489   5.548   1.314  0.4679 -0.2921 -0.3683
 4117TIP3    H136546   0.420   5.610   1.338  1.3051  1.0021 -1.1762
 4117TIP3    H236547   0.451   5.462   1.332 -0.6268  0.4382  1.0685
 4118TIP3   OH236548   6.095   5.847   8.548  0.3613 -0.1435 -0.0467
 4118TIP3    H136549   6.158   5.817   8.482  0.1935 -0.7833  0.0812
 4118TIP3    H236550   6.034   5.903   8.499  1.1665  0.6889 -0.1224
 4119TIP3   OH236551   5.661   2.815   9.548  0.0181  0.1461  0.1100
 4119TIP3    H136552   5.668   2.898   9.595  1.6405 -1.0869  2.2184
 4119TIP3    H236553   5.746   2.803   9.505  1.0206 -1.7887  2.4126
 4120TIP3   OH236554   3.654   1.282   1.827 -0.0683 -0.1903 -1.4659
 4120TIP3    H136555   3.697   1.197   1.832 -2.8590 -1.6639 -0.5844
 4120TIP3    H236556   3.623   1.299   1.916  0.4846  1.8353 -1.6041
 4121TIP3   OH236557   5.811   4.475   0.389  0.3138 -1.0032  0.7912
 4121TIP3    H136558   5.854   4.406   0.439  0.1597 -0.7387  1.3045
 4121TIP3    H236559   5.877   4.544   0.382  0.0687 -0.7032  1.3541
 4122TIP3   OH236560   6.601   0.659   0.453 -0.0209 -0.4789 -0.1773
 4122TIP3    H136561   6.621   0.628   0.364  0.3506 -1.0981  0.1206
 4122TIP3    H236562   6.659   0.609   0.510  0.7060  0.8658  0.3129
 4123TIP3   OH236563   3.320   5.168   7.060  0.2422 -0.7341 -0.2632
 4123TIP3    H136564   3.335   5.216   7.141  0.9753 -1.3842  0.0080
 4123TIP3    H236565   3.407   5.136   7.035  0.8727  2.8401 -3.5504
 4124TIP3   OH236566   7.230   3.661   1.309  0.2206  0.3150 -0.0999
 4124TIP3    H136567   7.285   3.737   1.328  0.3204  0.2497 -0.1273
 4124TIP3    H236568   7.162   3.664   1.375  0.7585 -0.1075  0.4785
 4125TIP3   OH236569   6.896   1.779   7.824  0.2061 -0.4019  0.1895
 4125TIP3    H136570   6.935   1.781   7.912  2.0293  1.6675 -0.5728
 4125TIP3    H236571   6.851   1.863   7.816 -1.0064 -1.0953 -0.4398
 4126TIP3   OH236572   1.929   1.124   2.687  0.8667 -0.3464 -0.1817
 4126TIP3    H136573   1.898   1.069   2.614 -1.5988  0.0217  0.4847
 4126TIP3    H236574   1.870   1.199   2.686  0.6405 -0.4144  2.2818
 4127TIP3   OH236575   4.935   0.445   8.258  0.4354  0.0818  0.6642
 4127TIP3    H136576   4.934   0.353   8.285  0.1448 -0.0900  0.0747
 4127TIP3    H236577   4.894   0.492   8.331  0.7985 -0.2234  1.0704
 4128TIP3   OH236578   0.659   3.127   9.203  0.1657  0.0340  0.3410
 4128TIP3    H136579   0.706   3.073   9.267 -0.8155  0.6489  1.6227
 4128TIP3    H236580   0.672   3.217   9.233 -0.8676  0.2857  0.0738
 4129TIP3   OH236581   4.487   0.152   1.189  0.0184 -0.2645 -0.2420
 4129TIP3    H136582   4.426   0.082   1.213 -2.1379  1.7723  0.5618
 4129TIP3    H236583   4.466   0.224   1.249 -0.2146  2.2761 -3.1431
 4130TIP3   OH236584   1.888   3.721   7.392  0.4291  0.1254 -0.0682
 4130TIP3    H136585   1.818   3.706   7.327  1.0498 -0.0656 -0.7056
 4130TIP3    H236586   1.872   3.656   7.460  0.2470 -0.2141 -0.4294
 4131TIP3   OH236587   5.822   5.279   2.808 -0.4066 -0.4925  0.1952
 4131TIP3    H136588   5.752   5.249   2.867 -1.0130 -0.7839 -0.6539
 4131TIP3    H236589   5.900   5.232   2.838 -0.6276 -0.3739  0.9818
 4132TIP3   OH236590   5.440   6.881   8.680 -0.1148 -0.0221  0.5374
 4132TIP3    H136591   5.385   6.849   8.609  1.1606 -1.4485  0.1212
 4132TIP3    H236592   5.491   6.952   8.641 -0.6514  0.3573  0.5269
 4133TIP3   OH236593   6.086   2.432   8.459  0.1264  0.7787 -0.3528
 4133TIP3    H136594   6.057   2.440   8.368  0.6840  0.7560 -0.5343
 4133TIP3    H236595   6.122   2.518   8.481  0.7087  0.5524 -0.4071
 4134TIP3   OH236596   7.104   4.306   8.823 -0.0988  0.4780 -0.0201
 4134TIP3    H136597   7.139   4.310   8.912  0.7365  1.2156 -0.3684
 4134TIP3    H236598   7.140   4.226   8.786 -0.4012  0.2010  0.2783
 4135TIP3   OH236599   0.762   5.043   2.097 -0.6149  0.2629 -0.4450
 4135TIP3    H136600   0.815   4.972   2.131  0.9144  1.8869  0.7711
 4135TIP3    H236601   0.803   5.068   2.015  0.2594  1.1750  0.2397
 4136TIP3   OH236602   4.317   3.724   2.352  0.0462 -0.6284  0.1552
 4136TIP3    H136603   4.318   3.746   2.259  1.0402  0.8933  0.5028
 4136TIP3    H236604   4.401   3.682   2.368  0.4527  0.3638  0.6467
 4137TIP3   OH236605   5.053   4.960   8.079  0.2790  0.7275  0.2235
 4137TIP3    H136606   4.959   4.949   8.069  0.6363 -1.0465 -1.6300
 4137TIP3    H236607   5.072   5.044   8.036 -0.4546  1.2618  0.9049
 4138TIP3   OH236608   6.600   3.878   7.920 -0.6392 -0.1180  0.0970
 4138TIP3    H136609   6.587   3.783   7.911 -2.1699 -0.0798  1.4054
 4138TIP3    H236610   6.645   3.904   7.840 -1.0151 -1.8182 -0.7113
 4139TIP3   OH236611   5.849   0.603   9.480 -0.3088  0.1670  0.2134
 4139TIP3    H136612   5.894   0.670   9.532  0.2153 -0.0174  0.0010
 4139TIP3    H236613   5.785   0.652   9.429  0.1349  0.5238 -0.0110
 4140TIP3   OH236614   3.031   3.850   0.353 -1.1213  0.2624 -0.3181
 4140TIP3    H136615   2.938   3.841   0.374 -1.2753  0.7523 -0.7566
 4140TIP3    H236616   3.075   3.784   0.407 -1.6866  0.2653  0.1560
 4141TIP3   OH236617   4.660   3.298   7.789 -0.4076 -0.7499  0.0041
 4141TIP3    H136618   4.744   3.255   7.772 -0.1035  0.4547 -1.8624
 4141TIP3    H236619   4.681   3.391   7.795 -1.0555 -0.6912  3.9118
 4142TIP3   OH236620   1.503   1.095   2.050  0.3197  0.1442  0.5528
 4142TIP3    H136621   1.444   1.142   2.109 -0.3605 -0.6382  0.5114
 4142TIP3    H236622   1.505   1.006   2.084  0.7812 -0.0524  0.0248
 4143TIP3   OH236623   2.812   4.437   0.293  0.0771  0.2879  0.6079
 4143TIP3    H136624   2.826   4.357   0.243  0.1090  1.5822 -1.5524
 4143TIP3    H236625   2.727   4.469   0.264  0.6255  1.6997  0.4883
 4144TIP3   OH236626   0.055   2.654   7.486 -0.8890 -0.3078  0.1974
 4144TIP3    H136627   0.129   2.631   7.429 -1.6816 -0.7758 -0.6755
 4144TIP3    H236628   0.008   2.571   7.497 -1.4996  0.0661  0.4161
 4145TIP3   OH236629   2.033   3.567   0.739 -0.2089  0.5000  0.3264
 4145TIP3    H136630   1.949   3.561   0.785 -0.9949 -2.2605 -1.1919
 4145TIP3    H236631   2.018   3.631   0.670 -0.3435  1.5945  1.3428
 4146TIP3   OH236632   4.028   3.229   8.980  0.7742  0.2755  0.2522
 4146TIP3    H136633   4.122   3.217   8.964  0.1914 -1.0179 -2.8405
 4146TIP3    H236634   3.995   3.269   8.901 -1.5411 -0.7409  0.6232
 4147TIP3   OH236635   1.833   2.109   8.293 -0.1638  0.6454 -0.0793
 4147TIP3    H136636   1.836   2.170   8.219 -0.3705  1.0622  0.2463
 4147TIP3    H236637   1.785   2.157   8.361 -1.7013 -0.4587 -0.3412
 4148TIP3   OH236638   6.141   3.414   6.733  0.3926  0.6043  0.5114
 4148TIP3    H136639   6.085   3.348   6.694  0.0180  1.1263  0.1526
 4148TIP3    H236640   6.085   3.491   6.744  1.2654  1.5106 -0.8738
 4149TIP3   OH236641   5.059   0.439   1.867 -0.2493  0.1149 -1.0737
 4149TIP3    H136642   5.152   0.430   1.884 -0.5488 -1.3284  0.0577
 4149TIP3    H236643   5.049   0.526   1.827  1.7094 -0.2424 -2.4641
 4150TIP3   OH236644   4.852   5.539   7.841 -0.4329  0.0089  0.2817
 4150TIP3    H136645   4.792   5.471   7.811 -0.1885 -0.8930  1.7256
 4150TIP3    H236646   4.814   5.570   7.923  0.9971 -0.5140  1.1820
 4151TIP3   OH236647   6.351   1.411   6.250  0.4204  0.2077  0.0650
 4151TIP3    H136648   6.423   1.423   6.312 -0.2152 -2.2464  1.3871
 4151TIP3    H236649   6.307   1.496   6.248  2.1816  1.1850  0.7152
 4152TIP3   OH236650   0.453   2.273   0.027  0.4906  0.1083  0.3507
 4152TIP3    H136651   0.531   2.328   0.026  0.4997  0.0897 -0.2194
 4152TIP3    H236652   0.383   2.331   0.057  0.0860  1.0215 -2.0709
 4153TIP3   OH236653   3.923   5.160   7.735  0.2283  0.2768  0.0163
 4153TIP3    H136654   3.853   5.118   7.685  0.7336  0.0506 -0.5078
 4153TIP3    H236655   3.896   5.252   7.742  0.3144  0.3925 -0.9884
 4154TIP3   OH236656   4.197   1.010   2.313 -0.5006  0.1403  0.2564
 4154TIP3    H136657   4.246   1.070   2.257 -2.1789 -0.7499 -2.3839
 4154TIP3    H236658   4.228   0.923   2.287 -2.7834 -0.3976 -0.9175
 4155TIP3   OH236659   0.542   1.329   1.418 -0.2054 -0.0279 -0.5163
 4155TIP3    H136660   0.532   1.424   1.407 -1.7314 -0.2279 -1.0515
 4155TIP3    H236661   0.577   1.319   1.507  1.3608  1.0810 -0.9716
 4156TIP3   OH236662   4.731   5.095   6.943  0.2471  0.0993  0.1775
 4156TIP3    H136663   4.685   5.061   7.019  1.1735 -0.3355  0.5558
 4156TIP3    H236664   4.788   5.024   6.915  1.8241  1.1317  0.6565
 4157TIP3   OH236665   2.957   0.320   7.418 -0.5974 -0.1478  0.5158
 4157TIP3    H136666   2.895   0.291   7.351  1.2462 -2.8032 -0.1787
 4157TIP3    H236667   2.908   0.314   7.500 -1.4332 -1.7440 -0.0607
 4158TIP3   OH236668   3.186   7.276   7.654  0.2984  0.3157  0.3122
 4158TIP3    H136669   3.148   7.307   7.736 -0.7706  0.4758 -0.2251
 4158TIP3    H236670   3.265   7.229   7.681  0.6508  1.4435  1.3197
 4159TIP3   OH236671   6.614   0.018   0.528  0.4877 -0.1353  0.3026
 4159TIP3    H136672   6.572   0.058   0.604 -1.2909 -0.7282 -0.3155
 4159TIP3    H236673   6.637  -0.070   0.557 -0.1558 -0.3484  0.1790
 4160TIP3   OH236674   5.123   1.394   1.212 -0.3580  0.1971  0.2329
 4160TIP3    H136675   5.210   1.366   1.184 -0.0389  1.1330  0.2681
 4160TIP3    H236676   5.105   1.473   1.162 -0.6228  0.7601  1.1806
 4161TIP3   OH236677   6.648   3.751   8.416 -0.3365 -0.2821  0.1184
 4161TIP3    H136678   6.596   3.747   8.497  0.7166 -0.0587  0.8340
 4161TIP3    H236679   6.737   3.734   8.445 -0.1168 -1.5698 -1.2070
 4162TIP3   OH236680   2.298   6.594   8.141 -0.1399 -0.4190 -0.2481
 4162TIP3    H136681   2.246   6.541   8.201  1.6104  0.1276  1.9293
 4162TIP3    H236682   2.247   6.674   8.129  1.3351  1.6813  4.6612
 4163TIP3   OH236683   0.072   0.974   9.356  0.0821 -0.1124 -0.5299
 4163TIP3    H136684   0.067   1.059   9.313 -0.9280 -0.1536 -0.5030
 4163TIP3    H236685   0.138   0.926   9.306  1.5437  1.0710  0.1527
 4164TIP3   OH236686   1.330   3.198   1.300 -0.0233 -0.0264  0.1606
 4164TIP3    H136687   1.403   3.168   1.246 -0.7752 -0.7047 -0.5035
 4164TIP3    H236688   1.339   3.294   1.301 -0.1134  0.0169 -1.3411
 4165TIP3   OH236689   7.078   3.478   9.306  0.3013  0.0481  0.4531
 4165TIP3    H136690   7.010   3.526   9.259 -0.4073  1.0287  2.3816
 4165TIP3    H236691   7.135   3.444   9.237  0.7591  3.5155 -1.0915
 4166TIP3   OH236692   6.288   3.290   6.936  0.1464  0.0068  0.2460
 4166TIP3    H136693   6.331   3.219   6.889  0.8471  0.4889  0.1483
 4166TIP3    H236694   6.258   3.350   6.867 -1.9602 -0.9966  0.2107
 4167TIP3   OH236695   5.943   7.050   2.613  0.0588  0.0842  0.7430
 4167TIP3    H136696   5.917   6.998   2.689  0.4225  0.0495  0.8459
 4167TIP3    H236697   5.863   7.096   2.587 -0.8027 -1.9858 -0.5254
 4168TIP3   OH236698   2.193   6.214   0.928 -0.1202 -1.0367  0.4396
 4168TIP3    H136699   2.245   6.251   0.857 -0.6974  1.4356  1.1925
 4168TIP3    H236700   2.110   6.188   0.887 -0.8703  1.3451  0.2749
 4169TIP3   OH236701   0.766   1.656   2.180 -0.7100  0.3157 -0.0619
 4169TIP3    H136702   0.805   1.673   2.265  1.3216  1.3454 -1.1402
 4169TIP3    H236703   0.823   1.700   2.117 -2.6776  0.4179 -1.9043
 4170TIP3   OH236704   1.426   0.897   8.726 -0.2946  0.1434 -0.0359
 4170TIP3    H136705   1.446   0.804   8.713 -0.0612  0.2024 -0.0985
 4170TIP3    H236706   1.330   0.901   8.725 -0.2994  0.0130 -0.8464
 4171TIP3   OH236707   0.006   3.308   9.417 -0.0592  0.4154 -0.2685
 4171TIP3    H136708   0.099   3.331   9.416 -0.5090  2.3867 -0.4315
 4171TIP3    H236709  -0.038   3.384   9.454 -1.5401 -0.9227  0.9271
 4172TIP3   OH236710   0.697   5.915   7.240 -0.2326  0.5681 -0.3191
 4172TIP3    H136711   0.756   5.923   7.165  1.0470  1.0976  0.6869
 4172TIP3    H236712   0.756   5.896   7.314 -1.4308  0.2548  0.5809
 4173TIP3   OH236713   0.654   3.458   9.557  0.3984  0.3583 -0.1290
 4173TIP3    H136714   0.566   3.456   9.519  0.7915  1.2616 -1.1174
 4173TIP3    H236715   0.641   3.493   9.645 -0.2981 -0.0217 -0.0728
 4174TIP3   OH236716   5.609   3.512   8.718 -0.6070 -0.2705 -0.0113
 4174TIP3    H136717   5.543   3.460   8.671 -1.6442  0.4660  0.5727
 4174TIP3    H236718   5.570   3.528   8.804 -0.3728  1.5092 -0.1826
 4175TIP3   OH236719   6.661   0.455   9.495  0.0783 -0.0554  0.0805
 4175TIP3    H136720   6.673   0.395   9.422 -0.5125  1.1695 -1.0605
 4175TIP3    H236721   6.676   0.402   9.573 -1.8621 -2.0633 -0.8178
 4176TIP3   OH236722   5.570   0.866   8.050  0.7858 -0.2192 -0.3300
 4176TIP3    H136723   5.563   0.791   7.990  1.1361 -1.5717  1.2387
 4176TIP3    H236724   5.508   0.846   8.120 -0.2090  1.7253 -0.6003
 4177TIP3   OH236725   5.560   4.964   9.137  0.2421  0.5272  0.8148
 4177TIP3    H136726   5.487   5.023   9.121 -0.0753 -0.2074 -0.6578
 4177TIP3    H236727   5.537   4.918   9.217 -3.1770 -2.8116 -1.7235
 4178TIP3   OH236728   7.208   3.388   8.346  0.0602 -0.4150  0.3078
 4178TIP3    H136729   7.250   3.303   8.360 -0.3432 -0.5058  1.0294
 4178TIP3    H236730   7.279   3.451   8.354  0.3314 -0.6690 -0.0520
 4179TIP3   OH236731   4.103   4.417   8.954  0.5726  0.4487  0.1434
 4179TIP3    H136732   4.182   4.365   8.968  0.6549  0.5337 -0.0006
 4179TIP3    H236733   4.131   4.507   8.969  0.3087  0.4117  0.8938
 4180TIP3   OH236734   6.920   2.149   7.183 -0.0840  0.1021 -0.1050
 4180TIP3    H136735   6.974   2.217   7.145 -0.1541 -1.1843 -2.7619
 4180TIP3    H236736   6.903   2.178   7.273  0.5167  3.1418 -0.8706
 4181TIP3   OH236737   1.726   5.033   1.288  0.5077 -0.5418  0.1474
 4181TIP3    H136738   1.719   5.098   1.218  1.0075 -0.8070 -0.1548
 4181TIP3    H236739   1.815   5.042   1.321  0.1616 -0.1522  1.0203
 4182TIP3   OH236740   3.258   4.718   9.114 -0.0213  0.3769 -0.2059
 4182TIP3    H136741   3.250   4.813   9.108  1.3797  0.5896  0.7636
 4182TIP3    H236742   3.339   4.704   9.162 -1.3187 -1.2764  1.6721
 4183TIP3   OH236743   2.407   5.170   7.655 -0.2413 -0.4098  0.8442
 4183TIP3    H136744   2.435   5.260   7.673 -1.7690 -0.1242  1.9446
 4183TIP3    H236745   2.319   5.179   7.619 -0.0855 -1.4429  0.1649
 4184TIP3   OH236746   0.383   2.220   0.358  0.0644 -0.4573 -0.0664
 4184TIP3    H136747   0.299   2.175   0.349  1.0270 -2.6259  1.0421
 4184TIP3    H236748   0.388   2.277   0.282 -1.0012 -2.6962 -1.9342
 4185TIP3   OH236749   5.471   0.190   0.554 -0.5184  0.4932 -0.0926
 4185TIP3    H136750   5.482   0.222   0.643 -0.7562  0.7771 -0.1639
 4185TIP3    H236751   5.395   0.132   0.558  0.8145 -1.3441  0.3663
 4186TIP3   OH236752   6.853   3.862   7.559 -0.2848  0.6144  0.3290
 4186TIP3    H136753   6.900   3.816   7.629 -1.3205  0.7004  1.0997
 4186TIP3    H236754   6.920   3.913   7.515  0.4432  0.3288  1.0765
 4187TIP3   OH236755   4.695   3.866   2.520  0.9151  0.1414  0.0885
 4187TIP3    H136756   4.735   3.912   2.593 -1.5577 -0.0634  1.7117
 4187TIP3    H236757   4.669   3.936   2.459  1.1196  0.5042  0.4148
 4188TIP3   OH236758   5.710   6.925   1.686 -0.1503 -0.9587 -0.3573
 4188TIP3    H136759   5.805   6.926   1.699 -0.3302  0.7764  1.2752
 4188TIP3    H236760   5.698   6.883   1.601  2.1842  0.2779 -1.3952
 4189TIP3   OH236761   0.811   5.347   0.116  0.2389  0.1498  0.2111
 4189TIP3    H136762   0.830   5.260   0.153 -0.5983  0.6377  1.8861
 4189TIP3    H236763   0.716   5.353   0.115  0.2678  1.6021  1.5906
 4190TIP3   OH236764   3.015   5.387   2.272  0.0474 -0.2084 -0.0101
 4190TIP3    H136765   2.984   5.466   2.316 -0.6846 -0.2425 -0.4483
 4190TIP3    H236766   3.052   5.418   2.190 -1.9260 -0.4407 -1.0638
 4191TIP3   OH236767   0.342   6.054   8.052  0.0355 -0.0503 -0.0391
 4191TIP3    H136768   0.301   5.974   8.085 -0.6972 -0.5172 -1.9698
 4191TIP3    H236769   0.292   6.125   8.094  0.5495 -0.5527  1.5108
 4192TIP3   OH236770   1.555   1.212   7.913  0.6182 -0.0527 -0.3648
 4192TIP3    H136771   1.545   1.145   7.980 -0.2528 -0.0237 -0.4558
 4192TIP3    H236772   1.511   1.289   7.950  0.3850  0.0466 -0.8387
 4193TIP3   OH236773   5.776   7.375   0.231 -0.4654 -0.1779  0.3651
 4193TIP3    H136774   5.689   7.414   0.221  0.0461  0.9288  0.0721
 4193TIP3    H236775   5.813   7.419   0.307  1.1250  1.9257 -1.5040
 4194TIP3   OH236776   1.055   1.488   8.139  0.9022  0.3152  0.0047
 4194TIP3    H136777   1.073   1.394   8.144  1.2139  0.3838  0.2247
 4194TIP3    H236778   1.045   1.506   8.046  2.3089  0.3312 -0.1622
 4195TIP3   OH236779   7.121   2.221   7.761 -0.5683 -0.1627 -0.1101
 4195TIP3    H136780   7.083   2.295   7.715  0.1024  0.1029 -0.2555
 4195TIP3    H236781   7.079   2.221   7.847 -0.4061  0.5263 -0.0253
 4196TIP3   OH236782   5.436   3.227   2.017  0.2542 -0.7507 -0.2580
 4196TIP3    H136783   5.395   3.175   1.948  1.4391 -0.2290 -1.3949
 4196TIP3    H236784   5.363   3.275   2.057 -0.6191 -1.9695 -0.3184
 4197TIP3   OH236785   3.813   4.852   7.697  0.4024  0.4315 -0.2458
 4197TIP3    H136786   3.831   4.801   7.618 -2.2207 -0.1780 -0.5391
 4197TIP3    H236787   3.889   4.838   7.753  1.9881  0.2717 -2.3405
 4198TIP3   OH236788   2.321   1.304   8.276  0.2777 -0.5677  0.4004
 4198TIP3    H136789   2.264   1.353   8.336  1.3149 -1.3461  2.1046
 4198TIP3    H236790   2.368   1.372   8.227  1.1028  0.1930  2.1490
 4199TIP3   OH236791   6.049   1.755   9.159 -0.3823 -0.3054  0.2563
 4199TIP3    H136792   6.073   1.836   9.114  0.4774 -1.3913 -1.3693
 4199TIP3    H236793   6.022   1.696   9.088  0.3439 -1.8749  1.2345
 4200TIP3   OH236794   4.413   4.087   0.338 -0.0852  0.1154  0.2428
 4200TIP3    H136795   4.422   4.168   0.388  0.2879 -0.2457  0.7595
 4200TIP3    H236796   4.319   4.082   0.317 -0.0385  0.9200 -0.2075
 4201TIP3   OH236797   3.606   7.377   7.842  0.5985  0.0715  0.4908
 4201TIP3    H136798   3.551   7.428   7.784  1.2387  1.8201  1.3634
 4201TIP3    H236799   3.624   7.296   7.794  0.6075  1.1919 -1.4777
 4202TIP3   OH236800   0.235   1.784   2.341 -0.2073 -0.2071 -0.3031
 4202TIP3    H136801   0.140   1.784   2.353 -0.7832  1.9641 -3.5048
 4202TIP3    H236802   0.267   1.851   2.401 -1.4086  2.2708 -2.2326
 4203TIP3   OH236803   4.691   5.723   6.798 -0.6148  0.1526  0.3056
 4203TIP3    H136804   4.724   5.798   6.848  1.4803 -0.7473  0.3827
 4203TIP3    H236805   4.622   5.686   6.853  0.1544  0.4821  1.5312
 4204TIP3   OH236806   6.598   1.231   6.845  0.4936  0.7616  0.0451
 4204TIP3    H136807   6.634   1.295   6.907  1.0082  0.9563 -0.4482
 4204TIP3    H236808   6.644   1.248   6.763  1.6129 -1.0969  0.2294
 4205TIP3   OH236809   4.923   3.865   0.165  0.0740 -0.0167  0.3710
 4205TIP3    H136810   4.884   3.789   0.208 -1.1732 -0.5812 -1.6188
 4205TIP3    H236811   4.854   3.898   0.107  0.8199  2.2261  0.6500
 4206TIP3   OH236812   0.932   5.499   9.344 -0.3355  0.1983  0.2356
 4206TIP3    H136813   0.853   5.466   9.386 -0.3496 -0.5834 -0.3844
 4206TIP3    H236814   0.925   5.469   9.253  0.2434  0.8835 -0.0455
 4207TIP3   OH236815   4.959   2.551   0.707  0.0851  0.1791  0.3145
 4207TIP3    H136816   4.900   2.609   0.756  0.2813  1.6742 -1.1153
 4207TIP3    H236817   5.045   2.566   0.746  0.7056  3.1876 -1.8073
 4208TIP3   OH236818   1.765   5.225   0.364  0.2300 -0.1020 -0.2878
 4208TIP3    H136819   1.774   5.264   0.451 -0.9348  1.3733 -0.7773
 4208TIP3    H236820   1.842   5.255   0.317 -0.5104  1.4708 -0.5700
 4209TIP3   OH236821   6.079   3.106   1.534 -0.0619 -1.0035  0.4190
 4209TIP3    H136822   6.122   3.026   1.506  2.3742  0.8046 -1.4139
 4209TIP3    H236823   6.115   3.123   1.622  1.4399 -0.6134 -0.2412
 4210TIP3   OH236824   3.054   6.022   8.074  0.5598 -0.2258  0.3231
 4210TIP3    H136825   3.065   5.938   8.029  0.5556 -0.9788  1.6667
 4210TIP3    H236826   3.142   6.060   8.074  0.8891 -0.9387  0.9948
 4211TIP3   OH236827   4.561   5.485   0.339 -0.3060 -0.2081  0.5604
 4211TIP3    H136828   4.617   5.557   0.369  0.2115 -0.1691 -0.4881
 4211TIP3    H236829   4.585   5.411   0.395  0.1393  0.0527  0.7149
 4212TIP3   OH236830   0.921   3.170   8.099 -0.3341 -0.6746 -0.2073
 4212TIP3    H136831   0.933   3.244   8.158  0.9541 -0.6043 -0.5179
 4212TIP3    H236832   0.987   3.183   8.030  0.8248 -2.7552  0.4148
 4213TIP3   OH236833   5.288   3.665   7.808 -0.0133  0.4237 -0.3850
 4213TIP3    H136834   5.226   3.638   7.740 -0.7734 -0.1858  0.5216
 4213TIP3    H236835   5.305   3.757   7.790 -0.9079  0.5074 -0.8697
 4214TIP3   OH236836   5.842   5.474   7.968 -0.0282 -0.3942  0.0558
 4214TIP3    H136837   5.828   5.417   7.893 -0.2349 -1.2367  0.7129
 4214TIP3    H236838   5.890   5.548   7.933 -0.4791 -0.5698 -0.9868
 4215TIP3   OH236839   7.206   4.137   1.271 -0.5358  0.0811  0.0608
 4215TIP3    H136840   7.302   4.143   1.279 -0.3008  0.6565 -2.2979
 4215TIP3    H236841   7.173   4.206   1.328  0.6139  1.4426 -0.8486
 4216TIP3   OH236842   2.368   3.064   9.581  0.0182 -0.1315  0.0605
 4216TIP3    H136843   2.379   3.158   9.597  0.0631 -0.0320 -0.5327
 4216TIP3    H236844   2.453   3.026   9.601 -0.3547 -0.2283  1.5390
 4217TIP3   OH236845   3.495   6.789   0.786 -0.5251  0.2985  0.0743
 4217TIP3    H136846   3.520   6.801   0.877 -1.5446  0.9692  0.2852
 4217TIP3    H236847   3.473   6.877   0.755 -0.0996  0.0971 -0.8543
 4218TIP3   OH236848   5.062   2.993   8.706  0.4166  0.5115 -0.0611
 4218TIP3    H136849   5.039   2.933   8.777  3.0199  1.3784  1.6770
 4218TIP3    H236850   5.068   3.079   8.748  0.2595  1.3918 -1.7378
 4219TIP3   OH236851   4.687   7.172   1.796 -0.1057 -0.2705 -0.1610
 4219TIP3    H136852   4.653   7.087   1.766  0.3985 -0.3773 -0.4518
 4219TIP3    H236853   4.782   7.158   1.803 -0.1101  0.0423  0.5451
 4220TIP3   OH236854   4.470   5.907   9.344  0.1933  0.0438  0.2704
 4220TIP3    H136855   4.411   5.862   9.404 -1.1004  1.0339 -0.2116
 4220TIP3    H236856   4.491   5.990   9.388  0.0890  0.3080 -0.1619
 4221TIP3   OH236857   4.376   1.508   2.130  0.0515 -0.0134 -0.0677
 4221TIP3    H136858   4.366   1.575   2.197  0.0918  0.0055 -0.0805
 4221TIP3    H236859   4.388   1.556   2.049 -1.7313 -0.0169 -0.3816
 4222TIP3   OH236860   2.065   2.644   8.421 -0.6540  0.7035 -0.0552
 4222TIP3    H136861   2.068   2.660   8.515  1.1272  0.6597 -0.0820
 4222TIP3    H236862   1.976   2.669   8.396 -1.6812 -0.7690  1.8743
 4223TIP3   OH236863   4.118   2.935   2.335 -0.0378 -0.0013 -0.8594
 4223TIP3    H136864   4.099   3.010   2.279 -2.4894 -0.2785 -0.5234
 4223TIP3    H236865   4.160   2.971   2.412 -3.7892  1.5859  0.6621
 4224TIP3   OH236866   6.137   0.797   9.387  0.0318  0.1876 -0.3575
 4224TIP3    H136867   6.104   0.774   9.475  1.0546 -0.3304 -0.0938
 4224TIP3    H236868   6.210   0.856   9.403 -0.2847  0.7391 -0.9069
 4225TIP3   OH236869   1.110   5.395   8.862  0.1413  0.0076  0.1621
 4225TIP3    H136870   1.189   5.357   8.900  0.1725 -0.4077 -0.3173
 4225TIP3    H236871   1.052   5.321   8.847 -0.3104  0.2987  0.4231
 4226TIP3   OH236872   6.423   4.869   9.424  0.3641  0.4190 -0.1808
 4226TIP3    H136873   6.388   4.856   9.336 -1.4292  1.6475  0.2888
 4226TIP3    H236874   6.355   4.918   9.470  0.4010 -1.8165  2.4944
 4227TIP3   OH236875   2.079   4.424   2.931 -0.9543 -0.3393 -0.3365
 4227TIP3    H136876   2.149   4.362   2.911 -0.5263  0.0613 -0.1079
 4227TIP3    H236877   2.120   4.510   2.920 -1.3962 -0.1021 -0.1500
 4228TIP3   OH236878   1.800   4.833   2.249 -0.3799  0.2414 -0.2641
 4228TIP3    H136879   1.823   4.899   2.314  0.1072  0.1923 -0.3795
 4228TIP3    H236880   1.735   4.777   2.292  1.0796 -0.7381  0.7596
 4229TIP3   OH236881   2.084   0.469   9.661 -0.4319  0.3489 -0.1819
 4229TIP3    H136882   2.150   0.427   9.717 -0.0836  1.9397  0.6533
 4229TIP3    H236883   2.124   0.552   9.635 -1.1069  0.2064 -1.7841
 4230TIP3   OH236884   3.925   6.325   9.489 -0.0413 -0.5744 -0.1728
 4230TIP3    H136885   3.970   6.255   9.442  1.5312 -0.0697  0.5191
 4230TIP3    H236886   3.995   6.380   9.524 -1.1333 -0.5315  2.1718
 4231TIP3   OH236887   1.468   3.565   1.655 -0.7474  0.5957  0.4156
 4231TIP3    H136888   1.379   3.531   1.665 -0.9181  0.7340 -0.5773
 4231TIP3    H236889   1.464   3.624   1.580  0.5379 -0.6978 -0.7365
 4232TIP3   OH236890   0.030   4.301   2.339  0.3678 -0.1529  0.4500
 4232TIP3    H136891   0.039   4.214   2.302  0.4134  0.2188 -0.4234
 4232TIP3    H236892   0.102   4.308   2.402 -1.4212 -1.8836  2.8804
 4233TIP3   OH236893   0.394   5.286   1.333 -0.2613  0.2054 -0.0934
 4233TIP3    H136894   0.302   5.263   1.324  0.2109 -1.8462 -0.0718
 4233TIP3    H236895   0.435   5.209   1.372  1.4477  1.1351  0.0531
 4234TIP3   OH236896   2.768   1.756   7.373  0.4893 -0.1105  0.1737
 4234TIP3    H136897   2.786   1.672   7.414 -0.7591 -0.1429  0.7063
 4234TIP3    H236898   2.774   1.819   7.444 -0.3129  0.0165  0.1375
 4235TIP3   OH236899   2.557   1.785   2.552 -0.1593 -0.0982  0.5828
 4235TIP3    H136900   2.516   1.800   2.637  0.4129  1.4797  0.6218
 4235TIP3    H236901   2.646   1.819   2.562  0.0366 -0.2393 -0.5377
 4236TIP3   OH236902   3.724   4.096   2.015 -0.6481  0.0302 -0.0428
 4236TIP3    H136903   3.785   4.159   1.975 -2.1346  3.0159  2.0359
 4236TIP3    H236904   3.781   4.033   2.058  1.0078  1.4193 -0.0609
 4237TIP3   OH236905   3.152   7.032   9.268  0.2273 -0.4802  0.1671
 4237TIP3    H136906   3.115   6.950   9.238 -0.2636 -0.3912  0.5211
 4237TIP3    H236907   3.245   7.026   9.247 -0.2218  0.0076 -2.3638
 4238TIP3   OH236908   1.524   4.180   1.322  0.2307 -0.1523 -0.2030
 4238TIP3    H136909   1.429   4.166   1.314  0.5331 -1.7695 -1.4741
 4238TIP3    H236910   1.562   4.123   1.255  2.1470 -0.1103  0.7943
 4239TIP3   OH236911   7.201   6.520   9.467  0.5917  0.2478  0.2076
 4239TIP3    H136912   7.182   6.497   9.376 -0.3836  0.3089  0.3823
 4239TIP3    H236913   7.249   6.445   9.502  0.3649 -0.0715 -0.1623
 4240TIP3   OH236914   5.077   0.774   0.768  0.4873 -0.4569 -0.0009
 4240TIP3    H136915   5.076   0.852   0.824 -0.5712  0.8886 -1.7996
 4240TIP3    H236916   5.161   0.777   0.723  0.5699 -0.5212  0.1479
 4241TIP3   OH236917   5.894   2.242   1.960 -0.4541 -0.8946  0.0934
 4241TIP3    H136918   5.913   2.239   2.054  0.4848  0.9300  0.0190
 4241TIP3    H236919   5.827   2.175   1.946  1.6440 -3.5069  1.4882
 4242TIP3   OH236920   5.324   5.568   1.628  0.7316  0.6182 -0.7937
 4242TIP3    H136921   5.389   5.515   1.675 -0.0300 -0.0660 -0.4872
 4242TIP3    H236922   5.364   5.585   1.542  0.5560 -1.4416 -1.3443
 4243TIP3   OH236923   4.315   0.766   7.639 -0.5492 -0.3141 -0.0838
 4243TIP3    H136924   4.342   0.804   7.723 -1.4790  1.3617 -0.4942
 4243TIP3    H236925   4.293   0.841   7.585 -0.8818 -1.4102 -1.5266
 4244TIP3   OH236926   5.494   4.616   0.929  0.0664  0.1066  0.0671
 4244TIP3    H136927   5.549   4.543   0.957  0.1212  0.1118 -0.0249
 4244TIP3    H236928   5.555   4.676   0.886 -0.0384  0.0408 -0.1721
 4245TIP3   OH236929   6.945   6.665   9.557  0.0026  0.1099  0.3661
 4245TIP3    H136930   6.982   6.753   9.568 -1.9819  1.4406 -2.3546
 4245TIP3    H236931   7.000   6.625   9.488 -1.2610  0.6934 -1.0339
 4246TIP3   OH236932   4.398   6.625   2.284 -0.1386 -0.4898 -0.1868
 4246TIP3    H136933   4.475   6.595   2.236  0.3253  0.9985 -0.4246
 4246TIP3    H236934   4.354   6.685   2.223 -0.7630 -0.3146  0.4268
 4247TIP3   OH236935   1.012   0.791   7.184  0.0890  0.1942  0.1762
 4247TIP3    H136936   0.950   0.778   7.112  1.7676  0.0923 -1.3099
 4247TIP3    H236937   0.991   0.722   7.247 -1.7760  0.6314  0.0842
 4248TIP3   OH236938   2.315   0.034   2.330  0.0361 -0.1051  0.1250
 4248TIP3    H136939   2.395   0.086   2.328  0.6312 -0.9513  0.6823
 4248TIP3    H236940   2.345  -0.054   2.353 -0.9573 -0.6522 -0.6068
 4249TIP3   OH236941   3.850   3.326   7.372  0.6457 -0.3881  0.9544
 4249TIP3    H136942   3.811   3.278   7.445 -0.0607  1.1986  1.6504
 4249TIP3    H236943   3.855   3.416   7.402  0.5999  0.2547 -0.8649
 4250TIP3   OH236944   6.905   0.167   0.828 -0.6384 -0.2115 -0.1483
 4250TIP3    H136945   6.856   0.143   0.906 -2.6999  0.3145 -1.2141
 4250TIP3    H236946   6.925   0.084   0.785 -1.4986 -0.4027 -0.1966
 4251TIP3   OH236947   2.667   1.859   7.895  0.0338  0.5316  0.1989
 4251TIP3    H136948   2.661   1.808   7.814 -1.3255  0.0204  0.5910
 4251TIP3    H236949   2.761   1.872   7.908  0.4208 -1.6298 -0.0602
 4252TIP3   OH236950   2.837   5.912   9.272  0.0413  0.9548  0.8657
 4252TIP3    H136951   2.786   5.981   9.315  0.1203  1.6059 -0.0526
 4252TIP3    H236952   2.774   5.841   9.259 -0.3662  1.3370  0.6965
 4253TIP3   OH236953   1.181   1.844   8.319 -0.3097  0.0027  0.5790
 4253TIP3    H136954   1.263   1.893   8.323  0.0691 -0.6572  1.1538
 4253TIP3    H236955   1.124   1.896   8.262  1.1163 -0.3921 -1.3212
 4254TIP3   OH236956   2.805   4.854   6.753 -0.0435  0.4396  0.2216
 4254TIP3    H136957   2.864   4.865   6.679  0.7671 -3.0976  0.1518
 4254TIP3    H236958   2.796   4.759   6.762 -0.1687  0.6825  4.6026
 4255TIP3   OH236959   3.190   1.117   0.969  0.4254  0.0468 -0.1492
 4255TIP3    H136960   3.220   1.028   0.951  0.2501  0.3753 -2.3383
 4255TIP3    H236961   3.264   1.160   1.011 -0.0383 -1.5329  2.4789
 4256TIP3   OH236962   4.332   6.424   7.427  0.1801 -0.5706  0.0449
 4256TIP3    H136963   4.340   6.512   7.388  0.8258 -0.0186  1.3724
 4256TIP3    H236964   4.249   6.427   7.474  1.2433  0.1491  1.9913
 4257TIP3   OH236965   0.945   0.516   2.161 -0.0815 -0.0043  0.6118
 4257TIP3    H136966   0.900   0.588   2.118 -1.8018 -1.1040  0.4525
 4257TIP3    H236967   0.998   0.557   2.229 -2.0697  1.3615  1.4336
 4258TIP3   OH236968   2.091   4.827   1.766 -0.2874  0.0446 -0.4354
 4258TIP3    H136969   2.049   4.892   1.822  0.8497  0.4781 -0.0432
 4258TIP3    H236970   2.054   4.743   1.794  1.7305 -0.0176  2.5176
 4259TIP3   OH236971   2.933   2.748   8.138 -0.1003 -0.6473 -0.0368
 4259TIP3    H136972   3.005   2.774   8.195  0.7280 -1.4547 -0.6880
 4259TIP3    H236973   2.885   2.829   8.121  0.4360 -0.1610  0.6974
 4260TIP3   OH236974   1.979   5.017   1.920 -0.1020  0.1499  0.0180
 4260TIP3    H136975   1.894   5.056   1.903  0.1308  1.3762  1.5346
 4260TIP3    H236976   2.042   5.088   1.905  0.9661 -1.2721 -3.3262
 4261TIP3   OH236977   5.259   5.849   7.600 -0.2727 -0.2589  0.1916
 4261TIP3    H136978   5.199   5.923   7.594 -0.1968 -0.1947  0.2397
 4261TIP3    H236979   5.214   5.787   7.658 -0.3906 -0.3031  0.0557
 4262TIP3   OH236980   6.249   7.080   2.687 -0.4618 -0.1095  0.2345
 4262TIP3    H136981   6.178   7.033   2.730 -2.0680  2.3837  0.4605
 4262TIP3    H236982   6.227   7.074   2.594  1.0551 -2.3786 -0.0606
 4263TIP3   OH236983   1.487   2.897   9.381 -0.2782  0.6716  0.2922
 4263TIP3    H136984   1.502   2.867   9.291  1.4970  0.0567  0.7507
 4263TIP3    H236985   1.490   2.992   9.374  0.1328  0.6278 -0.2707
 4264TIP3   OH236986   4.398   1.726   8.795 -0.1162  0.2359  0.8801
 4264TIP3    H136987   4.440   1.785   8.858 -2.0517  2.0374  0.5770
 4264TIP3    H236988   4.369   1.652   8.848  0.7599  0.3675  1.5802
 4265TIP3   OH236989   6.819   1.204   6.378  0.1924 -0.5298  0.3017
 4265TIP3    H136990   6.827   1.296   6.355 -1.7157  0.0054  1.5607
 4265TIP3    H236991   6.826   1.157   6.295 -0.2869  0.8461 -0.5380
 4266TIP3   OH236992   1.092   2.994   2.820  0.4056  0.6212 -0.0628
 4266TIP3    H136993   1.017   3.033   2.774  0.8940  1.8101  0.1299
 4266TIP3    H236994   1.052   2.941   2.888 -0.3211 -0.7430 -1.4726
 4267TIP3   OH236995   0.265   6.575   0.707 -0.0539 -0.0567 -0.1649
 4267TIP3    H136996   0.291   6.629   0.632  1.8995 -0.3140  0.2762
 4267TIP3    H236997   0.344   6.526   0.731 -0.7729 -0.4099  1.7146
 4268TIP3   OH236998   4.255   7.152   7.840  0.0376 -0.0899  0.7864
 4268TIP3    H136999   4.317   7.220   7.815 -0.7226 -0.0302 -1.1543
 4268TIP3    H237000   4.197   7.193   7.904  1.6616 -0.0034  2.2550
 4269TIP3   OH237001   1.009   5.837   7.316 -0.3273 -0.1538  0.1265
 4269TIP3    H137002   1.072   5.890   7.267 -0.3839  0.5637  0.8174
 4269TIP3    H237003   0.986   5.891   7.392 -0.8841 -0.8985  0.4962
 4270TIP3   OH237004   1.362   4.375   2.539 -0.5418 -0.0255  0.1437
 4270TIP3    H137005   1.445   4.404   2.503 -0.7138 -0.9366 -1.0404
 4270TIP3    H237006   1.296   4.418   2.485 -0.8344  0.0869  0.5839
 4271TIP3   OH237007   2.248   5.912   1.179  0.5485  0.4445  0.2099
 4271TIP3    H137008   2.165   5.903   1.131  0.5339  1.5480  0.0177
 4271TIP3    H237009   2.305   5.960   1.120  1.0036  0.5767  0.7479
 4272TIP3   OH237010   3.466   3.649   2.843 -0.1636  0.1292  0.0646
 4272TIP3    H137011   3.515   3.582   2.891  0.9952  1.6460  1.0476
 4272TIP3    H237012   3.395   3.673   2.902  0.0994  0.5890  0.1930
 4273TIP3   OH237013   4.638   5.195   7.197 -0.3114 -0.4408  0.3556
 4273TIP3    H137014   4.545   5.204   7.176  0.0241 -2.0420 -2.1797
 4273TIP3    H237015   4.682   5.256   7.138  0.2535  1.8011  2.8843
 4274TIP3   OH237016   5.030   5.527   9.575  0.3396 -0.3806  0.0064
 4274TIP3    H137017   4.951   5.549   9.525  1.1564  0.3729 -1.0120
 4274TIP3    H237018   5.029   5.432   9.581 -0.0063 -0.4593 -1.1035
 4275TIP3   OH237019   6.990   7.316   2.463 -0.1972 -0.1410 -0.3468
 4275TIP3    H137020   6.952   7.360   2.387  0.2170 -0.5595 -0.8055
 4275TIP3    H237021   6.924   7.324   2.532  0.8871  3.5834  0.4854
 4276TIP3   OH237022   2.830   6.786   1.386 -0.7053 -0.1380  0.1403
 4276TIP3    H137023   2.911   6.780   1.435 -0.3217 -0.8119 -0.5397
 4276TIP3    H237024   2.791   6.699   1.393 -0.5539 -0.2991 -0.8778
 4277TIP3   OH237025   4.071   2.411   1.368  0.0030 -0.7725  0.2152
 4277TIP3    H137026   3.992   2.441   1.322 -0.1217 -0.6229  0.5229
 4277TIP3    H237027   4.144   2.446   1.316 -0.1391  0.2900  0.7135
 4278TIP3   OH237028   4.384   1.811   0.555 -0.3310  0.1877 -0.2802
 4278TIP3    H137029   4.402   1.750   0.627  0.6411  0.3238 -0.3889
 4278TIP3    H237030   4.289   1.822   0.555 -0.2838  0.8194  1.5113
 4279TIP3   OH237031   5.613   1.159   1.314  0.5463 -0.2262 -1.0230
 4279TIP3    H137032   5.588   1.147   1.406 -0.1444 -1.2375 -1.3348
 4279TIP3    H237033   5.688   1.219   1.318  0.3979 -0.0920  0.1831
 4280TIP3   OH237034   4.337   5.061   1.261 -0.7278 -0.3757 -0.0673
 4280TIP3    H137035   4.313   5.059   1.354 -0.1565 -1.9496  0.0856
 4280TIP3    H237036   4.254   5.063   1.214 -1.0233  0.3290  0.4737
 4281TIP3   OH237037   5.110   0.757   8.341  0.2142 -0.3926 -0.1720
 4281TIP3    H137038   5.150   0.711   8.415  1.5245  1.2908  0.2376
 4281TIP3    H237039   5.016   0.751   8.356  0.3705 -2.1250  0.3172
 4282TIP3   OH237040   2.995   7.113   2.868 -0.0800 -0.1452  0.0606
 4282TIP3    H137041   2.913   7.089   2.910  0.7594 -1.1910  1.1799
 4282TIP3    H237042   2.976   7.107   2.774 -0.9755 -1.5534  0.2916
 4283TIP3   OH237043   2.986   7.114   2.077 -0.4784 -0.5340 -0.1413
 4283TIP3    H137044   2.891   7.114   2.093 -0.3545 -1.4314  0.6389
 4283TIP3    H237045   3.025   7.087   2.160  0.6330  2.2796  0.3521
 4284TIP3   OH237046   1.819   1.994   1.257  0.1269 -0.0932 -0.0043
 4284TIP3    H137047   1.866   1.912   1.273  1.1494  0.0365 -1.9465
 4284TIP3    H237048   1.759   1.974   1.186  1.9889  1.2798 -2.1287
 4285TIP3   OH237049   6.938   4.042   0.532  0.5852  0.2331  0.2586
 4285TIP3    H137050   6.944   3.961   0.481 -0.5027  0.6676 -0.5860
 4285TIP3    H237051   7.029   4.071   0.541  1.0052 -1.0954  0.6221
 4286TIP3   OH237052   0.147   2.791   2.918 -0.4891 -0.1928 -0.4599
 4286TIP3    H137053   0.067   2.743   2.936 -0.4254 -0.6823 -1.4107
 4286TIP3    H237054   0.158   2.785   2.823  0.7238 -0.2308 -0.3379
 4287TIP3   OH237055   3.975   1.512   1.330 -0.3041 -0.2237  0.6644
 4287TIP3    H137056   3.902   1.570   1.351 -0.4437 -0.3419  0.5065
 4287TIP3    H237057   3.963   1.490   1.238 -0.6408 -1.0539  0.8929
 4288TIP3   OH237058   2.950   1.823   0.543  0.1393  0.0020  0.7502
 4288TIP3    H137059   2.859   1.820   0.516 -0.0476 -1.6600  1.3964
 4288TIP3    H237060   2.991   1.888   0.486 -0.6884 -1.7073 -1.9963
 4289TIP3   OH237061   2.838   4.780   8.361  0.1211  0.5616 -0.3731
 4289TIP3    H137062   2.775   4.770   8.289  0.6166  1.8213 -1.0261
 4289TIP3    H237063   2.905   4.714   8.343 -1.0691 -0.9193  0.4349
 4290TIP3   OH237064   2.376   3.326   8.852  0.1297 -0.9260  0.4130
 4290TIP3    H137065   2.333   3.311   8.768 -0.9564  1.1896  0.5282
 4290TIP3    H237066   2.449   3.264   8.853  0.2759 -0.8930 -2.1598
 4291TIP3   OH237067   5.966   3.586   1.711 -0.3839  0.1886 -0.5680
 4291TIP3    H137068   5.925   3.525   1.773 -0.5628  0.9768  0.1057
 4291TIP3    H237069   5.921   3.569   1.628 -2.0722  0.9838  0.1257
 4292TIP3   OH237070   5.347   3.245   8.742  0.0925 -0.5817  0.1796
 4292TIP3    H137071   5.352   3.282   8.654  1.4076 -0.7779  0.1481
 4292TIP3    H237072   5.281   3.298   8.787 -1.8710 -1.5812 -1.4069
 4293TIP3   OH237073   1.228   6.866   1.134  0.3653 -0.0262  0.1969
 4293TIP3    H137074   1.278   6.894   1.057  0.7925 -0.3416  0.3573
 4293TIP3    H237075   1.205   6.775   1.114  1.1900 -0.3782  0.8006
 4294TIP3   OH237076   1.756   4.625   8.777 -0.5062  0.5933  0.1015
 4294TIP3    H137077   1.836   4.648   8.729 -0.0865 -0.0299  0.4890
 4294TIP3    H237078   1.785   4.563   8.844 -1.0376  1.6865  1.3677
 4295TIP3   OH237079   2.753   6.109   1.023 -0.1893 -0.1475  0.0045
 4295TIP3    H137080   2.762   6.119   1.118 -0.0843  0.6734 -0.0892
 4295TIP3    H237081   2.692   6.177   0.997  0.0033 -0.1853 -0.5580
 4296TIP3   OH237082   0.560   1.556   0.556 -0.8100 -0.1354 -0.5160
 4296TIP3    H137083   0.528   1.515   0.475 -2.0931  0.5125 -0.3545
 4296TIP3    H237084   0.575   1.648   0.532 -2.6510  0.4276  0.3180
 4297TIP3   OH237085   2.345   4.561   7.071 -0.1758  0.3507  0.3492
 4297TIP3    H137086   2.420   4.511   7.102  0.8113  1.0077 -0.9138
 4297TIP3    H237087   2.350   4.557   6.976 -1.2653  1.1242  0.2308
 4298TIP3   OH237088   4.030   0.623   1.654 -0.2659 -0.0471  0.3820
 4298TIP3    H137089   3.952   0.679   1.655  0.2911  0.7452  1.0450
 4298TIP3    H237090   4.068   0.634   1.742  0.8456 -0.0623 -0.0838
 4299TIP3   OH237091   5.875   0.871   9.034  0.4772  0.4347  0.2321
 4299TIP3    H137092   5.899   0.779   9.018 -0.0021 -0.0695  2.1839
 4299TIP3    H237093   5.916   0.891   9.118 -0.7359  1.5262  0.5713
 4300TIP3   OH237094   7.411   2.011   0.545 -0.8022 -0.0384  0.4104
 4300TIP3    H137095   7.439   1.922   0.523 -0.8415  0.1401 -0.4043
 4300TIP3    H237096   7.330   1.998   0.595 -0.7437 -0.4629  0.4022
 4301TIP3   OH237097   2.084   3.332   8.620 -0.5770  0.0157  0.1818
 4301TIP3    H137098   2.174   3.302   8.609 -1.1397 -1.5963 -0.2989
 4301TIP3    H237099   2.091   3.404   8.683  1.3123  1.5909 -1.6784
 4302TIP3   OH237100   6.548   4.909   8.225  0.5076  0.1991  0.6837
 4302TIP3    H137101   6.569   4.968   8.297  0.6425  0.1140  0.7143
 4302TIP3    H237102   6.461   4.874   8.247  1.2502 -1.1130  1.6626
 4303TIP3   OH237103   2.241   5.124   0.770  0.0233  0.3934 -0.2550
 4303TIP3    H137104   2.257   5.031   0.754  1.2331  0.4015  0.7370
 4303TIP3    H237105   2.190   5.126   0.851  2.1717  0.6101  1.2021
 4304TIP3   OH237106   0.035   5.240   9.623  0.1182 -0.1530 -0.3463
 4304TIP3    H137107   0.060   5.322   9.579 -0.4547  1.1073  1.5463
 4304TIP3    H237108  -0.000   5.185   9.553 -0.9167  1.8078 -1.4588
 4305TIP3   OH237109   2.769   3.313   8.922  0.3439  0.1772 -0.1722
 4305TIP3    H137110   2.749   3.342   9.012  2.2258 -0.1096  0.3791
 4305TIP3    H237111   2.714   3.236   8.909 -0.8464  0.9144  0.2687
 4306TIP3   OH237112   1.562   1.901   9.299  0.2835 -0.9208  0.6739
 4306TIP3    H137113   1.476   1.863   9.320  0.6810 -2.1356  0.1718
 4306TIP3    H237114   1.620   1.866   9.366  0.6883 -1.3247  0.1153
 4307TIP3   OH237115   3.566   0.700   9.644 -0.0457 -0.4619  0.1430
 4307TIP3    H137116   3.493   0.656   9.688 -0.2704  0.7667  1.0286
 4307TIP3    H237117   3.616   0.628   9.603 -1.3518 -1.3746  0.0986
 4308TIP3   OH237118   6.132   1.053   9.653  0.2313  0.8557  0.1594
 4308TIP3    H137119   6.177   1.036   9.570 -0.1522  0.5267  0.0157
 4308TIP3    H237120   6.203   1.071   9.715  0.5074  1.3042 -0.2836
 4309TIP3   OH237121   1.423   6.620   8.984  0.1048 -0.4496  0.3034
 4309TIP3    H137122   1.387   6.543   9.027 -0.4346  0.3676  1.3583
 4309TIP3    H237123   1.434   6.684   9.055  0.6472  0.4018 -0.5304
 4310TIP3   OH237124   2.444   0.838   0.229 -0.5510 -0.2896 -0.3017
 4310TIP3    H137125   2.354   0.870   0.224 -0.9041 -1.3919 -1.4083
 4310TIP3    H237126   2.494   0.896   0.172 -1.0796 -1.2806 -1.8326
 4311TIP3   OH237127   6.418   1.255   6.619 -0.0129 -0.2870  0.1793
 4311TIP3    H137128   6.351   1.311   6.660 -0.2190 -0.1780 -0.2919
 4311TIP3    H237129   6.442   1.192   6.687 -1.8044 -1.3825 -0.1469
 4312TIP3   OH237130   4.763   7.096   8.417 -0.2112 -0.3458 -0.0391
 4312TIP3    H137131   4.817   7.028   8.378  1.4104  0.5729  0.5034
 4312TIP3    H237132   4.717   7.136   8.343 -0.0597 -1.0689 -0.5255
 4313TIP3   OH237133   2.520   5.718   0.109  0.1004  0.0452 -0.0437
 4313TIP3    H137134   2.608   5.757   0.113 -0.3772  1.0969  0.4896
 4313TIP3    H237135   2.533   5.628   0.139  1.3415 -0.4899 -1.9866
 4314TIP3   OH237136   3.253   5.627   1.858 -0.3206  0.4103 -0.1667
 4314TIP3    H137137   3.272   5.678   1.936  0.4542 -1.2012  0.7300
 4314TIP3    H237138   3.338   5.595   1.828 -0.8268 -0.7706 -0.4008
 4315TIP3   OH237139   2.089   2.313   0.587  0.4809  0.5087  0.3637
 4315TIP3    H137140   2.050   2.311   0.500  1.5774  0.2196 -0.1450
 4315TIP3    H237141   2.161   2.249   0.582 -0.9213 -1.3409  2.2191
 4316TIP3   OH237142   4.770   4.088   6.728 -0.1889 -0.4810 -0.0222
 4316TIP3    H137143   4.863   4.084   6.705 -0.3340 -2.8021 -0.4777
 4316TIP3    H237144   4.747   3.997   6.748 -1.9258  0.3288  1.9513
 4317TIP3   OH237145   1.718   0.239   1.370  0.3867 -0.3735 -1.1528
 4317TIP3    H137146   1.655   0.285   1.315  0.4918 -1.3230 -2.1160
 4317TIP3    H237147   1.665   0.186   1.429  0.2547 -1.3951 -2.1570
 4318TIP3   OH237148   0.911   6.353   9.242  0.2911 -0.3940  0.0154
 4318TIP3    H137149   0.956   6.396   9.315  0.3782  0.0637 -0.2995
 4318TIP3    H237150   0.915   6.260   9.263 -0.9243 -0.1921  1.2875
 4319TIP3   OH237151   1.810   1.310   1.615 -0.1714  0.7918 -0.1364
 4319TIP3    H137152   1.881   1.248   1.597 -0.8708  0.1106 -0.6455
 4319TIP3    H237153   1.746   1.258   1.665 -1.1520  0.8403 -1.2866
 4320TIP3   OH237154   1.344   2.247   1.577  0.2216 -0.3011 -0.3208
 4320TIP3    H137155   1.372   2.160   1.604  0.5524  0.1764  0.9335
 4320TIP3    H237156   1.255   2.235   1.543  0.5768 -1.2469 -0.9254
 4321TIP3   OH237157   3.142   0.167   8.015  0.0510 -0.2813  0.5221
 4321TIP3    H137158   3.185   0.248   7.986  2.7181 -1.5930  0.5043
 4321TIP3    H237159   3.099   0.192   8.097  2.0375  0.8844  1.2935
 4322TIP3   OH237160   4.919   6.181   1.465 -0.1354 -0.3335 -0.1030
 4322TIP3    H137161   4.853   6.149   1.404  1.5285 -0.3507 -1.9953
 4322TIP3    H237162   4.917   6.276   1.454  0.0742 -0.3268 -0.0895
 4323TIP3   OH237163   1.446   2.590   2.100 -0.5847 -0.9096  0.1282
 4323TIP3    H137164   1.513   2.629   2.155  0.0206  1.4408 -2.0605
 4323TIP3    H237165   1.384   2.550   2.161  1.1626 -0.4237  2.3388
 4324TIP3   OH237166   1.107   0.404   8.389  0.1734  0.3576 -0.3131
 4324TIP3    H137167   1.167   0.346   8.437  1.4480  0.2401 -1.9798
 4324TIP3    H237168   1.041   0.345   8.353  0.3027  0.1984 -0.2927
 4325TIP3   OH237169   7.177   6.645   2.323 -0.0931 -0.3134 -0.0716
 4325TIP3    H137170   7.236   6.590   2.271  1.1976  0.3515  0.6294
 4325TIP3    H237171   7.218   6.732   2.320 -1.3604  0.3025 -0.0249
 4326TIP3   OH237172   7.226   2.473   2.019  0.0201 -0.5795  0.3807
 4326TIP3    H137173   7.251   2.522   1.941  0.4760  0.3946  1.1214
 4326TIP3    H237174   7.134   2.496   2.034 -0.0601 -0.7463  0.1659
 4327TIP3   OH237175   6.342   4.014   7.905  0.0013  0.2566  0.5569
 4327TIP3    H137176   6.433   3.994   7.929  0.3639  1.0053 -0.1741
 4327TIP3    H237177   6.300   3.928   7.900 -0.0613 -0.0057  3.5681
 4328TIP3   OH237178   2.200   5.660   9.147  0.2752 -0.0500 -0.1463
 4328TIP3    H137179   2.162   5.642   9.061 -0.5843 -1.1809  0.4463
 4328TIP3    H237180   2.150   5.735   9.181 -0.9173 -1.0154  0.2853
 4329TIP3   OH237181   1.350   4.486   8.756 -0.0833  0.1022 -0.1329
 4329TIP3    H137182   1.331   4.397   8.726 -0.1678  0.5218 -1.3539
 4329TIP3    H237183   1.309   4.491   8.843 -1.1060 -0.6729 -0.5491
 4330TIP3   OH237184   1.885   0.583   1.330 -0.9374 -0.0585  0.3594
 4330TIP3    H137185   1.795   0.549   1.325 -1.6717  1.7865  0.4287
 4330TIP3    H237186   1.876   0.676   1.313  0.9882  0.1588  0.4065
 4331TIP3   OH237187   0.582   2.617   0.558 -0.1609  0.8308  0.1306
 4331TIP3    H137188   0.616   2.698   0.598  0.5631  0.3056  0.6004
 4331TIP3    H237189   0.632   2.547   0.600 -0.5486  0.1563 -0.5184
 4332TIP3   OH237190   2.751   4.527   1.772  0.1454  0.0102  0.5243
 4332TIP3    H137191   2.714   4.482   1.696 -0.0539  0.0614  0.5911
 4332TIP3    H237192   2.680   4.528   1.837 -0.7555  2.6248 -0.3430
 4333TIP3   OH237193   3.883   2.928   0.466 -0.1504 -0.1414 -0.4130
 4333TIP3    H137194   3.806   2.984   0.476  0.2274  0.2613  0.3815
 4333TIP3    H237195   3.850   2.850   0.423 -1.0884 -0.1242  0.2301
 4334TIP3   OH237196   2.863   2.442   0.876  0.3666 -0.7362  0.9946
 4334TIP3    H137197   2.864   2.348   0.856 -1.7562 -0.8564  1.2620
 4334TIP3    H237198   2.781   2.456   0.923  1.1602  1.0858  1.9347
 4335TIP3   OH237199   1.790   4.315   8.856  0.1204 -0.0410  0.3134
 4335TIP3    H137200   1.776   4.220   8.851 -0.9350  0.1510 -1.0327
 4335TIP3    H237201   1.833   4.337   8.773 -1.0452  0.8618 -0.0739
 4336TIP3   OH237202   2.462   5.338   8.792  0.2576  0.2719 -0.3161
 4336TIP3    H137203   2.522   5.283   8.741 -0.9649 -0.3827 -1.1121
 4336TIP3    H237204   2.439   5.409   8.732 -1.2789 -0.5649 -0.7692
 4337TIP3   OH237205   5.528   6.173   0.030  0.3612  0.0488 -0.1447
 4337TIP3    H137206   5.502   6.124  -0.048  0.9540 -0.5416  0.0217
 4337TIP3    H237207   5.502   6.263   0.011  1.5131  0.1340 -1.5272
 4338TIP3   OH237208   1.203   0.923   7.902 -0.1545  0.2906  0.3768
 4338TIP3    H137209   1.249   0.998   7.865  0.9740 -0.0684  0.9833
 4338TIP3    H237210   1.216   0.931   7.997  1.7360 -1.6816  0.3846
 4339TIP3   OH237211   5.901   5.892   0.622 -0.0543  0.5359  0.1948
 4339TIP3    H137212   5.855   5.965   0.581  0.4911  2.2842  2.4758
 4339TIP3    H237213   5.837   5.854   0.682 -0.5961 -1.4840 -1.5296
 4340TIP3   OH237214   2.822   2.481   1.577 -0.3127 -0.1812 -0.0774
 4340TIP3    H137215   2.764   2.518   1.644 -0.6458 -0.3411 -0.2748
 4340TIP3    H237216   2.905   2.527   1.589 -1.1402  1.7259 -1.3141
 4341TIP3   OH237217   4.703   2.753   1.987  0.0256  0.2538 -0.6317
 4341TIP3    H137218   4.639   2.684   1.970 -1.3020  1.3751 -0.2950
 4341TIP3    H237219   4.761   2.750   1.911 -0.2818 -0.9030 -0.8483
 4342TIP3   OH237220   3.373   5.041   8.231 -0.6919  0.3449  0.4245
 4342TIP3    H137221   3.312   5.003   8.168 -0.1059 -0.9089  0.5784
 4342TIP3    H237222   3.335   5.023   8.317 -0.7933  0.8123  0.4835
 4343TIP3   OH237223   5.457   5.383   0.446  0.4639  0.5606 -0.0654
 4343TIP3    H137224   5.526   5.433   0.491  0.6636  0.4813 -0.2857
 4343TIP3    H237225   5.403   5.450   0.405  1.9120  0.5460 -2.1096
 4344TIP3   OH237226   6.171   6.248   9.351 -0.0370  0.1877 -0.1997
 4344TIP3    H137227   6.096   6.203   9.388  0.2703  0.4940  0.8245
 4344TIP3    H237228   6.234   6.253   9.423  0.5217  0.9218 -0.7247
 4345TIP3   OH237229   7.117   2.068   1.163 -0.1338 -0.0546 -0.3917
 4345TIP3    H137230   7.164   2.020   1.232  0.2539  1.3246  0.3460
 4345TIP3    H237231   7.053   2.006   1.130  0.6901 -1.2499  0.1661
 4346TIP3   OH237232   2.678   4.445   1.516 -0.2651 -0.3893 -0.6168
 4346TIP3    H137233   2.758   4.395   1.497  0.1245  0.4137 -1.1772
 4346TIP3    H237234   2.609   4.400   1.466  0.3552  0.4499 -2.3291
 4347TIP3   OH237235   2.561   3.611   8.844 -0.3624  0.8822  0.2465
 4347TIP3    H137236   2.526   3.525   8.867  1.3799 -0.0635 -0.4568
 4347TIP3    H237237   2.483   3.663   8.822 -1.3961 -0.8283 -0.3693
 4348TIP3   OH237238   0.956   1.383   0.202 -0.1012  0.5875  0.0352
 4348TIP3    H137239   0.993   1.307   0.248  1.5605  1.0946 -0.3919
 4348TIP3    H237240   0.865   1.386   0.231  0.4900  0.0244  2.1602
 4349TIP3   OH237241   4.210   4.757   1.377  0.3900 -0.2506  0.2859
 4349TIP3    H137242   4.300   4.790   1.371  0.1472  0.3312 -0.4210
 4349TIP3    H237243   4.166   4.795   1.300 -0.4763 -0.4667  0.6611
 4350TIP3   OH237244   6.372   3.610   3.020 -0.0946 -0.0154 -0.0825
 4350TIP3    H137245   6.420   3.690   3.038  1.7388 -0.8299 -1.0253
 4350TIP3    H237246   6.320   3.629   2.943  0.2950  0.2934 -0.2694
 4351TIP3   OH237247   4.004   0.708   9.588 -0.4456 -0.1545 -0.0765
 4351TIP3    H137248   4.083   0.762   9.578 -0.1710 -0.6472 -0.6171
 4351TIP3    H237249   4.022   0.630   9.535 -1.0793 -0.5096  0.2307
 4352TIP3   OH237250   2.984   1.151   0.715 -0.4179  0.3337  0.2338
 4352TIP3    H137251   3.008   1.229   0.765 -1.1927  0.0245  1.1135
 4352TIP3    H237252   2.960   1.086   0.782  0.0030 -0.5909 -0.4897
 4353TIP3   OH237253   1.200   5.494   8.555 -0.2599 -0.6761 -0.1808
 4353TIP3    H137254   1.246   5.568   8.595  0.3834  1.1342 -3.8259
 4353TIP3    H237255   1.267   5.427   8.541  0.4973  0.3639 -1.8587
 4354TIP3   OH237256   1.794   2.722   1.818 -0.3197 -0.5271  0.0242
 4354TIP3    H137257   1.818   2.814   1.807  0.6797 -0.3859  2.6192
 4354TIP3    H237258   1.850   2.691   1.889 -1.6412 -2.7658  0.1945
 4355TIP3   OH237259   4.995   3.539   1.296 -0.1285 -0.6380 -0.0016
 4355TIP3    H137260   5.009   3.560   1.203  1.1357  1.4811  0.6071
 4355TIP3    H237261   4.941   3.610   1.329  1.3124 -0.1150  1.3745
 4356TIP3   OH237262   2.365   1.002   7.722  0.0129 -0.6304 -0.3524
 4356TIP3    H137263   2.342   1.087   7.684  0.6788 -0.3278 -0.1005
 4356TIP3    H237264   2.378   1.020   7.815  1.0702 -0.8145 -0.4502
 4357TIP3   OH237265   2.959   7.095   2.588  0.2153  0.0970  0.1780
 4357TIP3    H137266   2.995   7.077   2.501 -0.1157 -0.1090  0.0860
 4357TIP3    H237267   2.922   7.183   2.581  1.8241  0.8477  0.6261
 4358TIP3   OH237268   4.156   2.227   8.719 -0.0373 -0.1392  0.0047
 4358TIP3    H137269   4.189   2.177   8.645  0.0504  0.1773 -0.1734
 4358TIP3    H237270   4.173   2.172   8.795 -1.0994 -0.9350 -0.3118
 4359TIP3   OH237271   7.078   5.739   1.674  0.5039  0.5285 -0.2312
 4359TIP3    H137272   7.061   5.708   1.763  1.6071  0.4338 -0.0429
 4359TIP3    H237273   7.083   5.660   1.621 -0.5873  0.6042 -0.4735
 4360TIP3   OH237274   6.921   0.054   1.722  0.3499  0.0844 -0.0428
 4360TIP3    H137275   6.874  -0.022   1.688  0.5230  0.4030 -1.0126
 4360TIP3    H237276   7.012   0.025   1.730 -0.0206 -0.6579  2.2076
 4361TIP3   OH237277   5.070   4.311   0.010 -0.4129  0.4179  0.5114
 4361TIP3    H137278   5.057   4.233   0.064 -0.6593 -1.1143 -1.6138
 4361TIP3    H237279   5.008   4.300  -0.063  0.4289  1.9609 -0.4895
 4362TIP3   OH237280   0.356   4.937   9.142 -0.3760  0.6650 -0.4941
 4362TIP3    H137281   0.353   4.899   9.230  2.3144  1.2134 -0.0761
 4362TIP3    H237282   0.378   4.864   9.085  1.6498  0.9123 -0.1203
 4363TIP3   OH237283   3.779   5.661   1.706  0.1142  0.0190 -0.4026
 4363TIP3    H137284   3.746   5.572   1.721 -0.8067  0.2319 -1.0482
 4363TIP3    H237285   3.743   5.712   1.778 -0.3348  0.0944 -0.6760
 4364TIP3   OH237286   1.544   4.617   8.598 -0.1095 -0.5114  0.2181
 4364TIP3    H137287   1.473   4.594   8.658 -0.8909 -1.9241 -1.1799
 4364TIP3    H237288   1.623   4.610   8.651 -0.9432  0.8668  1.7592
 4365TIP3   OH237289   4.988   5.155   2.532 -0.0591 -0.1551  0.1308
 4365TIP3    H137290   4.931   5.094   2.486  1.6494 -0.7658 -1.3073
 4365TIP3    H237291   4.973   5.239   2.489 -3.2572  0.8667  2.8504
 4366TIP3   OH237292   3.635   0.795   0.566  0.0033 -0.0645 -0.2306
 4366TIP3    H137293   3.539   0.791   0.569 -0.0720  1.2790 -0.3629
 4366TIP3    H237294   3.657   0.764   0.479 -0.5489  2.5789 -1.4125
 4367TIP3   OH237295   5.408   0.008   9.656  0.5431  0.7121  0.2738
 4367TIP3    H137296   5.349   0.041   9.588  0.1703 -0.2755  0.1058
 4367TIP3    H237297   5.349  -0.026   9.724  0.7039 -3.4309 -1.3371
 4368TIP3   OH237298   5.221   4.217   8.586 -0.0535  0.1701 -0.0634
 4368TIP3    H137299   5.281   4.226   8.660 -0.9868 -2.3648  1.1076
 4368TIP3    H237300   5.181   4.304   8.577  3.1766  1.7754 -0.4778
 4369TIP3   OH237301   1.009   5.653   8.896  0.0269  0.2508  0.2468
 4369TIP3    H137302   0.972   5.650   8.984  0.2092 -0.7136  0.2996
 4369TIP3    H237303   1.044   5.565   8.881  1.7648  0.9428 -0.0306
 4370TIP3   OH237304   5.726   6.161   0.217 -0.2587 -0.5619  0.0383
 4370TIP3    H137305   5.713   6.067   0.225 -1.6761 -0.3845  0.1803
 4370TIP3    H237306   5.651   6.191   0.166  0.7509  0.3595 -0.9490
 4371TIP3   OH237307   4.369   0.879   9.004  0.4702  0.5892 -0.5263
 4371TIP3    H137308   4.462   0.893   9.024  0.1276  1.0714  0.9140
 4371TIP3    H237309   4.326   0.958   9.037 -0.4068  0.5827 -1.6073
 4372TIP3   OH237310   3.129   0.741   1.575  0.4640  0.0044 -0.0208
 4372TIP3    H137311   3.106   0.676   1.642  1.6920 -0.3726  0.0510
 4372TIP3    H237312   3.191   0.697   1.518  1.0299  0.9918 -0.1955
 4373TIP3   OH237313   4.738   3.511   0.791  0.3300  0.0008 -0.3621
 4373TIP3    H137314   4.674   3.458   0.840 -0.3870  2.2750  1.3752
 4373TIP3    H237315   4.820   3.463   0.798 -0.5567 -1.5150 -0.0158
 4374TIP3   OH237316   4.986   1.463   1.437  0.6381 -0.1034 -0.3982
 4374TIP3    H137317   5.008   1.426   1.351 -0.1301 -0.6101 -0.3810
 4374TIP3    H237318   5.022   1.552   1.434 -0.0464  0.1615 -1.5416
 4375TIP3   OH237319   7.249   5.668   9.609 -0.2402  0.0404 -0.3072
 4375TIP3    H137320   7.208   5.719   9.678 -0.5529  0.1327 -0.5590
 4375TIP3    H237321   7.208   5.582   9.615 -1.3673  0.4805 -1.3376
 4376TIP3   OH237322   4.584   5.835   8.093 -0.3678 -0.5413 -0.0405
 4376TIP3    H137323   4.647   5.873   8.155  0.2636 -0.3672 -0.7699
 4376TIP3    H237324   4.501   5.879   8.113 -0.1851 -0.5166  0.7022
 4377TIP3   OH237325   7.214   4.804   9.457 -0.2274  0.2131  0.0629
 4377TIP3    H137326   7.194   4.773   9.369 -1.5205  1.8039 -0.2556
 4377TIP3    H237327   7.175   4.891   9.461 -0.7217 -0.0452  2.4095
 4378TIP3   OH237328   0.824   5.968   7.643  0.1615 -0.6235 -0.3449
 4378TIP3    H137329   0.891   5.974   7.711  0.0819 -2.8026 -0.0224
 4378TIP3    H237330   0.756   5.913   7.680 -2.3926  2.2713 -0.2858
 4379TIP3   OH237331   6.442   4.161   8.324 -0.0999  0.1430  0.1198
 4379TIP3    H137332   6.459   4.147   8.417 -2.0769  0.0330  0.5141
 4379TIP3    H237333   6.410   4.076   8.293  0.0247  0.3314 -0.5320
 4380TIP3   OH237334   7.371   4.240   7.745 -0.3048  0.2231  0.0155
 4380TIP3    H137335   7.396   4.189   7.668 -0.9406 -0.1278  0.0399
 4380TIP3    H237336   7.276   4.243   7.742 -0.3854 -0.4508  1.2121
 4381TIP3   OH237337   4.451   1.827   9.461 -0.0076  0.3241  0.1879
 4381TIP3    H137338   4.532   1.827   9.511  0.2727 -0.8209 -0.2346
 4381TIP3    H237339   4.383   1.847   9.525  0.5181  0.4243  0.7200
 4382TIP3   OH237340   6.756   4.176   1.249  0.1850  0.3304  0.3292
 4382TIP3    H137341   6.816   4.104   1.270 -0.5000  0.0831  1.5260
 4382TIP3    H237342   6.785   4.248   1.305 -0.0388  0.5227  0.1975
 4383TIP3   OH237343   6.053   4.041   7.724  0.0388  0.4298 -0.5173
 4383TIP3    H137344   6.072   4.133   7.704  1.5096 -0.0346 -1.3969
 4383TIP3    H237345   6.116   3.991   7.672 -1.8486 -1.1645 -1.4313
 4384TIP3   OH237346   1.212   1.754   1.240 -0.2145 -0.0473 -0.4820
 4384TIP3    H137347   1.278   1.694   1.204  0.1759  0.4296 -0.5834
 4384TIP3    H237348   1.263   1.830   1.269 -0.7902  0.6925 -1.3299
 4385TIP3   OH237349   6.533   5.784   8.180  0.2661  0.2081 -0.4498
 4385TIP3    H137350   6.506   5.818   8.095  0.4692 -1.3017 -1.1602
 4385TIP3    H237351   6.606   5.841   8.207  0.0246  0.8627 -1.1543
 4386TIP3   OH237352   1.731   3.426   2.802 -0.2830  0.3353 -0.2707
 4386TIP3    H137353   1.743   3.360   2.870 -1.2627 -0.3086 -0.6861
 4386TIP3    H237354   1.642   3.458   2.816 -0.2638  0.6488 -0.8509
 4387TIP3   OH237355   1.143   4.142   1.872  0.5551  0.4268  0.2005
 4387TIP3    H137356   1.140   4.236   1.888  0.6274  0.7623 -1.5240
 4387TIP3    H237357   1.053   4.113   1.878  0.4263  0.7682 -0.0326
 4388TIP3   OH237358   0.955   0.656   8.435 -0.4809  0.4834  0.0310
 4388TIP3    H137359   0.998   0.590   8.380  0.9992  3.0373 -2.0987
 4388TIP3    H237360   1.017   0.673   8.506 -0.2798  0.5316 -0.1572
 4389TIP3   OH237361   4.864   3.180   9.209  0.8878 -0.1738  0.3249
 4389TIP3    H137362   4.931   3.149   9.269  0.8115  0.3465  0.6855
 4389TIP3    H237363   4.838   3.265   9.244 -0.9424 -0.9528  0.9952
 4390TIP3   OH237364   6.106   5.344   9.483 -0.1703 -0.5574  0.0938
 4390TIP3    H137365   6.158   5.345   9.564  0.1412 -0.4722 -0.1065
 4390TIP3    H237366   6.091   5.436   9.464  0.0132 -0.5688 -0.1094
 4391TIP3   OH237367   6.104   0.804   8.359  0.0241 -0.2633 -0.1014
 4391TIP3    H137368   6.072   0.727   8.406  0.1165  1.0324  2.2455
 4391TIP3    H237369   6.028   0.835   8.309  0.7099 -3.3843 -3.4575
 4392TIP3   OH237370   0.211   2.388   1.943 -0.4089 -0.0427 -0.3010
 4392TIP3    H137371   0.189   2.310   1.892 -0.4059  0.2516 -0.7604
 4392TIP3    H237372   0.306   2.391   1.942 -0.4193  0.1680 -0.5898
 4393TIP3   OH237373   7.122   0.338   9.041  0.6076  0.5037  0.5299
 4393TIP3    H137374   7.161   0.350   8.954  1.2343 -1.2197  0.5339
 4393TIP3    H237375   7.197   0.333   9.101  0.2792 -0.3662  0.8794
 4394TIP3   OH237376   1.534   7.200   7.669 -0.0687  0.0944 -0.1529
 4394TIP3    H137377   1.590   7.246   7.731 -0.8518  0.4279  0.3168
 4394TIP3    H237378   1.470   7.154   7.724 -1.3404  1.1338 -0.7207
 4395TIP3   OH237379   6.074   0.145   9.486 -0.0257  0.0327  0.3868
 4395TIP3    H137380   6.130   0.072   9.458 -0.4486  0.2399 -1.0958
 4395TIP3    H237381   6.077   0.142   9.582  0.5683 -1.4682  0.3563
 4396TIP3   OH237382   2.985   0.458   9.588 -0.1032  0.0325  0.3854
 4396TIP3    H137383   2.906   0.464   9.642 -1.0495  2.0859 -1.0600
 4396TIP3    H237384   3.046   0.520   9.628 -0.4337  0.8061 -0.2779
 4397TIP3   OH237385   3.327   1.626   1.823  0.3018 -0.5397  0.7023
 4397TIP3    H137386   3.318   1.562   1.753 -0.6991 -0.3846  0.6763
 4397TIP3    H237387   3.403   1.679   1.798  0.8150 -1.3707  0.4631
 4398TIP3   OH237388   5.794   0.475   9.085  0.0346  0.0608 -0.2445
 4398TIP3    H137389   5.772   0.407   9.149  0.8253  0.4548  0.4560
 4398TIP3    H237390   5.873   0.516   9.119 -0.9641  2.0042 -0.1447
 4399TIP3   OH237391   5.494   3.558   8.248  0.4058  0.0612 -0.7060
 4399TIP3    H137392   5.565   3.570   8.185  1.3542 -0.6236  0.2029
 4399TIP3    H237393   5.416   3.543   8.194  1.1159 -0.0800 -1.7109
 4400TIP3   OH237394   0.284   1.566   0.626 -0.1515 -0.3005 -0.0615
 4400TIP3    H137395   0.270   1.630   0.697  0.8513  0.3688 -0.4338
 4400TIP3    H237396   0.372   1.531   0.643 -0.4128 -1.0697 -0.2686
 4401TIP3   OH237397   3.545   4.956   7.629 -0.0492 -0.1047  0.1567
 4401TIP3    H137398   3.463   4.915   7.656  0.0141 -0.6724 -0.4823
 4401TIP3    H237399   3.611   4.887   7.639  0.3901  0.3884  0.8035
 4402TIP3   OH237400   4.983   6.011   7.097 -0.4874 -0.3448  0.1499
 4402TIP3    H137401   4.899   6.015   7.052 -0.3831 -0.1392 -0.0270
 4402TIP3    H237402   5.048   6.004   7.027 -0.2209  1.4092  0.1888
 4403TIP3   OH237403   2.571   3.785   8.432 -0.6248 -0.2857 -0.2287
 4403TIP3    H137404   2.500   3.799   8.370  0.1077  2.6476 -0.5460
 4403TIP3    H237405   2.648   3.773   8.378 -0.3774 -0.2357  0.1111
 4404TIP3   OH237406   0.683   2.924   9.438  0.5167 -0.4751  0.1949
 4404TIP3    H137407   0.776   2.907   9.425  0.5948 -1.8720  2.0947
 4404TIP3    H237408   0.639   2.866   9.376  0.9212 -1.1886  0.5549
 4405TIP3   OH237409   4.680   3.283   8.753  0.6327 -0.0313  0.0917
 4405TIP3    H137410   4.688   3.239   8.668  0.3393  1.3630 -0.6928
 4405TIP3    H237411   4.643   3.369   8.732 -1.1540 -0.3177  1.8337
 4406TIP3   OH237412   3.758   3.460   1.182 -0.3460 -0.0476 -0.1507
 4406TIP3    H137413   3.789   3.544   1.148  2.6680 -1.1063 -0.3327
 4406TIP3    H237414   3.706   3.423   1.111 -1.1753  1.3651 -0.3089
 4407TIP3   OH237415   0.237   0.331   2.255  0.2057 -0.0043 -0.1462
 4407TIP3    H137416   0.302   0.276   2.211  1.5043  0.5714  0.9503
 4407TIP3    H237417   0.274   0.345   2.343 -0.2595  2.2791 -0.2578
 4408TIP3   OH237418   0.502   6.980   7.653 -0.1306  0.3794  0.2929
 4408TIP3    H137419   0.593   6.959   7.672 -0.4152  0.9304  2.5794
 4408TIP3    H237420   0.469   6.905   7.603  1.2795 -0.2954  0.3457
 4409TIP3   OH237421   6.908   1.389   2.734 -0.1813  0.0868 -0.3004
 4409TIP3    H137422   6.825   1.408   2.778 -1.0369  0.1195 -1.8709
 4409TIP3    H237423   6.934   1.473   2.696 -0.1363 -0.2151 -0.9485
 4410TIP3   OH237424   6.791   6.236   1.987 -0.2460 -0.5977 -0.5398
 4410TIP3    H137425   6.881   6.267   1.993 -0.5187  0.5334 -1.7881
 4410TIP3    H237426   6.760   6.237   2.077  0.5404  0.4629 -0.2529
 4411TIP3   OH237427   4.883   1.759   2.176 -0.3540 -0.3085  0.0926
 4411TIP3    H137428   4.941   1.832   2.155 -0.1809  0.1784  2.1061
 4411TIP3    H237429   4.830   1.747   2.097  0.8701  0.7691 -0.9315
 4412TIP3   OH237430   0.887   5.566   7.699  0.8295  0.3408 -0.2672
 4412TIP3    H137431   0.869   5.540   7.609  1.5461  2.4133 -1.0828
 4412TIP3    H237432   0.806   5.607   7.729  0.8489  0.3772 -0.2641
 4413TIP3   OH237433   6.595   4.018   0.031 -0.3211  0.4452 -0.7147
 4413TIP3    H137434   6.513   3.979   0.004 -0.3908 -1.1654  1.5252
 4413TIP3    H237435   6.589   4.023   0.127  1.7561  1.2887 -0.5669
 4414TIP3   OH237436   4.824   0.908   7.856 -0.4943 -0.5778  0.3894
 4414TIP3    H137437   4.864   0.886   7.940  0.3871  1.0292  0.4334
 4414TIP3    H237438   4.887   0.880   7.790 -0.4174 -0.2916  0.3411
 4415TIP3   OH237439   2.013   6.966   0.236  0.1945 -0.7793  0.0501
 4415TIP3    H137440   1.960   6.915   0.297  1.2587 -0.4244  1.3098
 4415TIP3    H237441   2.061   6.900   0.185 -1.2623 -1.0936 -0.9621
 4416TIP3   OH237442   6.751   2.632   2.235  0.2884 -0.3283 -0.0109
 4416TIP3    H137443   6.684   2.650   2.169 -0.0379 -0.7489  0.1972
 4416TIP3    H237444   6.704   2.584   2.304  0.7056 -0.2239  0.3491
 4417TIP3   OH237445   2.376   1.893   7.594 -0.0894 -0.3443 -0.2836
 4417TIP3    H137446   2.344   1.973   7.635 -2.2397 -0.8837 -0.7804
 4417TIP3    H237447   2.428   1.923   7.519 -2.8051  0.6968 -1.9173
 4418TIP3   OH237448   2.659   2.538   7.905  0.2319  0.2107  0.0963
 4418TIP3    H137449   2.572   2.542   7.945  0.2711 -3.0399  0.7139
 4418TIP3    H237450   2.689   2.449   7.920  2.9757  0.7153 -1.6573
 4419TIP3   OH237451   5.110   3.843   6.898 -0.7045  0.3744  0.5705
 4419TIP3    H137452   5.030   3.836   6.951 -1.0616 -0.1724 -0.0369
 4419TIP3    H237453   5.083   3.889   6.819 -0.2804  0.7149  0.6155
 4420TIP3   OH237454   7.114   5.049   9.502  0.3173  0.1044  0.1256
 4420TIP3    H137455   7.072   5.037   9.587  0.4282  1.2462  0.3622
 4420TIP3    H237456   7.166   5.129   9.512  1.0005 -0.2184 -0.7586
 4421TIP3   OH237457   0.522   5.170   2.095 -0.0461  0.6129  0.1110
 4421TIP3    H137458   0.493   5.124   2.016 -2.5549  0.1204  1.2087
 4421TIP3    H237459   0.610   5.136   2.111  1.1779  1.8197 -3.2029
 4422TIP3   OH237460   1.838   7.160   7.837 -0.1842  0.1185  0.1586
 4422TIP3    H137461   1.766   7.151   7.900  0.5022  1.2120  1.1384
 4422TIP3    H237462   1.836   7.078   7.788 -0.7635 -0.7857  1.6022
 4423TIP3   OH237463   1.702   3.844   8.467 -0.6903  0.1207  0.2837
 4423TIP3    H137464   1.614   3.862   8.432  0.2345 -0.2142 -2.4523
 4423TIP3    H237465   1.690   3.768   8.523 -1.8435 -1.4981 -1.9899
 4424TIP3   OH237466   2.891   0.745   7.485 -0.0047 -0.1311  0.5256
 4424TIP3    H137467   2.826   0.714   7.421 -1.4106  0.7534  1.4772
 4424TIP3    H237468   2.885   0.840   7.481  0.9577 -0.0490  0.9250
 4425TIP3   OH237469   7.270   2.418   1.057  0.2839  0.4966 -0.2202
 4425TIP3    H137470   7.285   2.510   1.038  0.3670  0.3896 -0.6810
 4425TIP3    H237471   7.347   2.373   1.024  0.8091  0.3832  1.0976
 4426TIP3   OH237472   6.871   1.259   8.125 -0.3867  0.5577 -0.0476
 4426TIP3    H137473   6.820   1.185   8.157 -0.5537  0.1071 -1.2963
 4426TIP3    H237474   6.837   1.276   8.037 -0.3010  2.0811  0.1791
 4427TIP3   OH237475   3.098   5.203   2.742 -0.6984 -0.0532 -0.2533
 4427TIP3    H137476   3.031   5.140   2.772 -0.3241 -0.3075  0.0666
 4427TIP3    H237477   3.140   5.232   2.823 -1.4344  1.2768 -0.3210
 4428TIP3   OH237478   5.678   1.967   7.929  0.1956 -0.4203  0.4333
 4428TIP3    H137479   5.704   1.930   7.845 -1.7297 -2.8168  0.7873
 4428TIP3    H237480   5.593   2.008   7.913 -0.7857 -1.9646  1.3672
 4429TIP3   OH237481   6.938   3.100   7.505  0.2707 -1.0109 -0.0263
 4429TIP3    H137482   7.007   3.098   7.439 -0.0346 -3.2040 -0.3584
 4429TIP3    H237483   6.983   3.121   7.587  0.6138  2.0965 -0.8895
 4430TIP3   OH237484   5.496   3.047   8.402 -0.3290  0.3339  0.2176
 4430TIP3    H137485   5.571   2.998   8.368 -1.5854 -2.0997  0.7669
 4430TIP3    H237486   5.479   3.114   8.336  2.1698  0.8346 -0.0116
 4431TIP3   OH237487   6.767   5.491   9.031 -0.2805 -0.6872 -0.0522
 4431TIP3    H137488   6.793   5.525   8.946  1.7781  0.0979  0.8038
 4431TIP3    H237489   6.783   5.397   9.025  0.6219 -0.5260 -0.3017
 4432TIP3   OH237490   6.433   7.045   9.268  0.2433 -0.1961 -0.0625
 4432TIP3    H137491   6.343   7.076   9.254  0.8922  1.7288 -0.2834
 4432TIP3    H237492   6.482   7.079   9.193  1.5520  0.6187  1.1043
 4433TIP3   OH237493   6.536   5.945   7.965 -0.5512 -0.4250 -0.0965
 4433TIP3    H137494   6.592   6.013   7.930  0.0566 -1.2436 -0.7610
 4433TIP3    H237495   6.447   5.973   7.943 -0.2834 -0.0754 -0.7700
 4434TIP3   OH237496   3.007   2.064   9.492  0.7048  0.2067 -0.4451
 4434TIP3    H137497   2.983   2.107   9.574 -0.9624 -1.8183  0.2070
 4434TIP3    H237498   3.101   2.081   9.483  1.0444  0.1044  2.1278
 4435TIP3   OH237499   1.740   7.184   2.274  0.3224 -0.2765  0.0431
 4435TIP3    H137500   1.817   7.189   2.218 -0.1667 -2.6863 -0.9928
 4435TIP3    H237501   1.772   7.203   2.362  1.7323  0.4579 -0.6028
 4436TIP3   OH237502   3.882   3.600   7.399 -0.4684 -0.2230 -0.9332
 4436TIP3    H137503   3.976   3.594   7.415 -0.5963 -1.3387 -0.4832
 4436TIP3    H237504   3.858   3.687   7.430  0.5553  0.4006 -1.8469
 4437TIP3   OH237505   2.041   2.929   2.850 -0.2909 -0.1902 -0.0280
 4437TIP3    H137506   2.051   2.965   2.762  0.0416  1.4066  0.6185
 4437TIP3    H237507   2.062   2.836   2.841  1.6462  0.3125 -1.3065
 4438TIP3   OH237508   0.873   3.198   2.410 -0.2175 -0.0841  0.3897
 4438TIP3    H137509   0.795   3.166   2.454 -0.5731 -0.4911 -0.5300
 4438TIP3    H237510   0.937   3.128   2.420 -0.5533 -0.5190 -0.4151
 4439TIP3   OH237511   1.354   3.548   0.204  0.1038 -0.4981 -0.0219
 4439TIP3    H137512   1.311   3.528   0.121 -1.1812  1.2642  0.1772
 4439TIP3    H237513   1.445   3.519   0.191 -0.1825 -0.6716 -1.8707
 4440TIP3   OH237514   0.277   1.342   2.117 -0.3700  0.0581 -0.0023
 4440TIP3    H137515   0.292   1.280   2.189  0.7945  1.5914  1.1555
 4440TIP3    H237516   0.357   1.337   2.065  0.1308  1.1921  0.6153
 4441TIP3   OH237517   0.824   1.332   9.549 -0.0778 -0.3792 -0.0280
 4441TIP3    H137518   0.758   1.298   9.610  0.4667 -0.0693  0.7405
 4441TIP3    H237519   0.804   1.425   9.541  2.0224  0.3885  2.5429
 4442TIP3   OH237520   2.466   7.171   2.834  0.6548 -0.1977 -0.3489
 4442TIP3    H137521   2.397   7.219   2.880  0.5759 -1.3309  0.7770
 4442TIP3    H237522   2.422   7.094   2.798  0.9728  0.0242 -1.2197
 4443TIP3   OH237523   4.359   5.748   9.522  0.0406 -0.1238 -0.2784
 4443TIP3    H137524   4.338   5.660   9.491 -3.1401  1.1047 -2.1230
 4443TIP3    H237525   4.340   5.746   9.615 -1.2355 -1.1125 -0.5298
 4444TIP3   OH237526   3.870   6.417   8.008  0.4827 -0.0129  0.5947
 4444TIP3    H137527   3.818   6.480   8.058 -0.7843 -0.8203  0.3234
 4444TIP3    H237528   3.955   6.460   7.998  0.4256  0.6584  2.4585
 4445TIP3   OH237529   7.023   0.804   1.748  0.3611  0.1076 -0.3673
 4445TIP3    H137530   7.045   0.837   1.661 -0.2330 -0.4374 -0.7255
 4445TIP3    H237531   7.094   0.744   1.769  0.8538  0.7371 -0.1867
 4446TIP3   OH237532   1.825   3.261   1.835 -0.1874  0.5669 -0.2693
 4446TIP3    H137533   1.760   3.308   1.783 -1.4689  1.3852  1.9347
 4446TIP3    H237534   1.801   3.280   1.926  3.0202  0.7522  0.6517
 4447TIP3   OH237535   3.513   5.559   0.721  0.2896 -0.0931 -0.6153
 4447TIP3    H137536   3.491   5.498   0.651  1.0496  0.4474 -1.3348
 4447TIP3    H237537   3.540   5.639   0.676  0.4405  0.3845  0.2989
 4448TIP3   OH237538   6.098   0.403   9.660  0.5242 -0.0389  0.3654
 4448TIP3    H137539   6.088   0.318   9.705  0.1947 -0.5778 -0.6976
 4448TIP3    H237540   6.039   0.461   9.708  0.2496 -0.5777  0.7000
 4449TIP3   OH237541   4.358   4.430   1.936 -0.0346  0.2545  0.7822
 4449TIP3    H137542   4.304   4.479   1.999  0.2897 -0.8156  1.9271
 4449TIP3    H237543   4.448   4.449   1.962  0.0974 -1.4355  1.6733
 4450TIP3   OH237544   1.079   6.059   0.965 -0.3862  0.6201  0.5824
 4450TIP3    H137545   1.069   6.028   1.055 -0.5532  0.9025  0.6622
 4450TIP3    H237546   0.997   6.105   0.946 -0.4919  0.2638  0.1654
 4451TIP3   OH237547   0.193   0.815   2.399 -0.4232 -0.1045  0.0095
 4451TIP3    H137548   0.167   0.906   2.385 -0.4694  0.0008  0.7475
 4451TIP3    H237549   0.263   0.819   2.464 -0.3528 -0.5911 -0.0273
 4452TIP3   OH237550   4.508   6.131   1.507 -0.1327 -0.4172 -0.1945
 4452TIP3    H137551   4.475   6.135   1.417 -0.9410 -2.7297 -0.0635
 4452TIP3    H237552   4.585   6.188   1.506  0.7699 -1.5157 -2.7618
 4453TIP3   OH237553   1.170   4.498   8.150 -0.4090  0.0025 -0.4170
 4453TIP3    H137554   1.247   4.498   8.093  0.2495  1.1309  0.4197
 4453TIP3    H237555   1.207   4.494   8.239 -1.2187  2.1321  0.0763
 4454TIP3   OH237556   3.962   3.217   1.094 -0.8428 -0.0091  0.1477
 4454TIP3    H137557   3.984   3.229   1.186  0.3810  2.4134 -0.3855
 4454TIP3    H237558   3.924   3.300   1.067 -0.1816 -0.2835 -1.7948
 4455TIP3   OH237559   1.038   3.340   9.355 -0.0114 -0.7431  0.1697
 4455TIP3    H137560   1.077   3.420   9.390 -0.2914  0.6445 -2.4798
 4455TIP3    H237561   1.111   3.295   9.313 -0.2062 -0.9872  0.0930
 4456TIP3   OH237562   6.020   1.449   1.464 -0.0400  0.7520 -0.4549
 4456TIP3    H137563   5.949   1.513   1.471 -0.2646  0.4463  0.1509
 4456TIP3    H237564   6.091   1.486   1.516  0.1528  0.9262 -0.8350
 4457TIP3   OH237565   2.255   1.411   2.542  0.1322  0.3209  0.0130
 4457TIP3    H137566   2.198   1.482   2.511  0.7762  0.2098 -1.5389
 4457TIP3    H237567   2.344   1.445   2.529  0.4560  0.2910  1.9136
 4458TIP3   OH237568   2.001   6.590   7.047 -0.1655  0.3306 -0.6299
 4458TIP3    H137569   1.955   6.552   6.972  0.4099 -0.0544 -0.7968
 4458TIP3    H237570   1.987   6.527   7.118  0.3496  0.0613 -0.7633
 4459TIP3   OH237571   6.092   1.964   8.970 -0.0353 -0.0317 -0.0365
 4459TIP3    H137572   6.177   2.006   8.961 -0.6025  1.1910  0.1113
 4459TIP3    H237573   6.075   1.924   8.885  0.6670 -0.2681 -0.0687
 4460TIP3   OH237574   2.256   1.740   9.642  0.4709  0.1986 -0.3329
 4460TIP3    H137575   2.262   1.818   9.697  0.6976 -0.0949  0.0718
 4460TIP3    H237576   2.224   1.672   9.702  2.3089 -0.5405 -0.1350
 4461TIP3   OH237577   4.121   5.421   8.799 -0.1042  0.2659 -0.3361
 4461TIP3    H137578   4.039   5.441   8.843 -0.5247 -1.3110 -0.3268
 4461TIP3    H237579   4.145   5.501   8.753 -2.1017  0.5125 -1.0379
 4462TIP3   OH237580   1.746   6.427   1.582  0.2457 -0.6239  0.4448
 4462TIP3    H137581   1.753   6.444   1.676  0.7212 -0.2915  0.3540
 4462TIP3    H237582   1.687   6.495   1.550  0.9625 -0.0357  0.3294
 4463TIP3   OH237583   2.226   1.783   7.042 -0.2338  0.0431  0.4568
 4463TIP3    H137584   2.251   1.724   6.971  0.4613  0.9026 -0.0226
 4463TIP3    H237585   2.133   1.766   7.055 -0.8962  1.3514 -2.0856
 4464TIP3   OH237586   3.493   1.030   1.467  0.3991 -0.0261 -0.4973
 4464TIP3    H137587   3.466   0.974   1.540  0.9015  0.5367  0.1371
 4464TIP3    H237588   3.412   1.051   1.421  0.1436 -0.8370 -0.4230
 4465TIP3   OH237589   6.162   6.097   1.333 -0.2452  0.5308  0.6901
 4465TIP3    H137590   6.168   6.003   1.317  2.1605  0.7152  0.1264
 4465TIP3    H237591   6.180   6.137   1.248  1.7933  1.4628  1.4808
 4466TIP3   OH237592   6.940   0.439   6.655  0.4358 -0.2916 -0.0045
 4466TIP3    H137593   6.936   0.482   6.741  1.5879  0.2737 -0.2121
 4466TIP3    H237594   6.949   0.511   6.593  1.0584 -0.7579 -0.4721
 4467TIP3   OH237595   6.431   4.324   0.364  0.0734 -0.3489  0.2660
 4467TIP3    H137596   6.465   4.258   0.304  0.1463 -0.3504  0.3088
 4467TIP3    H237597   6.405   4.397   0.309 -0.3912 -0.5749  0.1755
 4468TIP3   OH237598   4.621   1.596   8.538  0.3011 -0.4764 -0.2048
 4468TIP3    H137599   4.620   1.692   8.546 -0.4680 -0.3667 -1.4490
 4468TIP3    H237600   4.714   1.574   8.535  0.4806  0.2743 -0.3690
 4469TIP3   OH237601   0.693   1.523   6.897  0.2756  0.4737 -0.0246
 4469TIP3    H137602   0.650   1.582   6.959  1.2464 -0.6914  1.8304
 4469TIP3    H237603   0.742   1.462   6.952 -0.4226 -1.8802 -1.8474
 4470TIP3   OH237604   3.347   0.197   7.188  0.4061  0.1491  0.4970
 4470TIP3    H137605   3.260   0.157   7.195  0.2451  0.2604 -0.6975
 4470TIP3    H237606   3.395   0.141   7.127  1.4885 -0.4046  1.7929
 4471TIP3   OH237607   1.810   3.576   2.259  0.7405  0.0265 -0.0839
 4471TIP3    H137608   1.831   3.639   2.190 -2.3830  0.4873 -0.7614
 4471TIP3    H237609   1.874   3.595   2.328  2.0443  1.5943 -1.6010
 4472TIP3   OH237610   3.606   4.581   0.615 -0.1345  0.7069 -0.4545
 4472TIP3    H137611   3.519   4.579   0.576 -1.0973  2.1877  1.4443
 4472TIP3    H237612   3.626   4.674   0.625  1.7859  0.4056 -1.0279
 4473TIP3   OH237613   2.180   2.064   2.273  0.0425 -0.1346  0.2952
 4473TIP3    H137614   2.116   1.994   2.278 -0.0123 -0.1373 -0.4088
 4473TIP3    H237615   2.152   2.118   2.199  0.5337  0.1779  0.3302
 4474TIP3   OH237616   2.838   3.298   0.645  0.2411  0.1714 -0.3364
 4474TIP3    H137617   2.797   3.220   0.608 -1.6101  0.3151  1.2579
 4474TIP3    H237618   2.831   3.287   0.739 -0.0008  2.2138 -0.0632
 4475TIP3   OH237619   1.701   3.167   8.411 -0.6769  0.4247  0.0809
 4475TIP3    H137620   1.791   3.180   8.381 -0.0734 -0.2738  1.4751
 4475TIP3    H237621   1.698   3.209   8.496 -1.3452 -0.4725  0.5187
 4476TIP3   OH237622   2.407   6.763   1.743  0.1249  0.3394  0.4767
 4476TIP3    H137623   2.462   6.695   1.706  0.7000  1.1672 -0.2323
 4476TIP3    H237624   2.346   6.786   1.673  2.0175  2.7860 -0.5217
 4477TIP3   OH237625   6.230   7.248   7.818 -0.2605  0.0040  0.1908
 4477TIP3    H137626   6.139   7.224   7.802 -0.3151  0.0120  0.4847
 4477TIP3    H237627   6.253   7.200   7.898  0.3586 -0.9648 -0.5359
 4478TIP3   OH237628   3.180   0.569   8.259 -0.5221 -0.1809  0.4911
 4478TIP3    H137629   3.138   0.647   8.294 -1.6272 -0.8309  0.6828
 4478TIP3    H237630   3.151   0.564   8.168 -0.7973 -0.5888  0.5982
 4479TIP3   OH237631   3.419   0.338   0.342 -0.1427  0.0394  0.3519
 4479TIP3    H137632   3.401   0.412   0.400 -2.1395  0.3789 -0.6000
 4479TIP3    H237633   3.396   0.261   0.393  0.2983  0.1862  0.7735
 4480TIP3   OH237634   3.486   5.492   1.769  0.0654 -0.3677 -0.0509
 4480TIP3    H137635   3.558   5.509   1.830  1.3043  0.0803 -1.5678
 4480TIP3    H237636   3.525   5.501   1.683 -1.9205  0.2518 -0.9423
 4481TIP3   OH237637   2.695   5.464   8.920 -0.3692 -0.1531  0.9115
 4481TIP3    H137638   2.621   5.421   8.878  0.6423  1.3574 -2.7954
 4481TIP3    H237639   2.669   5.556   8.928  0.0401 -0.1272  2.3953
 4482TIP3   OH237640   5.855   3.225   8.495 -0.6627  0.0928  0.0419
 4482TIP3    H137641   5.799   3.293   8.457 -2.0207 -1.4921 -0.8924
 4482TIP3    H237642   5.835   3.146   8.446  1.8379 -0.7527  0.2150
 4483TIP3   OH237643   4.515   6.248   2.593 -0.1338  0.4691  0.6643
 4483TIP3    H137644   4.519   6.152   2.596 -0.0705  0.4824  1.3520
 4483TIP3    H237645   4.528   6.275   2.685  0.1201  1.1426  0.4400
 4484TIP3   OH237646   3.077   1.590   1.931  0.2969 -0.0121 -0.7409
 4484TIP3    H137647   3.168   1.597   1.900 -0.3221  1.9649 -2.4050
 4484TIP3    H237648   3.081   1.530   2.005  2.7832 -0.8305 -1.4359
 4485TIP3   OH237649   3.292   6.931   2.371  0.4065  0.0866 -0.2528
 4485TIP3    H137650   3.341   6.974   2.441  0.1551  0.5844 -0.3807
 4485TIP3    H237651   3.307   6.837   2.386 -0.8064  0.0891  1.3650
 4486TIP3   OH237652   6.598   5.946   1.510 -0.2486 -0.6183  0.3180
 4486TIP3    H137653   6.503   5.942   1.526 -0.5378 -3.6819 -1.3255
 4486TIP3    H237654   6.610   6.025   1.457 -2.0307 -0.5283 -0.0367
 4487TIP3   OH237655   5.833   4.819   6.619  0.2163  0.2406 -0.1587
 4487TIP3    H137656   5.799   4.883   6.556  0.3931 -0.1469 -0.6543
 4487TIP3    H237657   5.913   4.785   6.579  0.8958  0.7318  0.7454
 4488TIP3   OH237658   4.285   1.529   0.393 -0.5678 -0.4061  0.5139
 4488TIP3    H137659   4.342   1.497   0.463  0.0269  0.5191  0.4751
 4488TIP3    H237660   4.342   1.530   0.315 -1.1736 -1.2613  0.0445
 4489TIP3   OH237661   5.124   5.008   2.729  0.0167 -0.2523  0.1775
 4489TIP3    H137662   5.058   5.057   2.680  0.0269  0.5194  0.9010
 4489TIP3    H237663   5.110   5.035   2.820  0.7058 -0.8155  0.4558
 4490TIP3   OH237664   2.881   4.935   8.150 -0.7180 -0.1990  0.6572
 4490TIP3    H137665   2.930   4.864   8.108 -1.8849 -0.4208 -0.3926
 4490TIP3    H237666   2.849   4.897   8.231 -0.2061 -0.4440  0.7476
 4491TIP3   OH237667   2.362   4.595   8.474  0.2809  0.0022  0.2634
 4491TIP3    H137668   2.358   4.624   8.566 -1.8123 -0.5703  0.4078
 4491TIP3    H237669   2.304   4.519   8.471  2.8641 -2.0480 -0.8681
 4492TIP3   OH237670   2.769   4.931   7.276  0.3320 -0.0186 -0.1579
 4492TIP3    H137671   2.786   5.018   7.311  1.3700  0.3007 -1.3843
 4492TIP3    H237672   2.686   4.905   7.316 -0.9025  2.2483 -1.0859
 4493TIP3   OH237673   5.185   2.688   0.775 -0.4632 -0.3577 -0.1514
 4493TIP3    H137674   5.169   2.738   0.695 -2.5844 -1.2337 -0.3391
 4493TIP3    H237675   5.279   2.698   0.791 -0.6251  3.0550 -0.5542
 4494TIP3   OH237676   3.015   4.736   2.227 -0.7871 -0.0259  0.1917
 4494TIP3    H137677   3.008   4.808   2.289 -1.9852  1.2260 -1.3235
 4494TIP3    H237678   3.015   4.778   2.141 -1.9377 -1.8617 -0.7643
 4495TIP3   OH237679   6.046   4.868   8.208  0.1398 -0.0347 -0.0093
 4495TIP3    H137680   5.960   4.910   8.201  0.3281  0.3581 -0.0086
 4495TIP3    H237681   6.065   4.870   8.302  0.7696  1.1704 -0.1347
 4496TIP3   OH237682   1.938   4.687   1.345 -0.1983  0.0868  0.1225
 4496TIP3    H137683   1.854   4.716   1.309 -0.3317 -2.0873 -1.5502
 4496TIP3    H237684   1.993   4.673   1.268  1.3885  0.5384  1.1454
 4497TIP3   OH237685   5.844   6.387   7.548  0.1926 -0.5270  0.3595
 4497TIP3    H137686   5.759   6.357   7.517  0.4234 -2.6380  1.5948
 4497TIP3    H237687   5.838   6.483   7.546 -2.1480 -0.6211  0.2972
 4498TIP3   OH237688   5.178   6.234   0.059 -0.1124 -0.3675  0.1131
 4498TIP3    H137689   5.163   6.140   0.045  1.2928 -0.5815 -0.1071
 4498TIP3    H237690   5.175   6.244   0.154 -0.0551 -0.6731  0.1505
 4499TIP3   OH237691   1.217   2.462   0.863  0.5174  0.2766  0.1616
 4499TIP3    H137692   1.170   2.512   0.796 -0.7324 -1.7464 -0.5729
 4499TIP3    H237693   1.153   2.449   0.933  1.5358  1.5820  1.4091
 4500TIP3   OH237694   4.291   3.861   1.613 -0.0030  0.2596  0.2784
 4500TIP3    H137695   4.234   3.874   1.537  3.2216  1.6426 -2.1669
 4500TIP3    H237696   4.332   3.946   1.628  0.4016 -0.2946  2.8354
 4501TIP3   OH237697   5.473   2.620   9.341  0.2338 -0.0545  0.5537
 4501TIP3    H137698   5.434   2.539   9.307 -1.2258  1.2025 -1.0018
 4501TIP3    H237699   5.560   2.623   9.301  0.4561 -1.0172  0.9330
 4502TIP3   OH237700   2.811   0.162   2.710 -0.5164  0.3128 -0.2432
 4502TIP3    H137701   2.795   0.220   2.636 -2.1283  2.0590  1.3824
 4502TIP3    H237702   2.831   0.220   2.783  1.5397 -1.3677  0.6657
 4503TIP3   OH237703   5.177   5.124   1.821  0.0858  0.6018 -0.4854
 4503TIP3    H137704   5.154   5.183   1.892  2.7822 -0.3058  1.3286
 4503TIP3    H237705   5.236   5.175   1.765  0.9776  0.2252  0.0840
 4504TIP3   OH237706   2.876   2.596   0.147 -0.1652  0.1940  0.1060
 4504TIP3    H137707   2.831   2.677   0.169  0.1960  0.4699 -0.1645
 4504TIP3    H237708   2.901   2.606   0.056 -0.6068 -0.4544 -0.0952
 4505TIP3   OH237709   6.343   4.238   8.657 -0.9667  0.5513 -0.0992
 4505TIP3    H137710   6.422   4.187   8.640 -0.2383  0.8797  1.9708
 4505TIP3    H237711   6.279   4.206   8.594 -0.0306 -1.7173  0.0195
 4506TIP3   OH237712   6.682   7.016   1.647 -0.1525  0.1394 -0.5226
 4506TIP3    H137713   6.699   7.000   1.740 -0.2911  1.7243 -0.1886
 4506TIP3    H237714   6.685   6.930   1.607 -1.0987 -0.7049  1.1146
 4507TIP3   OH237715   2.839   0.345   8.988  0.1288 -0.2654 -0.4581
 4507TIP3    H137716   2.801   0.261   8.963  0.6907 -0.5093 -0.5036
 4507TIP3    H237717   2.794   0.368   9.070 -0.8371 -0.0509 -1.0306
 4508TIP3   OH237718   5.549   5.949   7.647 -0.2750  0.2572  0.2887
 4508TIP3    H137719   5.461   5.926   7.618 -1.2377  0.9850  2.4185
 4508TIP3    H237720   5.576   6.019   7.587 -1.6922  0.9484  0.4268
 4509TIP3   OH237721   4.723   2.292   2.265 -0.1820 -0.1316 -0.1001
 4509TIP3    H137722   4.744   2.376   2.307 -0.8959 -1.3767  3.0576
 4509TIP3    H237723   4.778   2.290   2.187  0.2088  3.0385 -0.0445
 4510TIP3   OH237724   0.733   1.207   0.679 -0.2291  0.3903  0.1912
 4510TIP3    H137725   0.746   1.282   0.620  0.1078  1.6289  1.7495
 4510TIP3    H237726   0.643   1.179   0.663  0.1365  0.0862 -1.5396
 4511TIP3   OH237727   4.056   7.387   1.085  0.4305  0.5680  0.7020
 4511TIP3    H137728   4.041   7.325   1.014  1.7942  0.8872  0.1206
 4511TIP3    H237729   4.108   7.338   1.149  1.7478  1.1620  0.1174
 4512TIP3   OH237730   5.238   6.572   9.637  0.0357  0.0940 -0.1619
 4512TIP3    H137731   5.210   6.510   9.570  0.7057  0.8943 -1.2159
 4512TIP3    H237732   5.333   6.561   9.641  0.3994  2.2280 -1.6287
 4513TIP3   OH237733   7.208   7.012   7.215  0.2604  0.3925  0.0226
 4513TIP3    H137734   7.192   6.935   7.271  1.5845 -1.4019 -1.9184
 4513TIP3    H237735   7.154   6.997   7.138  1.0109  1.1008 -0.6545
 4514TIP3   OH237736   3.882   3.930   9.094 -0.6367  0.2490 -0.1822
 4514TIP3    H137737   3.911   4.017   9.122  0.5774 -0.2073  0.0584
 4514TIP3    H237738   3.859   3.885   9.176 -2.5602  0.7459 -0.3952
 4515TIP3   OH237739   7.362   4.503   8.762 -0.2307  0.0030 -0.0461
 4515TIP3    H137740   7.294   4.482   8.699 -1.0923  0.1228  0.8131
 4515TIP3    H237741   7.319   4.498   8.847  0.8628 -0.0234  0.5370
 4516TIP3   OH237742   2.110   1.242   1.605  0.6687 -0.1086 -0.5865
 4516TIP3    H137743   2.081   1.272   1.691 -0.4785  1.6051 -1.5047
 4516TIP3    H237744   2.205   1.235   1.612  0.7239  1.3192  0.4701
 4517TIP3   OH237745   2.616   5.124   7.008  0.2848  0.1807 -0.2037
 4517TIP3    H137746   2.539   5.091   6.962  1.3409 -0.5290 -1.5193
 4517TIP3    H237747   2.600   5.218   7.016 -1.1474 -0.0842  0.4408
 4518TIP3   OH237748   2.655   0.167   2.441 -0.1217 -0.0745  0.0204
 4518TIP3    H137749   2.590   0.172   2.511  0.6189  0.3170  0.7015
 4518TIP3    H237750   2.702   0.250   2.446 -0.0536 -0.0402 -0.9534
 4519TIP3   OH237751   3.194   5.783   0.751 -0.7255  0.0610 -0.3402
 4519TIP3    H137752   3.199   5.716   0.683  0.4708 -0.2444  0.0302
 4519TIP3    H237753   3.223   5.739   0.831 -0.4468  0.8706  0.0209
 4520TIP3   OH237754   7.161   6.767   1.927  1.0136 -0.1293  0.2909
 4520TIP3    H137755   7.155   6.790   2.019  0.7873 -0.8633  0.4636
 4520TIP3    H237756   7.208   6.841   1.887  1.2864  0.0991  1.0188
 4521TIP3   OH237757   5.429   3.270   0.526 -0.2589  0.4208  0.1503
 4521TIP3    H137758   5.447   3.207   0.596  1.8573  0.6343 -0.1307
 4521TIP3    H237759   5.350   3.316   0.554 -2.4859 -2.8986 -0.0245
 4522TIP3   OH237760   5.820   5.202   2.359  0.1031 -0.2210  0.1924
 4522TIP3    H137761   5.788   5.281   2.403  0.5819 -0.2935  0.6818
 4522TIP3    H237762   5.911   5.193   2.389  0.1452 -0.7928 -0.0892
 4523TIP3   OH237763   6.665   4.992   7.180  0.6041  0.2931 -0.1280
 4523TIP3    H137764   6.746   5.034   7.150 -0.1653  2.1520  0.2955
 4523TIP3    H237765   6.678   4.979   7.274  1.0216 -0.9147 -0.3305
 4524TIP3   OH237766   7.235   4.532   8.045 -0.2027 -0.4753 -0.2365
 4524TIP3    H137767   7.166   4.599   8.046 -0.5434 -0.8309  0.3620
 4524TIP3    H237768   7.227   4.488   8.130  0.1642 -1.1285 -0.5351
 4525TIP3   OH237769   1.747   0.140   7.463 -0.1237  0.2674  0.1071
 4525TIP3    H137770   1.819   0.197   7.435 -0.8907  1.3191  0.1778
 4525TIP3    H237771   1.670   0.177   7.420 -1.3184  1.7161  3.1745
 4526TIP3   OH237772   6.491   4.044   8.564 -0.7265 -0.3758  0.0163
 4526TIP3    H137773   6.454   3.964   8.601 -0.0854  0.3017  2.2787
 4526TIP3    H237774   6.583   4.041   8.589 -0.2356  0.1296 -1.6214
 4527TIP3   OH237775   0.255   0.556   9.437  0.0437 -0.1022  0.2873
 4527TIP3    H137776   0.246   0.492   9.508  2.5097 -0.2142  0.5832
 4527TIP3    H237777   0.299   0.631   9.477  1.8232 -0.3059 -1.1394
 4528TIP3   OH237778   4.595   1.097   0.368  0.2179  0.2045 -0.4481
 4528TIP3    H137779   4.529   1.123   0.304 -0.6746 -0.4331  0.1910
 4528TIP3    H237780   4.644   1.177   0.386 -0.1372  0.6039 -1.2070
 4529TIP3   OH237781   3.961   3.283   7.773 -0.0687  0.0800 -0.2688
 4529TIP3    H137782   4.029   3.237   7.822  0.5171  1.7872  0.5827
 4529TIP3    H237783   4.001   3.366   7.748 -0.6971 -0.2785 -2.7976
 4530TIP3   OH237784   1.180   5.930   8.966  0.3701  0.0937 -0.0392
 4530TIP3    H137785   1.176   6.011   9.016 -0.1274 -1.3974  2.5128
 4530TIP3    H237786   1.094   5.889   8.979  1.2116 -1.6701  0.3111
 4531TIP3   OH237787   7.186   1.458   7.757 -0.0046  0.3505  0.1049
 4531TIP3    H137788   7.243   1.452   7.834  1.1638  2.3007 -0.5289
 4531TIP3    H237789   7.247   1.472   7.684 -1.1868  0.2692 -0.9162
 4532TIP3   OH237790   7.227   4.101   8.699  0.0997 -0.8194  0.0471
 4532TIP3    H137791   7.199   4.055   8.778  1.0375 -0.5176  0.5605
 4532TIP3    H237792   7.268   4.034   8.645 -1.5803 -1.2819 -0.7395
 4533TIP3   OH237793   4.098   5.945   8.223  0.4437 -0.2391  0.4227
 4533TIP3    H137794   4.018   5.896   8.203  1.2606 -0.6928 -2.1300
 4533TIP3    H237795   4.072   6.037   8.219 -0.1556 -0.4018  0.5668
 4534TIP3   OH237796   3.665   1.095   7.762 -0.5451  0.0315  0.1718
 4534TIP3    H137797   3.589   1.103   7.821 -0.7207 -0.3194 -0.0021
 4534TIP3    H237798   3.669   1.179   7.717 -0.9699 -0.0253  0.0176
 4535TIP3   OH237799   4.406   6.556   0.564 -0.0772 -0.1656 -0.5517
 4535TIP3    H137800   4.326   6.516   0.533 -0.5289  0.6065 -0.4162
 4535TIP3    H237801   4.428   6.509   0.645 -0.0199 -0.8194 -0.9490
 4536TIP3   OH237802   5.782   1.052   8.846 -0.3789  0.1689  0.2790
 4536TIP3    H137803   5.789   0.997   8.767 -2.0400 -0.9064  0.8217
 4536TIP3    H237804   5.805   0.994   8.918  0.4051  0.9390  0.6624
 4537TIP3   OH237805   0.841   3.883   8.072  0.0127 -0.0328  0.0136
 4537TIP3    H137806   0.923   3.835   8.071  0.9111  1.4445 -0.3788
 4537TIP3    H237807   0.854   3.956   8.011  0.3713  3.2954  3.6399
 4538TIP3   OH237808   4.362   0.520   9.383  0.4030  0.2960  0.0879
 4538TIP3    H137809   4.444   0.568   9.383  0.7155 -0.2057 -0.8388
 4538TIP3    H237810   4.385   0.433   9.349 -0.6751  0.4548 -1.1263
 4539TIP3   OH237811   1.663   1.243   0.716 -0.2745  0.0093  0.5657
 4539TIP3    H137812   1.753   1.241   0.684 -0.0693  0.0494  1.1215
 4539TIP3    H237813   1.615   1.295   0.652 -0.0317 -0.5140 -0.0503
 4540TIP3   OH237814   4.635   5.992   9.604 -0.5504 -0.0129 -0.7320
 4540TIP3    H137815   4.690   6.042   9.664 -1.0998 -0.4021  0.1246
 4540TIP3    H237816   4.660   5.901   9.618  0.2883 -0.0204 -2.1242
 4541TIP3   OH237817   6.789   6.666   1.188  0.5493 -0.1423 -0.5712
 4541TIP3    H137818   6.804   6.730   1.257  0.6283 -2.2018  1.4231
 4541TIP3    H237819   6.700   6.684   1.158  0.8072  1.2942 -0.5081
 4542TIP3   OH237820   3.160   0.419   2.080 -0.1156  0.4723  0.8192
 4542TIP3    H137821   3.147   0.344   2.022  1.2066  1.5285 -0.9501
 4542TIP3    H237822   3.252   0.442   2.070 -0.7525  3.1375  0.2407
 4543TIP3   OH237823   6.730   1.122   2.360 -0.2497  0.5882  0.6151
 4543TIP3    H137824   6.686   1.139   2.444 -2.0982  0.8118 -0.3503
 4543TIP3    H237825   6.710   1.031   2.341  0.0352  0.5858  0.3303
 4544TIP3   OH237826   5.948   5.365   9.008 -0.1808  0.2800  0.2135
 4544TIP3    H137827   5.933   5.424   8.934 -0.0772 -1.2340 -1.0542
 4544TIP3    H237828   6.042   5.369   9.024 -0.1888  0.5210  0.2105
 4545TIP3   OH237829   1.262   3.693   0.494  0.3887  0.1931  0.3705
 4545TIP3    H137830   1.349   3.727   0.473  1.1891 -1.2996  1.0896
 4545TIP3    H237831   1.273   3.598   0.495 -1.4685 -0.0755 -0.3776
 4546TIP3   OH237832   0.234   5.216   8.390 -0.4836  0.1740 -0.4206
 4546TIP3    H137833   0.312   5.235   8.337  0.8212 -0.3371  1.2279
 4546TIP3    H237834   0.236   5.280   8.460 -0.5950 -0.8914  0.5876
 4547TIP3   OH237835   3.871   2.658   7.359 -0.3946  0.1566  0.1742
 4547TIP3    H137836   3.930   2.729   7.332 -0.7527  0.4983  0.2749
 4547TIP3    H237837   3.848   2.614   7.277  1.8327 -1.4799  0.3171
 4548TIP3   OH237838   1.876   4.154   1.509 -1.0380 -0.2593 -0.0317
 4548TIP3    H137839   1.931   4.185   1.581  1.3370 -0.6131 -1.5543
 4548TIP3    H237840   1.871   4.059   1.521  0.6480 -0.5346 -1.0409
 4549TIP3   OH237841   6.464   3.680   1.362 -0.2094 -0.0505 -0.2841
 4549TIP3    H137842   6.543   3.658   1.312  0.0352  0.7344 -0.2481
 4549TIP3    H237843   6.490   3.753   1.418 -1.1237  0.6218 -0.7135
 4550TIP3   OH237844   2.198   5.568   6.959 -0.0382 -0.2337  0.1522
 4550TIP3    H137845   2.242   5.650   6.933 -0.1762  0.0574  0.8061
 4550TIP3    H237846   2.222   5.557   7.051 -0.5745 -0.5738  0.2534
 4551TIP3   OH237847   1.286   3.047   1.674 -0.0038 -0.0460 -0.3719
 4551TIP3    H137848   1.322   2.979   1.618  0.2640  0.5195 -0.8969
 4551TIP3    H237849   1.361   3.085   1.719 -0.0171  0.6297 -0.9032
 4552TIP3   OH237850   4.908   3.443   8.498 -0.3520 -0.2354 -0.3177
 4552TIP3    H137851   4.857   3.362   8.499 -1.4441  0.3864 -1.8563
 4552TIP3    H237852   4.920   3.463   8.405 -0.5269  1.6144  0.0110
 4553TIP3   OH237853   6.099   0.368   1.387 -0.1523 -0.2479 -0.3291
 4553TIP3    H137854   6.096   0.367   1.291 -0.9631  1.8037 -0.3831
 4553TIP3    H237855   6.191   0.383   1.408 -0.2246  1.1003 -0.8806
 4554TIP3   OH237856   6.539   1.207   7.227 -0.6130  0.0856 -0.1173
 4554TIP3    H137857   6.580   1.290   7.204  1.5440 -0.0962  2.6145
 4554TIP3    H237858   6.483   1.228   7.302 -0.1915 -0.8508  0.4826
 4555TIP3   OH237859   1.414   6.622   7.024 -0.0401  0.5364  0.1431
 4555TIP3    H137860   1.412   6.711   6.991  1.2004 -0.4329 -2.9614
 4555TIP3    H237861   1.478   6.624   7.095  0.2745  2.0408 -0.1575
 4556TIP3   OH237862   1.478   1.532   7.511  0.4215  0.1213 -0.3761
 4556TIP3    H137863   1.536   1.497   7.578 -1.0521 -0.4063  0.6727
 4556TIP3    H237864   1.483   1.470   7.439  1.4456  0.2991 -0.4668
 4557TIP3   OH237865   5.444   2.755   0.828 -0.1588 -0.6208 -0.1268
 4557TIP3    H137866   5.412   2.828   0.881 -1.4046  1.6281 -3.5751
 4557TIP3    H237867   5.531   2.737   0.862  0.0403  2.2388  1.1867
 4558TIP3   OH237868   5.604   4.767   8.548  0.2585 -0.1971 -0.3822
 4558TIP3    H137869   5.661   4.793   8.620 -0.2061 -1.4010  0.4616
 4558TIP3    H237870   5.663   4.746   8.476  1.0811 -3.0955  1.0067
 4559TIP3   OH237871   4.679   1.154   2.136  0.3522  0.2015 -0.5095
 4559TIP3    H137872   4.628   1.202   2.072 -0.6891 -0.3342 -0.1044
 4559TIP3    H237873   4.622   1.083   2.165  1.3335 -0.4377 -0.0573
 4560TIP3   OH237874   4.074   5.726   1.492  0.3721  0.2774 -0.2759
 4560TIP3    H137875   4.132   5.722   1.416 -1.9771  1.9467 -2.3185
 4560TIP3    H237876   4.057   5.635   1.514  0.9533 -0.2605 -1.9070
 4561TIP3   OH237877   2.184   3.577   8.333 -0.4267 -0.3743 -0.6239
 4561TIP3    H137878   2.224   3.490   8.337 -0.8231 -0.5436 -0.3090
 4561TIP3    H237879   2.137   3.585   8.416  2.0328  1.2997  0.7578
 4562TIP3   OH237880   5.138   0.763   0.276 -0.2923  0.2302 -0.0657
 4562TIP3    H137881   5.178   0.795   0.195  0.8552  0.1426  0.4427
 4562TIP3    H237882   5.152   0.834   0.339  0.1182 -0.2800  0.4305
 4563TIP3   OH237883   2.040   1.615   9.191 -0.0733 -0.2821  0.0612
 4563TIP3    H137884   2.134   1.602   9.194  0.1731  1.2448 -0.2063
 4563TIP3    H237885   2.021   1.675   9.263 -0.7725 -0.2197 -0.1673
 4564TIP3   OH237886   4.029   2.294   7.669 -0.0692 -0.2224 -0.1801
 4564TIP3    H137887   3.961   2.345   7.624  0.0109  1.0584  1.0946
 4564TIP3    H237888   4.111   2.328   7.634 -0.0316  0.1256  0.2366
 4565TIP3   OH237889   4.936   3.810   8.679  0.0235 -0.1454 -0.1874
 4565TIP3    H137890   4.854   3.792   8.631 -1.0402  1.6611  0.8655
 4565TIP3    H237891   4.944   3.737   8.740 -1.8468  0.5644  0.9863
 4566TIP3   OH237892   1.105   3.065   2.455  0.3348  0.8296 -0.3382
 4566TIP3    H137893   1.100   2.979   2.496  0.0089  2.1238  2.5748
 4566TIP3    H237894   1.193   3.096   2.476  0.2993  1.3780 -0.9777
 4567TIP3   OH237895   7.169   6.847   0.131 -0.9336 -0.4673 -0.2142
 4567TIP3    H137896   7.151   6.823   0.222  0.2448 -0.1606  0.1071
 4567TIP3    H237897   7.152   6.941   0.128  0.3051 -0.2216  0.0309
 4568TIP3   OH237898   3.593   5.069   1.349 -0.2757  0.2675 -0.2475
 4568TIP3    H137899   3.631   5.155   1.332 -3.8170  2.1021  0.1039
 4568TIP3    H237900   3.541   5.051   1.270 -0.5649 -0.9819  0.2084
 4569TIP3   OH237901   3.222   4.985   9.092 -0.0462 -0.3056 -0.1044
 4569TIP3    H137902   3.141   4.935   9.104 -0.2038  0.0164  0.2055
 4569TIP3    H237903   3.201   5.073   9.125 -0.3964  0.5662 -2.4833
 4570TIP3   OH237904   3.500   3.058   0.820 -0.2861  0.3590 -0.0318
 4570TIP3    H137905   3.511   2.971   0.781  1.5842  0.9589 -0.9578
 4570TIP3    H237906   3.414   3.054   0.861 -0.5672 -1.6928 -0.6584
 4571TIP3   OH237907   3.841   7.093   1.923  0.2839  0.5766  0.1361
 4571TIP3    H137908   3.905   7.163   1.910  0.6282  0.5032  1.3332
 4571TIP3    H237909   3.815   7.068   1.835  2.7527 -0.1557 -0.4560
 4572TIP3   OH237910   1.303   4.387   1.170 -0.1254  0.0598  0.4518
 4572TIP3    H137911   1.307   4.305   1.218 -1.4020 -0.1632  0.2159
 4572TIP3    H237912   1.369   4.443   1.212  0.5101 -0.9601  0.8305
 4573TIP3   OH237913   3.023   4.833   1.008  0.0089  0.5939 -0.7504
 4573TIP3    H137914   3.095   4.846   1.069 -0.1538  2.0774 -0.8339
 4573TIP3    H237915   3.009   4.739   1.006 -0.0399  0.5043  1.5898
 4574TIP3   OH237916   5.660   0.306   9.257 -0.7034 -0.2099  0.2486
 4574TIP3    H137917   5.704   0.286   9.340 -1.2470  1.3535  0.9571
 4574TIP3    H237918   5.568   0.318   9.281 -0.6416  1.6926 -0.2843
 4575TIP3   OH237919   5.134   0.392   0.090  0.0850  0.0151  0.0095
 4575TIP3    H137920   5.059   0.380   0.031  0.1811  0.9459 -0.3144
 4575TIP3    H237921   5.099   0.438   0.166  0.2587  0.1528  0.0072
 4576TIP3   OH237922   5.291   6.075   9.471 -0.1748 -0.5841 -0.0367
 4576TIP3    H137923   5.234   6.045   9.400 -1.4833  0.1440  0.6611
 4576TIP3    H237924   5.355   6.131   9.429  0.0041 -1.3824 -0.8402
 4577TIP3   OH237925   1.789   5.873   9.311 -0.5961 -0.6813 -0.4357
 4577TIP3    H137926   1.832   5.953   9.339 -1.0814 -1.2746  2.2422
 4577TIP3    H237927   1.833   5.849   9.229 -0.0451  1.9386 -0.9758
 4578TIP3   OH237928   5.719   0.789   0.500  0.0475  0.5247 -0.2119
 4578TIP3    H137929   5.633   0.748   0.513  0.4239 -0.3347 -0.3746
 4578TIP3    H237930   5.701   0.863   0.442 -0.5648  0.2772 -0.3501
 4579TIP3   OH237931   0.183   5.895   8.634  0.0558 -0.0733  0.3283
 4579TIP3    H137932   0.190   5.945   8.553  2.2438 -0.6853  0.0784
 4579TIP3    H237933   0.143   5.812   8.607 -0.8470  0.3904  0.2119
 4580TIP3   OH237934   3.297   0.278   2.300 -0.5377 -0.1875  0.2238
 4580TIP3    H137935   3.249   0.224   2.236  1.3388 -0.1013 -1.3554
 4580TIP3    H237936   3.301   0.365   2.259  2.0016 -0.4938 -0.3440
 4581TIP3   OH237937   0.474   6.554   9.148  0.3041  0.4477  0.2036
 4581TIP3    H137938   0.487   6.649   9.157  3.3528  0.1213  0.0078
 4581TIP3    H237939   0.559   6.516   9.165 -0.5486 -2.2243 -0.9606
 4582TIP3   OH237940   7.081   6.001   9.587 -0.1774 -0.3834  0.1121
 4582TIP3    H137941   7.011   6.060   9.561 -1.0202 -1.1144  0.6391
 4582TIP3    H237942   7.082   5.933   9.519  1.9345  1.0823 -1.4349
 4583TIP3   OH237943   2.245   4.011   8.036  0.4493 -0.1934  0.6775
 4583TIP3    H137944   2.277   4.092   7.996  2.1737 -1.4916 -0.7199
 4583TIP3    H237945   2.170   3.986   7.982  0.3224  0.1000  0.7126
 4584TIP3   OH237946   4.631   5.241   1.393 -0.2431  0.3444  0.4287
 4584TIP3    H137947   4.727   5.234   1.400 -0.0632 -2.2173 -2.1867
 4584TIP3    H237948   4.598   5.182   1.461  0.1905 -0.6720 -0.2076
 4585TIP3   OH237949   7.098   1.374   1.584  0.0414  0.1306  0.0367
 4585TIP3    H137950   7.062   1.459   1.559 -0.0083  0.6381  1.7240
 4585TIP3    H237951   7.174   1.395   1.639 -0.0104 -0.8998  0.5275
 4586TIP3   OH237952   7.316   0.961   1.124  0.3896 -0.1258  0.0455
 4586TIP3    H137953   7.307   0.909   1.044  1.4033 -1.3090  0.6545
 4586TIP3    H237954   7.382   0.914   1.175 -0.1942  0.6377  1.5559
 4587TIP3   OH237955   4.287   1.285   8.146  0.1996 -0.4824 -0.1726
 4587TIP3    H137956   4.341   1.206   8.138  0.3790 -0.5310  1.3190
 4587TIP3    H237957   4.204   1.254   8.183 -0.2537 -0.1637 -0.8941
 4588TIP3   OH237958   5.356   0.848   8.631 -0.4355 -0.0421  0.5158
 4588TIP3    H137959   5.343   0.882   8.719  3.0137 -0.6268  1.3810
 4588TIP3    H237960   5.382   0.757   8.643  0.4183 -0.0525 -1.0600
 4589TIP3   OH237961   3.164   4.819   8.847 -0.2923 -0.1262 -0.0294
 4589TIP3    H137962   3.108   4.886   8.808 -1.8863  0.2487  2.6441
 4589TIP3    H237963   3.126   4.804   8.934  2.6160 -1.3169  1.1634
 4590TIP3   OH237964   3.575   5.808   0.612  0.1641 -0.1879 -0.4878
 4590TIP3    H137965   3.497   5.835   0.563 -0.0415 -1.5242 -0.9458
 4590TIP3    H237966   3.603   5.887   0.658 -0.5919  0.6999 -1.4886
 4591TIP3   OH237967   2.012   2.572   1.540 -0.1050  0.2837  0.7766
 4591TIP3    H137968   2.103   2.577   1.571 -0.6862 -0.1326  2.7033
 4591TIP3    H237969   1.976   2.495   1.585 -1.1107 -0.2329 -0.8455
 4592TIP3   OH237970   7.288   2.035   7.901 -0.2272 -0.1041 -0.1039
 4592TIP3    H137971   7.374   2.076   7.894 -0.5699  0.5540 -0.4784
 4592TIP3    H237972   7.227   2.101   7.871 -0.8532 -0.6426 -0.0389
 4593TIP3   OH237973   0.463   2.422   1.258  0.5446  0.0862 -0.3592
 4593TIP3    H137974   0.518   2.491   1.222  0.0274  0.0508 -1.2381
 4593TIP3    H237975   0.374   2.455   1.250  0.3109 -0.5690 -0.5216
 4594TIP3   OH237976   0.526   4.610   7.087  0.1119  0.1198  0.1350
 4594TIP3    H137977   0.567   4.648   7.010 -0.2921 -1.1777 -0.7470
 4594TIP3    H237978   0.576   4.645   7.161  2.7695 -1.2930 -0.8644
 4595TIP3   OH237979   2.190   1.507   0.120 -0.0535 -0.3651  0.1812
 4595TIP3    H137980   2.105   1.484   0.157  0.0168 -2.0839 -0.6213
 4595TIP3    H237981   2.240   1.425   0.120  1.2959  0.4121 -0.1731
 4596TIP3   OH237982   2.748   7.407   0.945 -0.1397 -0.4344  0.2583
 4596TIP3    H137983   2.782   7.429   1.032 -1.6273 -0.0488  0.7707
 4596TIP3    H237984   2.723   7.492   0.907  0.0413 -0.6488 -0.3607
 4597TIP3   OH237985   6.241   0.990   8.510  0.5230 -0.4113 -0.0386
 4597TIP3    H137986   6.180   0.943   8.453  0.3915  0.5470 -0.7239
 4597TIP3    H237987   6.285   1.052   8.451 -1.8905  2.9071  1.3572
 4598TIP3   OH237988   5.929   2.632   0.623  0.4101 -0.6192 -0.2277
 4598TIP3    H137989   5.843   2.666   0.597 -0.1539 -0.7862  1.2865
 4598TIP3    H237990   5.933   2.545   0.583 -1.1769 -1.5881  1.5221
 4599TIP3   OH237991   1.436   4.861   8.050  0.2033  0.0624  0.4737
 4599TIP3    H137992   1.518   4.815   8.067  1.0982  1.7425  0.9275
 4599TIP3    H237993   1.460   4.933   7.992 -0.9211  0.6664  0.7219
 4600TIP3   OH237994   4.237   5.013   6.846 -0.2003 -0.6961  0.3514
 4600TIP3    H137995   4.173   5.026   6.915 -0.4891 -1.0441  0.1499
 4600TIP3    H237996   4.186   5.011   6.765  0.3521  2.1002 -0.1444
 4601TIP3   OH237997   0.127   0.790   7.263 -0.4060 -0.4258 -0.3881
 4601TIP3    H137998   0.045   0.747   7.289 -0.6917 -0.1264 -0.7752
 4601TIP3    H237999   0.166   0.820   7.345 -0.5897 -0.7387 -0.1835
 4602TIP3   OH238000   3.592   1.050   0.013  0.0639  0.5902  0.1489
 4602TIP3    H138001   3.647   0.971   0.005 -0.6470  0.1058 -0.0315
 4602TIP3    H238002   3.618   1.089   0.097 -0.0907 -0.2345  0.5876
 4603TIP3   OH238003   0.528   4.108   1.672  0.6154 -0.6700  0.1543
 4603TIP3    H138004   0.468   4.173   1.708 -0.1346 -0.5730 -1.1855
 4603TIP3    H238005   0.566   4.064   1.748 -1.3425 -0.9014  1.0482
 4604TIP3   OH238006   1.751   7.395   1.968 -0.5343 -0.3220  0.0927
 4604TIP3    H138007   1.808   7.395   1.892 -2.0331  0.9735 -1.0873
 4604TIP3    H238008   1.789   7.460   2.027  0.1785 -0.7522  0.1221
 4605TIP3   OH238009   7.206   4.294   1.496 -0.0335  0.0207 -0.0778
 4605TIP3    H138010   7.114   4.316   1.504 -0.5268 -2.0978  0.6437
 4605TIP3    H238011   7.249   4.344   1.565 -0.7635  0.3116  0.1731
 4606TIP3   OH238012   6.885   0.829   7.614  0.8360  0.6260 -0.3031
 4606TIP3    H138013   6.879   0.866   7.702  2.9863  0.2136  0.0801
 4606TIP3    H238014   6.857   0.738   7.624  1.2223  0.5350  0.0153
 4607TIP3   OH238015   5.356   4.836   2.824  0.6796 -0.2260  0.3912
 4607TIP3    H138016   5.421   4.815   2.757  0.6393  2.1467 -0.4598
 4607TIP3    H238017   5.369   4.929   2.843 -1.7869  0.0801  0.9349
 4608TIP3   OH238018   2.525   5.791   0.896 -0.4519  0.2648  0.2662
 4608TIP3    H138019   2.561   5.730   0.960 -2.7629 -1.7645 -0.1714
 4608TIP3    H238020   2.493   5.865   0.948  0.6679  0.2267  1.0430
 4609TIP3   OH238021   4.810   3.317   7.200  0.2196 -0.7598 -0.3750
 4609TIP3    H138022   4.903   3.331   7.218  0.5351  0.1371 -2.4062
 4609TIP3    H238023   4.809   3.245   7.137 -0.2443  0.6451 -2.0567
 4610TIP3   OH238024   2.609   2.891   8.713  0.6030  0.8287  0.4998
 4610TIP3    H138025   2.697   2.903   8.748  0.4824 -1.2962  1.6731
 4610TIP3    H238026   2.622   2.874   8.619  1.4386  0.4002  0.6942
 4611TIP3   OH238027   4.817   3.318   1.339  0.2310  0.2542 -0.4436
 4611TIP3    H138028   4.869   3.240   1.322  0.6637  0.2933  0.6121
 4611TIP3    H238029   4.862   3.387   1.290  1.4969  0.3877  0.8343
 4612TIP3   OH238030   3.310   2.286   0.402 -0.1249  0.3352 -0.1565
 4612TIP3    H138031   3.389   2.317   0.358 -1.0414  1.3370 -1.1516
 4612TIP3    H238032   3.276   2.218   0.344  0.2740 -0.4772  0.5388
 4613TIP3   OH238033   3.925   5.762   7.692  0.2207  0.0851 -0.3258
 4613TIP3    H138034   3.884   5.846   7.710  0.2854  0.4344 -1.7317
 4613TIP3    H238035   3.984   5.748   7.767 -0.6691  0.7025  0.5142
 4614TIP3   OH238036   1.673   3.345   1.625  0.0747 -0.0207 -0.7810
 4614TIP3    H138037   1.631   3.263   1.596  1.4475 -1.3740  0.8443
 4614TIP3    H238038   1.601   3.407   1.634 -1.0005 -0.9944 -2.1441
 4615TIP3   OH238039   2.243   1.894   8.541  0.1185  0.1403  0.0889
 4615TIP3    H138040   2.153   1.875   8.514  0.1976  0.3545 -0.3327
 4615TIP3    H238041   2.286   1.808   8.541  0.8438  0.3741 -3.1558
 4616TIP3   OH238042   1.683   5.695   0.333  0.1480  0.0390  0.2178
 4616TIP3    H138043   1.709   5.719   0.422 -0.1546 -0.1137  0.3475
 4616TIP3    H238044   1.723   5.609   0.319  0.1392  0.0337  0.2271
 4617TIP3   OH238045   4.071   5.258   0.094  0.3485  0.2677 -0.2022
 4617TIP3    H138046   4.040   5.169   0.109 -3.1805  1.2617 -0.5418
 4617TIP3    H238047   4.059   5.302   0.178  0.5055  0.8035 -0.4561
 4618TIP3   OH238048   4.258   7.237   1.714  0.0465 -0.0532 -0.1550
 4618TIP3    H138049   4.314   7.213   1.788 -2.3884 -1.1027  1.4610
 4618TIP3    H238050   4.258   7.159   1.658  0.7701  0.2351 -0.5768
 4619TIP3   OH238051   4.576   4.738   0.700  0.3862  0.0436 -0.7174
 4619TIP3    H138052   4.566   4.737   0.605 -0.5073  1.9131 -0.6886
 4619TIP3    H238053   4.605   4.827   0.720  1.3744 -0.5585  0.7082
 4620TIP3   OH238054   3.980   0.392   6.860  0.0363 -0.2960  0.3265
 4620TIP3    H138055   3.927   0.471   6.852  0.3133 -0.1844 -0.4866
 4620TIP3    H238056   3.991   0.361   6.771 -1.1217 -1.9784  0.7163
 4621TIP3   OH238057   3.964   6.164   2.058  0.2682  0.7493  0.9372
 4621TIP3    H138058   3.941   6.217   1.982 -0.6383  1.4835  1.7006
 4621TIP3    H238059   3.960   6.225   2.132  0.8424 -0.0112  1.6208
 4622TIP3   OH238060   4.279   1.974   9.604 -0.5034  0.2487  0.0328
 4622TIP3    H138061   4.261   2.010   9.518  0.4466 -0.9590 -0.7099
 4622TIP3    H238062   4.281   2.050   9.662  0.4112  1.2662 -1.2749
 4623TIP3   OH238063   3.749   5.879   7.296 -0.0868  0.3324  0.1948
 4623TIP3    H138064   3.713   5.917   7.376 -0.5127  0.2090  0.0663
 4623TIP3    H238065   3.698   5.918   7.225  0.5407  0.7346 -0.0487
 4624TIP3   OH238066   6.995   2.250   7.993  0.2651  0.4392 -0.2526
 4624TIP3    H138067   7.035   2.306   8.059  1.1900 -0.5682  0.0619
 4624TIP3    H238068   6.903   2.276   7.992  0.5929  1.6712  0.1696
 4625TIP3   OH238069   3.809   4.009   8.156  0.3366 -0.4214  0.2861
 4625TIP3    H138070   3.891   4.059   8.163  0.9720 -1.5668  1.3423
 4625TIP3    H238071   3.832   3.922   8.187 -0.7599 -1.3786 -1.4610
 4626TIP3   OH238072   3.017   7.420   8.361 -0.0747  0.1902 -0.4077
 4626TIP3    H138073   3.066   7.408   8.442  0.6367  0.8992 -0.7245
 4626TIP3    H238074   2.967   7.500   8.375 -0.8908 -0.3278 -0.2286
 4627TIP3   OH238075   3.500   0.183   8.427  0.5753  0.2101 -0.1475
 4627TIP3    H138076   3.576   0.139   8.389  0.2802 -1.2701  0.8782
 4627TIP3    H238077   3.511   0.174   8.521  0.2710  2.0226  0.1043
 4628TIP3   OH238078   4.741   7.063   8.687  0.1744 -0.4508 -0.1912
 4628TIP3    H138079   4.821   7.012   8.699 -1.7042 -3.5868  0.0394
 4628TIP3    H238080   4.744   7.093   8.596  0.7272 -2.2877 -0.8264
 4629TIP3   OH238081   5.132   0.556   9.186  0.2744 -0.4114 -0.0925
 4629TIP3    H138082   5.137   0.577   9.280 -0.6738  0.1315 -0.1438
 4629TIP3    H238083   5.170   0.632   9.142 -0.5002 -0.0578 -0.1780
 4630TIP3   OH238084   5.864   0.311   9.454  0.3823 -0.0709 -0.2060
 4630TIP3    H138085   5.907   0.276   9.532 -1.6141  0.3558  1.1443
 4630TIP3    H238086   5.892   0.403   9.450  0.8858 -0.2247 -0.3085
 4631TIP3   OH238087   1.808   5.436   1.151  0.2568 -0.5535 -0.1715
 4631TIP3    H138088   1.892   5.456   1.191  0.4827 -1.1403 -0.3400
 4631TIP3    H238089   1.763   5.381   1.216  0.7669 -1.8041 -0.8522
 4632TIP3   OH238090   2.337   4.236   2.437  0.3555  0.4344  0.7187
 4632TIP3    H138091   2.253   4.192   2.426  0.2382  0.9521 -0.6753
 4632TIP3    H238092   2.335   4.307   2.372  0.2482  2.9481  3.2471
 4633TIP3   OH238093   2.787   1.377   8.473 -0.5073 -0.0194  1.1795
 4633TIP3    H138094   2.882   1.385   8.472 -0.5106  0.8438 -1.4914
 4633TIP3    H238095   2.769   1.305   8.411 -1.6023  0.7513  0.5718
 4634TIP3   OH238096   3.773   6.477   0.883  0.2161  0.1328  0.3635
 4634TIP3    H138097   3.850   6.430   0.849 -1.6538 -1.0189 -2.6658
 4634TIP3    H238098   3.794   6.569   0.871  0.8969 -0.1824 -1.1205
 4635TIP3   OH238099   3.870   0.275   2.527  0.1800  0.5032 -0.7141
 4635TIP3    H138100   3.784   0.315   2.541  0.1627 -0.1680  1.5359
 4635TIP3    H238101   3.921   0.343   2.482 -1.4356  0.9733 -1.9363
 4636TIP3   OH238102   3.849   2.482   1.223 -0.3234 -0.3275 -0.8783
 4636TIP3    H138103   3.777   2.420   1.241  0.7920 -1.2894  0.5052
 4636TIP3    H238104   3.835   2.509   1.133 -2.2932 -0.6674 -0.7227
 4637TIP3   OH238105   3.302   7.016   8.126  0.0372 -0.1323  0.0213
 4637TIP3    H138106   3.340   6.985   8.208  0.5053 -1.4461 -0.6668
 4637TIP3    H238107   3.356   7.091   8.101  0.2717 -0.1031  0.6051
 4638TIP3   OH238108   6.063   7.392   0.310 -0.5367 -0.4222 -0.0140
 4638TIP3    H138109   6.145   7.347   0.331  0.3054  0.1541 -1.8719
 4638TIP3    H238110   5.998   7.322   0.302  0.5227 -1.2480 -1.8418
 4639TIP3   OH238111   1.638   0.809   1.304  0.1871  0.4441  0.4793
 4639TIP3    H138112   1.592   0.729   1.279 -0.5049  0.3406  1.9825
 4639TIP3    H238113   1.569   0.875   1.310  0.5305  0.7789  0.7749
 4640TIP3   OH238114   6.215   2.325   0.794 -1.0171  0.2195 -0.2336
 4640TIP3    H138115   6.253   2.247   0.755  0.4901  0.9366 -0.2697
 4640TIP3    H238116   6.139   2.293   0.844 -2.2307 -0.8797 -2.6142
 4641TIP3   OH238117   5.997   6.839   8.822 -0.0558 -0.3807  0.1437
 4641TIP3    H138118   5.920   6.891   8.799 -1.4828 -2.4982 -0.1560
 4641TIP3    H238119   5.998   6.837   8.917  0.0307  0.2055  0.1572
 4642TIP3   OH238120   3.916   5.778   8.588  0.7529 -0.1945  0.0562
 4642TIP3    H138121   3.897   5.847   8.651 -1.7380 -0.3553 -0.4249
 4642TIP3    H238122   3.881   5.811   8.505  2.5375 -0.6558 -0.9516
 4643TIP3   OH238123   5.755   6.803   0.878 -0.5635  0.5772 -0.1725
 4643TIP3    H138124   5.817   6.753   0.824 -0.9071 -0.5130  0.3942
 4643TIP3    H238125   5.670   6.762   0.861 -0.9817  1.4677 -0.2540
 4644TIP3   OH238126   5.651   1.583   7.701 -0.3960 -0.0049  0.4267
 4644TIP3    H138127   5.684   1.536   7.778  0.5147 -1.2316 -0.6704
 4644TIP3    H238128   5.564   1.546   7.686  0.1895 -1.1614 -0.2409
 4645TIP3   OH238129   4.754   7.096   2.317 -0.1079 -0.0749  0.1466
 4645TIP3    H138130   4.793   7.126   2.235  0.5083 -3.6976 -1.0664
 4645TIP3    H238131   4.811   7.131   2.386  0.1025  1.9537 -0.9890
 4646TIP3   OH238132   1.143   6.075   0.268  0.6336  0.1260 -0.1998
 4646TIP3    H138133   1.137   6.049   0.176 -2.2921 -1.8213  0.3827
 4646TIP3    H238134   1.181   5.998   0.312  0.1382  0.2334  0.4368
 4647TIP3   OH238135   6.230   1.048   6.288 -0.2482 -0.1473  0.4379
 4647TIP3    H138136   6.325   1.055   6.274 -0.6482  1.0346 -2.2552
 4647TIP3    H238137   6.205   1.132   6.325 -0.3144 -0.3008  0.7440
 4648TIP3   OH238138   1.607   0.537   1.298 -0.3706 -0.2121  0.1141
 4648TIP3    H138139   1.552   0.462   1.276  0.4556 -0.7721 -0.0812
 4648TIP3    H238140   1.586   0.557   1.389 -0.5409 -0.7305  0.1891
 4649TIP3   OH238141   6.642   2.097   1.935  0.2470 -0.5086 -0.5112
 4649TIP3    H138142   6.598   2.181   1.940 -1.0766 -1.2221  0.6239
 4649TIP3    H238143   6.728   2.116   1.899  0.6142  1.5759  1.3081
 4650TIP3   OH238144   0.002   0.630   6.766  0.0899 -0.6196 -0.2444
 4650TIP3    H138145  -0.093   0.637   6.776  0.2690 -0.3917  1.9518
 4650TIP3    H238146   0.035   0.633   6.856  2.3116  1.0841 -1.0334
 4651TIP3   OH238147   3.995   7.089   7.998 -0.6099  0.0375  0.1693
 4651TIP3    H138148   4.056   7.085   8.071  0.7060  0.4050 -0.8791
 4651TIP3    H238149   3.972   7.182   7.991  0.4895  0.2620 -0.8228
 4652TIP3   OH238150   0.121   7.411   2.934  0.3464  0.0343 -0.1862
 4652TIP3    H138151   0.067   7.484   2.905 -0.3746 -0.5856 -0.4236
 4652TIP3    H238152   0.208   7.450   2.949 -0.0691  0.9663 -0.1319
 4653TIP3   OH238153   1.587   6.028   9.213 -0.4312 -0.1885  0.1266
 4653TIP3    H138154   1.526   5.991   9.149 -0.2170 -2.1141  0.9642
 4653TIP3    H238155   1.643   5.955   9.238 -1.5340 -0.0065  3.7116
 4654TIP3   OH238156   1.816   1.751   1.897 -0.7518  0.0554  0.2564
 4654TIP3    H138157   1.813   1.843   1.869 -3.1044 -0.3495 -1.0857
 4654TIP3    H238158   1.887   1.713   1.844 -0.0131  0.9723  0.5470
 4655TIP3   OH238159   4.357   1.740   2.283 -0.1733  0.4789 -0.5665
 4655TIP3    H138160   4.354   1.823   2.234  1.6221  1.7917  1.3329
 4655TIP3    H238161   4.354   1.767   2.375  1.9948 -1.4033  0.1703
 4656TIP3   OH238162   7.140   6.369   8.319 -0.2975  0.1478 -0.1415
 4656TIP3    H138163   7.049   6.375   8.288 -1.0560  1.5438  2.1116
 4656TIP3    H238164   7.188   6.431   8.264 -1.1849  1.0813  0.1017
 4657TIP3   OH238165   2.454   6.185   7.510 -0.2295 -0.6201 -0.5175
 4657TIP3    H138166   2.515   6.209   7.441  0.2589 -0.1914  0.0592
 4657TIP3    H238167   2.506   6.133   7.571 -0.9812 -2.2234 -1.1532
 4658TIP3   OH238168   7.137   0.497   1.285  0.1215 -0.1478 -0.0425
 4658TIP3    H138169   7.106   0.585   1.263 -1.8078 -1.0746 -1.2449
 4658TIP3    H238170   7.066   0.439   1.258  1.5369 -2.1328  0.3072
 4659TIP3   OH238171   3.762   1.808   9.469  0.0190  0.4185 -0.1276
 4659TIP3    H138172   3.785   1.900   9.462  0.6476  0.2806  0.0831
 4659TIP3    H238173   3.840   1.761   9.438 -0.3034 -0.0420 -0.2588
 4660TIP3   OH238174   5.614   3.183   9.510 -0.4298  0.2195  0.5360
 4660TIP3    H138175   5.579   3.266   9.543 -0.9018  0.5207 -0.6896
 4660TIP3    H238176   5.640   3.135   9.589  1.1275  2.0867  1.2258
 4661TIP3   OH238177   4.015   7.210   8.606 -0.0831  0.0886 -0.1349
 4661TIP3    H138178   3.979   7.153   8.538  1.3170 -0.3766 -0.5334
 4661TIP3    H238179   4.029   7.152   8.681 -0.8718  0.4313  0.2871
 4662TIP3   OH238180   1.569   3.871   7.539  0.1016  0.8738  0.2346
 4662TIP3    H138181   1.488   3.838   7.499 -0.1016  1.3097  0.2832
 4662TIP3    H238182   1.547   3.888   7.630  0.6728 -0.4994  0.6670
 4663TIP3   OH238183   5.058   6.297   1.008  0.0140  0.7147 -0.3919
 4663TIP3    H138184   5.064   6.350   0.928 -0.2324  0.0521 -0.8551
 4663TIP3    H238185   4.965   6.276   1.015  0.2949 -0.8467 -1.0090
 4664TIP3   OH238186   0.765   2.389   1.043  0.4029  0.5518 -0.2777
 4664TIP3    H138187   0.804   2.342   1.116 -0.5971  1.1485  0.6633
 4664TIP3    H238188   0.761   2.480   1.072 -0.6888  0.6772 -0.7761
 4665TIP3   OH238189   4.741   5.264   2.795  0.0922  0.3570 -0.1712
 4665TIP3    H138190   4.828   5.232   2.822 -0.4126 -0.0252  1.0732
 4665TIP3    H238191   4.759   5.344   2.747  1.3680 -1.3397 -2.7879
 4666TIP3   OH238192   6.487   5.256   8.130 -0.1148  0.3049 -0.5149
 4666TIP3    H138193   6.508   5.323   8.066  1.1736  0.1717 -0.2649
 4666TIP3    H238194   6.481   5.303   8.213 -2.5013  0.5923 -0.7864
 4667TIP3   OH238195   4.723   3.148   2.104 -0.2081 -0.7392 -0.1760
 4667TIP3    H138196   4.695   3.091   2.033  0.3653 -0.1490 -0.8867
 4667TIP3    H238197   4.731   3.235   2.064  1.3100 -0.6279  0.3043
 4668TIP3   OH238198   3.219   5.592   0.506  0.0503 -0.1913 -0.0058
 4668TIP3    H138199   3.210   5.498   0.518  0.0273 -0.3343 -1.1249
 4668TIP3    H238200   3.279   5.602   0.432 -0.3964  0.6680 -0.2663
 4669TIP3   OH238201   1.141   5.172   7.099 -0.0538  0.4723  0.1534
 4669TIP3    H138202   1.077   5.234   7.065  0.2130  0.9404  0.4919
 4669TIP3    H238203   1.152   5.107   7.029 -1.7307 -0.2633  0.5358
 4670TIP3   OH238204   1.570   1.163   8.742  0.0911 -0.2583 -0.3739
 4670TIP3    H138205   1.563   1.068   8.738  0.5855 -0.3669  1.0518
 4670TIP3    H238206   1.489   1.191   8.785  1.1426 -0.2825  1.7303
 4671TIP3   OH238207   4.880   4.632   1.259  0.2449 -0.2457 -0.1053
 4671TIP3    H138208   4.965   4.636   1.302  1.2548 -1.9414 -1.7599
 4671TIP3    H238209   4.900   4.641   1.165 -1.4837  0.0773 -0.4772
 4672TIP3   OH238210   4.413   1.657   1.906  0.5738 -0.4057  0.8031
 4672TIP3    H138211   4.442   1.641   1.816 -0.0821 -2.5057  0.9134
 4672TIP3    H238212   4.375   1.745   1.904  2.9267  0.6896 -0.3282
 4673TIP3   OH238213   5.464   4.898   0.215  0.3982  0.1021  0.0888
 4673TIP3    H138214   5.382   4.858   0.244 -0.3931  0.9629 -0.8798
 4673TIP3    H238215   5.515   4.910   0.295 -1.1246  1.1298  0.9600
 4674TIP3   OH238216   6.942   6.667   7.155 -0.2924 -0.2770 -0.3525
 4674TIP3    H138217   6.996   6.703   7.225 -0.3484  0.3492 -0.6239
 4674TIP3    H238218   7.002   6.655   7.081 -0.0681 -1.6520  0.0222
 4675TIP3   OH238219   5.609   6.314   8.994 -0.0575 -0.4847  0.2758
 4675TIP3    H138220   5.604   6.397   9.041  1.5341 -2.2443  4.0031
 4675TIP3    H238221   5.695   6.316   8.951  0.2518 -0.4048  0.8867
 4676TIP3   OH238222   5.535   0.928   0.856  0.4117  0.4511  0.2098
 4676TIP3    H138223   5.514   0.848   0.809 -0.8477  1.6581 -1.4023
 4676TIP3    H238224   5.586   0.980   0.794 -0.6425  1.7673  0.3961
 4677TIP3   OH238225   3.889   5.026   8.933 -0.0422 -0.5488 -0.0400
 4677TIP3    H138226   3.947   5.101   8.941  0.0897 -0.5464 -0.8995
 4677TIP3    H238227   3.808   5.061   8.895 -1.3696 -0.2025  2.8483
 4678TIP3   OH238228   1.808   0.910   8.863 -0.0827 -0.0507  0.6152
 4678TIP3    H138229   1.892   0.923   8.818  1.2226 -1.0401  2.6124
 4678TIP3    H238230   1.761   0.848   8.807  0.2586  0.9319 -0.8152
 4679TIP3   OH238231   2.133   4.060   8.978 -0.2730 -0.1838  0.0840
 4679TIP3    H138232   2.168   4.045   9.066 -0.0480 -0.4892 -0.0528
 4679TIP3    H238233   2.042   4.030   8.983  0.1851 -1.7219 -0.2001
 4680TIP3   OH238234   1.445   1.413   8.325 -0.0326 -0.1175 -0.0867
 4680TIP3    H138235   1.474   1.459   8.246 -0.0709  0.2468  0.1120
 4680TIP3    H238236   1.372   1.464   8.358  1.9450  1.6216  1.9821
 4681TIP3   OH238237   5.747   5.521   1.728 -0.2098 -0.0196  0.2197
 4681TIP3    H138238   5.735   5.468   1.649  0.2143  2.2268 -1.4474
 4681TIP3    H238239   5.721   5.610   1.702 -2.8803  0.3515  3.4363
 4682TIP3   OH238240   5.222   0.949   9.399 -0.1722  0.3385 -0.1138
 4682TIP3    H138241   5.269   1.006   9.339 -0.4179  0.0728 -0.5577
 4682TIP3    H238242   5.140   0.995   9.417  0.0329  0.5612  0.2583
 4683TIP3   OH238243   6.932   5.514   8.290  0.1297  0.0610  0.3803
 4683TIP3    H138244   6.910   5.603   8.317 -0.3702 -0.1539  0.7012
 4683TIP3    H238245   6.866   5.493   8.224 -0.6051 -0.5583  1.2860
 4684TIP3   OH238246   5.353   1.521   7.099  0.3778  0.8203  1.0427
 4684TIP3    H138247   5.314   1.482   7.177  0.7758 -1.6597  0.0794
 4684TIP3    H238248   5.395   1.448   7.053 -0.5834  2.0085 -1.9550
 4685TIP3   OH238249   1.234   1.459   1.251  0.1058 -0.1276 -0.5045
 4685TIP3    H138250   1.270   1.413   1.327  1.8781 -0.1434 -1.3091
 4685TIP3    H238251   1.172   1.398   1.213  1.1521 -1.1918 -0.5598
 4686TIP3   OH238252   1.389   3.566   8.533 -0.0450  0.6650  0.2249
 4686TIP3    H138253   1.325   3.502   8.503  0.6032 -0.5192  1.2792
 4686TIP3    H238254   1.375   3.642   8.476  0.5028 -1.0800 -2.4503
 4687TIP3   OH238255   0.061   0.304   1.638  0.2689  0.0693  0.0135
 4687TIP3    H138256   0.111   0.257   1.705  1.9019 -1.0246 -1.8553
 4687TIP3    H238257   0.122   0.370   1.605 -0.7250  1.0047  0.0172
 4688TIP3   OH238258   1.210   2.016   7.959 -0.1106 -0.3824 -0.6688
 4688TIP3    H138259   1.182   2.105   7.939 -0.0999 -0.2263 -0.0281
 4688TIP3    H238260   1.282   2.027   8.021  1.0233 -0.7941 -1.8545
 4689TIP3   OH238261   5.647   5.340   8.568 -0.4583  0.0413  0.3754
 4689TIP3    H138262   5.736   5.348   8.534 -1.1120  2.3672 -1.0374
 4689TIP3    H238263   5.640   5.410   8.633 -1.2993  0.0309  0.3011
 4690TIP3   OH238264   2.091   0.987   7.356  0.2280  0.4696  0.3714
 4690TIP3    H138265   2.059   0.965   7.268  0.3852 -1.8929  0.8579
 4690TIP3    H238266   2.174   0.939   7.364 -0.8560 -1.1652  2.5835
 4691TIP3   OH238267   1.829   1.168   1.143  0.6723 -0.0506  0.3742
 4691TIP3    H138268   1.843   1.207   1.056  0.1288  0.5676  0.5522
 4691TIP3    H238269   1.759   1.105   1.130  0.2449  0.4029  0.4593
 4692TIP3   OH238270   1.470   6.356   1.064 -0.6930 -0.9689 -0.1733
 4692TIP3    H138271   1.551   6.382   1.109 -0.2784 -0.1910 -1.3294
 4692TIP3    H238272   1.460   6.420   0.993  0.5151 -3.9893 -3.3623
 4693TIP3   OH238273   7.282   2.911   1.042  0.2475  0.0407  0.4189
 4693TIP3    H138274   7.376   2.928   1.040  0.5459 -1.4769 -0.7109
 4693TIP3    H238275   7.243   2.981   0.990  0.9708 -0.3883 -0.7208
 4694TIP3   OH238276   0.667   6.911   8.313 -0.4509 -0.4443 -0.1400
 4694TIP3    H138277   0.714   6.952   8.386 -1.6366  2.4860 -0.8914
 4694TIP3    H238278   0.735   6.887   8.251  0.2735  2.1141 -0.4414
 4695TIP3   OH238279   5.039   4.057   6.655  0.1353  0.0630 -0.1413
 4695TIP3    H138280   5.084   4.142   6.655 -0.0689  0.1769 -0.6022
 4695TIP3    H238281   5.104   3.996   6.622 -0.2073  0.3290 -1.3812
 4696TIP3   OH238282   0.810   4.062   6.468  0.4046 -0.0135  0.3766
 4696TIP3    H138283   0.841   4.135   6.521 -0.7592  0.6634  0.1495
 4696TIP3    H238284   0.741   4.022   6.520  0.1268 -0.1310 -0.0769
 4697TIP3   OH238285   4.567   5.530   9.247  0.1946 -0.1125  0.3776
 4697TIP3    H138286   4.527   5.576   9.173 -0.9389 -3.4969 -1.3207
 4697TIP3    H238287   4.494   5.496   9.297  0.9816  0.7991  2.2156
 4698TIP3   OH238288   5.786   5.051   2.641 -0.2212 -0.6390 -0.1104
 4698TIP3    H138289   5.801   5.129   2.694  1.4925 -0.9730 -0.0580
 4698TIP3    H238290   5.853   5.054   2.573 -1.4255 -1.0259 -1.3732
 4699TIP3   OH238291   1.770   6.621   8.744 -0.7457  0.0938  0.0122
 4699TIP3    H138292   1.700   6.673   8.704  0.3976  3.1674  1.6408
 4699TIP3    H238293   1.810   6.680   8.808  0.9490 -2.7719  1.8289
 4700TIP3   OH238294   2.495   6.234   7.080 -0.5300  0.1242  0.2643
 4700TIP3    H138295   2.532   6.176   7.014 -0.6115 -0.0164  0.3403
 4700TIP3    H238296   2.401   6.221   7.074 -0.4792 -1.1562  1.5264
 4701TIP3   OH238297   2.977   5.619   9.515  0.4456 -0.0469  0.2546
 4701TIP3    H138298   2.982   5.701   9.466  2.3471 -1.4139 -2.0075
 4701TIP3    H238299   2.924   5.562   9.460 -1.0122 -0.3773  1.8920
 4702TIP3   OH238300   4.825   5.574   9.381  0.5283  0.2005  0.1755
 4702TIP3    H138301   4.763   5.552   9.451  0.0119  0.3004 -0.2449
 4702TIP3    H238302   4.777   5.553   9.301  1.0380  0.2994 -0.1515
 4703TIP3   OH238303   2.150   5.579   7.453  0.5093  0.1642 -0.0063
 4703TIP3    H138304   2.162   5.544   7.541  0.6708  1.0341  0.3183
 4703TIP3    H238305   2.127   5.671   7.466  0.1912  0.2149 -0.8593
 4704TIP3   OH238306   5.604   5.733   1.587  0.0347  0.2374 -0.3058
 4704TIP3    H138307   5.624   5.776   1.504 -2.6529  2.1542 -0.0986
 4704TIP3    H238308   5.575   5.645   1.561  0.9911  0.1574 -1.1940
 4705TIP3   OH238309   0.918   5.630   0.620 -0.5810  1.1621  0.1551
 4705TIP3    H138310   1.008   5.612   0.647 -1.4436  0.2146  2.6591
 4705TIP3    H238311   0.904   5.722   0.642  0.2682  1.8372 -1.9128
 4706TIP3   OH238312   6.561   0.038   9.412 -0.4300 -0.0177  0.1450
 4706TIP3    H138313   6.536  -0.047   9.448 -0.1302 -0.1170  0.1249
 4706TIP3    H238314   6.595   0.017   9.325  0.0156  0.0756  0.2939
 4707TIP3   OH238315   2.537   0.419   9.050 -0.1305  0.4513  0.0338
 4707TIP3    H138316   2.597   0.428   9.125  0.4732  1.7724 -0.5777
 4707TIP3    H238317   2.572   0.479   8.984 -1.0212 -0.2171 -1.0809
 4708TIP3   OH238318   6.300   5.262   7.312 -0.8270  0.2241  0.8696
 4708TIP3    H138319   6.246   5.329   7.270 -1.3915  0.2379  1.6097
 4708TIP3    H238320   6.245   5.226   7.381 -0.0346 -0.0398  1.3805
 4709TIP3   OH238321   3.132   5.256   1.046  0.7687  0.0384 -0.0387
 4709TIP3    H138322   3.177   5.213   0.973 -0.2091  0.6477 -1.0317
 4709TIP3    H238323   3.055   5.201   1.062  0.7125  0.1842  0.1905
 4710TIP3   OH238324   4.378   6.839   2.057  0.2311 -0.1968  0.1774
 4710TIP3    H138325   4.296   6.888   2.045 -0.3595 -1.4504 -1.1636
 4710TIP3    H238326   4.446   6.906   2.050 -0.6369  0.7417  0.4079
 4711TIP3   OH238327   4.147   7.032   1.527  0.1256 -0.3886  0.3554
 4711TIP3    H138328   4.183   6.988   1.450 -1.0188  0.8397 -0.9588
 4711TIP3    H238329   4.079   7.089   1.491  0.2697  1.0089  2.1805
 4712TIP3   OH238330   1.206   3.867   1.926 -0.8682 -0.4695 -0.1902
 4712TIP3    H138331   1.185   3.959   1.938 -2.1339 -0.8360  0.5429
 4712TIP3    H238332   1.267   3.866   1.852 -3.8964  0.6286 -2.9121
 4713TIP3   OH238333   2.512   5.873   7.277  0.4545 -0.5182 -0.4451
 4713TIP3    H138334   2.443   5.918   7.230  0.3047 -2.1726 -1.9113
 4713TIP3    H238335   2.484   5.874   7.369 -1.0861 -0.4411 -0.8986
 4714TIP3   OH238336   4.776   1.152   7.427 -0.4637  0.2039  0.1164
 4714TIP3    H138337   4.716   1.138   7.354  2.0031  1.5664 -2.3418
 4714TIP3    H238338   4.767   1.245   7.448  0.1839  0.2314  0.2858
 4715TIP3   OH238339   4.525   4.748   1.800  0.3621  0.4260 -0.0783
 4715TIP3    H138340   4.511   4.673   1.742 -0.6635  0.8150 -0.3434
 4715TIP3    H238341   4.517   4.711   1.888  3.1374 -0.4190 -0.0833
 4716TIP3   OH238342   3.146   0.629   0.074  0.3724 -0.3987  0.9008
 4716TIP3    H138343   3.112   0.631   0.164 -2.1199 -0.1205  0.0428
 4716TIP3    H238344   3.178   0.718   0.058  1.2063 -0.5600  1.6296
 4717TIP3   OH238345   1.818   3.931   0.829 -0.2490  0.7496 -0.4701
 4717TIP3    H138346   1.833   3.895   0.742 -1.3301 -0.4891 -0.1685
 4717TIP3    H238347   1.904   3.929   0.871  0.2140  1.0499 -1.3832
 4718TIP3   OH238348   5.940   4.987   0.837 -0.4149  0.5500 -0.4136
 4718TIP3    H138349   5.962   5.081   0.838  2.5649  0.0233 -1.8563
 4718TIP3    H238350   5.942   4.961   0.929  0.5127  1.5965 -0.1045
 4719TIP3   OH238351   6.020   3.084   0.956  0.5885  0.6228  0.2796
 4719TIP3    H138352   6.079   3.025   0.909  1.8445  0.4815  1.9662
 4719TIP3    H238353   5.933   3.047   0.942  1.2783 -1.2883  0.7985
 4720TIP3   OH238354   6.620   6.206   7.025 -0.2794  0.8653  0.0163
 4720TIP3    H138355   6.554   6.218   6.956 -0.0718  2.6259  0.0968
 4720TIP3    H238356   6.687   6.271   7.006  1.7556 -1.2165 -0.3547
 4721TIP3   OH238357   2.458   2.761   0.105 -0.1509  0.4120 -0.0921
 4721TIP3    H138358   2.469   2.788   0.014  1.4157  1.1747  0.2839
 4721TIP3    H238359   2.466   2.841   0.155 -0.8724 -0.0232  0.7304
 4722TIP3   OH238360   3.706   1.487   0.412 -0.1333 -0.3681 -0.2000
 4722TIP3    H138361   3.716   1.416   0.348 -0.0341  0.9488 -1.7160
 4722TIP3    H238362   3.792   1.527   0.418 -0.3482  0.0670  0.0877
 4723TIP3   OH238363   6.248   1.570   7.198 -0.0728 -0.0472  0.0977
 4723TIP3    H138364   6.183   1.518   7.150  1.1079 -0.7800 -0.7584
 4723TIP3    H238365   6.218   1.568   7.289 -2.6501  1.7720 -0.5773
 4724TIP3   OH238366   2.071   6.508   8.733 -0.1442  0.5944 -0.1103
 4724TIP3    H138367   2.041   6.571   8.668 -1.4694  1.0890  0.9321
 4724TIP3    H238368   2.138   6.554   8.782  0.7370  0.2783 -0.9879
 4725TIP3   OH238369   2.534   5.975   2.321 -0.0553 -0.8080  0.0825
 4725TIP3    H138370   2.613   5.923   2.336 -0.4093 -0.9872  1.4326
 4725TIP3    H238371   2.466   5.931   2.372 -0.4793  0.6657  0.8451
 4726TIP3   OH238372   1.814   2.305   1.959  0.0907  0.0671  0.2152
 4726TIP3    H138373   1.723   2.307   1.927  0.3537 -0.7623 -0.6317
 4726TIP3    H238374   1.849   2.223   1.924  1.4760  0.8565 -0.3006
 4727TIP3   OH238375   4.950   3.351   2.299  0.3536  0.7420 -0.1361
 4727TIP3    H138376   5.044   3.365   2.286  0.9283 -1.6826  0.8241
 4727TIP3    H238377   4.940   3.342   2.394 -0.9724  1.5561 -0.1681
 4728TIP3   OH238378   4.705   7.242   7.298 -0.3365 -0.6914  0.0968
 4728TIP3    H138379   4.612   7.228   7.280 -0.7720 -1.1694  2.3789
 4728TIP3    H238380   4.718   7.336   7.287 -1.3162 -0.4840  0.6599
 4729TIP3   OH238381   1.142   1.841   0.942 -0.0658 -0.2777 -0.1471
 4729TIP3    H138382   1.237   1.834   0.949 -0.2079 -2.2742  0.5038
 4729TIP3    H238383   1.114   1.756   0.909 -1.7145 -0.1811  0.8793
 4730TIP3   OH238384   4.220   1.270   1.161  0.3489  0.2191 -0.2400
 4730TIP3    H138385   4.308   1.303   1.178  1.0938 -1.7959  0.0635
 4730TIP3    H238386   4.170   1.291   1.240  1.1362 -0.4902  0.4547
 4731TIP3   OH238387   0.828   5.035   7.179  0.0407  0.0654  0.1766
 4731TIP3    H138388   0.769   5.036   7.254  2.7017 -2.1582  2.5076
 4731TIP3    H238389   0.772   5.061   7.105 -3.9286 -2.1601  2.0399
 4732TIP3   OH238390   0.191   6.424   1.596  0.0429 -0.4356  0.4429
 4732TIP3    H138391   0.230   6.400   1.512  0.2770  0.5562  0.2556
 4732TIP3    H238392   0.229   6.362   1.659  3.3772  1.5119  0.5976
 4733TIP3   OH238393   6.833   1.046   7.307  0.1700 -0.1044 -0.1576
 4733TIP3    H138394   6.879   0.996   7.240  0.6673 -0.9193  0.7684
 4733TIP3    H238395   6.742   1.047   7.278  0.5411  0.4255 -1.3516
 4734TIP3   OH238396   5.415   2.317   1.489 -0.0217 -0.5240 -0.3516
 4734TIP3    H138397   5.381   2.355   1.408  2.6053 -0.1163 -1.3622
 4734TIP3    H238398   5.361   2.356   1.558 -0.5441  1.3054 -1.7197
 4735TIP3   OH238399   0.354   5.910   9.366 -0.3900 -0.7742  0.1403
 4735TIP3    H138400   0.327   5.894   9.276  0.7191 -1.9618  0.0013
 4735TIP3    H238401   0.280   5.956   9.405 -1.6256 -1.8278 -0.8729
 4736TIP3   OH238402   4.092   7.037   0.869 -0.4133  0.4998  0.0787
 4736TIP3    H138403   4.060   6.963   0.920  2.6819 -0.0821  1.4037
 4736TIP3    H238404   4.115   6.999   0.784 -1.9285  0.6771 -0.4377
 4737TIP3   OH238405   4.436   5.909   1.764  0.0160 -0.0416 -0.1147
 4737TIP3    H138406   4.522   5.871   1.748  0.0668 -0.1502  0.3897
 4737TIP3    H238407   4.374   5.840   1.739  0.0944 -0.2462  0.2569
 4738TIP3   OH238408   5.756   2.853   8.756  0.3427 -0.5091 -0.0067
 4738TIP3    H138409   5.675   2.844   8.806  0.4546  0.7128  0.4053
 4738TIP3    H238410   5.775   2.946   8.757  0.4576 -0.4570 -2.1532
 4739TIP3   OH238411   3.220   5.489   8.787  0.0211  0.1383  0.4753
 4739TIP3    H138412   3.212   5.393   8.789 -0.9948  0.1637 -0.8171
 4739TIP3    H238413   3.209   5.512   8.694  0.2061  1.5120  0.7754
 4740TIP3   OH238414   3.975   1.781   1.507  0.1283 -0.8626 -0.1311
 4740TIP3    H138415   4.033   1.719   1.553  0.0620 -0.6319  0.2683
 4740TIP3    H238416   3.887   1.756   1.535  0.0834 -0.7427 -0.1670
 4741TIP3   OH238417   1.111   7.048   6.844  0.1132 -0.3657 -0.2473
 4741TIP3    H138418   1.096   7.132   6.887  1.4081 -0.6552  0.8584
 4741TIP3    H238419   1.182   7.065   6.782 -0.3146 -0.4325 -0.7663
 4742TIP3   OH238420   0.253   3.046   6.954  0.0707  1.0971  0.1384
 4742TIP3    H138421   0.169   3.060   6.997 -0.5722  0.9406 -1.0329
 4742TIP3    H238422   0.309   3.117   6.986 -0.7156  1.6051  0.3934
 4743TIP3   OH238423   2.855   5.320   9.099  0.4214  0.3402 -0.3123
 4743TIP3    H138424   2.827   5.231   9.121 -0.9225  1.2479  2.0802
 4743TIP3    H238425   2.788   5.353   9.039  0.1106  0.1957 -0.0476
 4744TIP3   OH238426   3.247   5.540   6.746  0.3120  0.3559  0.4200
 4744TIP3    H138427   3.163   5.522   6.790 -0.1109 -0.6758 -0.7750
 4744TIP3    H238428   3.243   5.489   6.666  1.2485  1.8847 -0.6332
 4745TIP3   OH238429   4.931   6.869   8.661 -0.2126 -0.1094  0.2382
 4745TIP3    H138430   4.905   6.785   8.699  2.3296 -0.7409  0.8149
 4745TIP3    H238431   4.949   6.848   8.569  0.5706 -0.2716  0.4174
 4746TIP3   OH238432   1.308   6.383   2.622  0.4990 -0.3308 -0.6097
 4746TIP3    H138433   1.289   6.354   2.711  0.1552 -1.8589 -1.1579
 4746TIP3    H238434   1.376   6.449   2.633  0.7291 -0.7563  0.7560
 4747TIP3   OH238435   0.800   3.753   9.374 -0.2961  1.1241  0.5445
 4747TIP3    H138436   0.863   3.690   9.409 -0.2222  0.1857 -1.1591
 4747TIP3    H238437   0.741   3.700   9.320 -0.7986  2.3780 -0.1860
 4748TIP3   OH238438   5.595   5.084   2.413  0.1533 -0.0744 -0.2620
 4748TIP3    H138439   5.679   5.109   2.375  0.2609  0.0530  0.0609
 4748TIP3    H238440   5.567   5.161   2.464 -0.0079 -0.2308 -0.1124
 4749TIP3   OH238441   6.776   2.846   0.676  0.0178  0.1351  0.3346
 4749TIP3    H138442   6.814   2.928   0.707 -1.6587  0.7864  0.7770
 4749TIP3    H238443   6.762   2.859   0.583  0.7729 -0.0860  0.1810
 4750TIP3   OH238444   6.112   1.059   6.866 -0.2376 -0.2336  0.2607
 4750TIP3    H138445   6.170   1.100   6.930  1.2698 -1.0593 -0.5135
 4750TIP3    H238446   6.121   1.113   6.787  1.3305 -1.6161 -0.5881
 4751TIP3   OH238447   3.422   6.856   7.613 -0.0646  0.6127  0.0003
 4751TIP3    H138448   3.452   6.802   7.541 -1.6735 -0.4007  0.0486
 4751TIP3    H238449   3.465   6.820   7.690  0.3918  0.6679 -0.2261
 4752TIP3   OH238450   5.312   1.120   9.205  0.7715  0.1859 -0.0376
 4752TIP3    H138451   5.391   1.132   9.152 -0.0067  0.6059 -1.1509
 4752TIP3    H238452   5.241   1.155   9.150 -0.2834 -0.8389  0.6254
 4753TIP3   OH238453   2.433   0.035   9.091 -0.3603 -0.6384 -0.0976
 4753TIP3    H138454   2.486  -0.045   9.099  1.0040  0.1845 -0.5613
 4753TIP3    H238455   2.394   0.029   9.004  2.5523  0.7558 -1.6688
 4754TIP3   OH238456   2.991   7.299   8.126 -0.1589 -0.0605  0.0401
 4754TIP3    H138457   3.037   7.321   8.045 -0.1065 -1.2629 -0.2780
 4754TIP3    H238458   3.019   7.366   8.189 -0.0613  0.7783 -0.8768
 4755TIP3   OH238459   7.235   5.727   1.204 -0.1311  0.0744 -0.7712
 4755TIP3    H138460   7.300   5.763   1.143  0.0127 -1.7663 -1.8035
 4755TIP3    H238461   7.234   5.788   1.277  1.6520  0.9731 -1.4312
 4756TIP3   OH238462   4.264   5.742   7.667 -0.1713  0.3067  0.3130
 4756TIP3    H138463   4.357   5.735   7.687 -0.4788  0.5173  1.9891
 4756TIP3    H238464   4.251   5.834   7.645 -0.0635  0.3678  0.5079
 4757TIP3   OH238465   5.981   4.545   7.081  0.3048  0.8843  0.0516
 4757TIP3    H138466   6.034   4.493   7.019 -0.2501  0.0892  0.2257
 4757TIP3    H238467   5.972   4.488   7.158 -1.7099  0.5321 -0.3897
 4758TIP3   OH238468   7.219   1.626   9.302  0.1065  0.3882  0.1020
 4758TIP3    H138469   7.188   1.606   9.390 -0.4064  1.5462  0.1932
 4758TIP3    H238470   7.146   1.600   9.245  0.2484  0.0900  0.0548
 4759TIP3   OH238471   6.876   3.644   1.800 -0.6457 -0.4135  0.2909
 4759TIP3    H138472   6.808   3.613   1.740 -1.0317 -0.7000  0.8663
 4759TIP3    H238473   6.937   3.570   1.808  0.3490  0.2137 -1.0755
 4760TIP3   OH238474   1.451   1.578   1.107 -0.0720 -0.4366 -0.0719
 4760TIP3    H138475   1.376   1.521   1.127 -0.8254  0.5951  0.1376
 4760TIP3    H238476   1.498   1.585   1.190 -0.1902 -0.4434 -0.0035
 4761TIP3   OH238477   1.744   0.084   8.409 -0.2343  0.1389  0.2385
 4761TIP3    H138478   1.810   0.121   8.351 -1.0072  3.0915  1.1059
 4761TIP3    H238479   1.732   0.149   8.478 -2.2462 -1.4312  1.4983
 4762TIP3   OH238480   1.644   0.514   7.764 -0.7417  0.0678  0.7794
 4762TIP3    H138481   1.606   0.479   7.683 -0.5433 -0.7327  1.0229
 4762TIP3    H238482   1.605   0.601   7.773 -0.2197  0.4770 -0.5542
 4763TIP3   OH238483   3.804   3.578   2.271 -0.0142  0.2576 -0.4869
 4763TIP3    H138484   3.889   3.622   2.272 -1.3808  3.1095 -0.2070
 4763TIP3    H238485   3.789   3.554   2.362 -0.1075  1.0500 -0.2836
 4764TIP3   OH238486   3.697   0.511   0.836  0.0264 -0.0353  0.6121
 4764TIP3    H138487   3.792   0.518   0.824  0.0183 -0.9044 -0.0383
 4764TIP3    H238488   3.677   0.421   0.812 -1.1777  0.5511 -0.7583
 4765TIP3   OH238489   1.985   5.975   9.616  0.0325 -0.1480 -0.0136
 4765TIP3    H138490   2.021   5.947   9.699 -0.5924 -0.9381  0.0056
 4765TIP3    H238491   1.899   6.011   9.638 -0.9681 -2.1003 -0.4871
 4766TIP3   OH238492   4.116   6.338   7.186 -0.3819 -0.7926 -0.3746
 4766TIP3    H138493   4.086   6.416   7.140  0.0657  0.0909  0.7962
 4766TIP3    H238494   4.111   6.361   7.279 -0.8781 -2.3846  0.0415
 4767TIP3   OH238495   0.794   6.871   1.104  0.0094  0.4250  0.1018
 4767TIP3    H138496   0.729   6.873   1.033  1.0404  1.5338 -0.8449
 4767TIP3    H238497   0.878   6.862   1.060  0.7209  1.5678  1.1410
 4768TIP3   OH238498   7.017   5.842   7.399 -0.1564 -0.2008 -0.3393
 4768TIP3    H138499   6.995   5.763   7.448  1.5423 -1.7848 -1.9620
 4768TIP3    H238500   7.062   5.898   7.462 -1.5939 -0.3545  0.8985
 4769TIP3   OH238501   2.893   6.759   7.951  0.3857 -0.6940 -0.2152
 4769TIP3    H138502   2.917   6.850   7.938  0.8780 -0.4977  1.6839
 4769TIP3    H238503   2.798   6.759   7.950  0.2969  0.3071  2.1026
 4770TIP3   OH238504   1.255   6.568   6.801 -0.1815 -0.1093  0.0340
 4770TIP3    H138505   1.317   6.594   6.869  1.3813  0.4863 -1.5277
 4770TIP3    H238506   1.188   6.637   6.801  0.8986  0.9759 -0.3414
 4771TIP3   OH238507   7.215   5.092   7.815 -0.2893 -0.5871 -0.0591
 4771TIP3    H138508   7.160   5.145   7.757 -0.3401 -0.7250 -0.1368
 4771TIP3    H238509   7.225   5.145   7.894 -0.2329 -0.4044 -0.1883
 4772TIP3   OH238510   5.460   6.537   1.469  0.3286  0.7930 -0.0366
 4772TIP3    H138511   5.421   6.517   1.554 -0.2464 -1.3267 -0.7261
 4772TIP3    H238512   5.403   6.603   1.430 -0.5571  0.3146  0.4280
 4773TIP3   OH238513   5.809   3.405   7.937  0.1057  0.2543 -0.2074
 4773TIP3    H138514   5.852   3.405   7.851 -0.9651  1.3972 -0.7784
 4773TIP3    H238515   5.716   3.414   7.916 -0.1788  0.3768  1.0745
 4774TIP3   OH238516   6.058   3.605   0.700  0.2374  0.3665  0.2101
 4774TIP3    H138517   6.015   3.675   0.651  0.9150  0.8204  0.2364
 4774TIP3    H238518   6.039   3.625   0.792  3.0905  2.4770  0.5035
 4775TIP3   OH238519   2.903   4.884   0.743  0.3868 -0.3541 -0.1293
 4775TIP3    H138520   2.842   4.955   0.722  0.1753 -0.2210  0.8684
 4775TIP3    H238521   2.931   4.903   0.833  1.2401 -0.8852 -0.2737
 4776TIP3   OH238522   2.142   5.279   8.351  0.5519  0.3146  0.2196
 4776TIP3    H138523   2.231   5.278   8.316  0.3797  0.9805 -0.2686
 4776TIP3    H238524   2.133   5.196   8.399  1.2930  0.0605 -0.0759
 4777TIP3   OH238525   3.183   3.686   7.976  0.3135 -0.3843  0.6484
 4777TIP3    H138526   3.241   3.612   7.991  0.6293 -0.2203  0.2398
 4777TIP3    H238527   3.230   3.762   8.012  0.2199 -0.2963  0.5862
 4778TIP3   OH238528   1.686   4.489   2.041  0.3118  0.1826 -0.0800
 4778TIP3    H138529   1.732   4.406   2.047  0.0820  0.0398 -0.2584
 4778TIP3    H238530   1.710   4.524   1.955 -1.2201 -0.6911 -0.9141
 4779TIP3   OH238531   0.282   5.750   7.871  0.2484  0.4006 -0.1983
 4779TIP3    H138532   0.192   5.749   7.902 -1.2934 -2.1910 -4.1389
 4779TIP3    H238533   0.329   5.691   7.931 -1.4773 -0.8853 -0.0523
 4780TIP3   OH238534   4.689   6.158   8.486 -0.4348  0.0084 -0.3430
 4780TIP3    H138535   4.620   6.110   8.531  0.6606 -2.1206 -0.8006
 4780TIP3    H238536   4.660   6.162   8.395  0.4073 -1.7172 -0.7240
 4781TIP3   OH238537   7.160   0.484   0.589 -0.1871  0.4207  0.5019
 4781TIP3    H138538   7.139   0.422   0.520  0.2905 -0.4115  1.0898
 4781TIP3    H238539   7.120   0.447   0.668 -1.2040  1.6372  0.5832
 4782TIP3   OH238540   3.429   0.197   2.572  0.3090  0.2674 -0.3140
 4782TIP3    H138541   3.371   0.229   2.503  1.4718 -1.0161 -1.9675
 4782TIP3    H238542   3.475   0.275   2.603 -0.1991  0.8683 -1.0230
 4783TIP3   OH238543   0.016   6.490   0.213  0.0069  0.1942 -0.1239
 4783TIP3    H138544  -0.054   6.515   0.153  0.5051  0.9763 -0.4086
 4783TIP3    H238545   0.045   6.404   0.183 -0.2154  0.2765 -0.5840
 4784TIP3   OH238546   6.959   1.212   1.017  0.0344 -0.6527  0.0981
 4784TIP3    H138547   6.992   1.192   0.929 -0.6701 -0.8935 -0.1172
 4784TIP3    H238548   6.864   1.215   1.007 -0.0230 -0.1321  0.7439
 4785TIP3   OH238549   7.272   1.877   9.177 -0.0867  0.1955 -0.0859
 4785TIP3    H138550   7.255   1.797   9.227 -2.1300  1.0722  0.7424
 4785TIP3    H238551   7.333   1.926   9.231  0.8170 -0.5770 -0.3777
 4786TIP3   OH238552   0.905   6.219   0.078  0.1549 -0.3619  0.2356
 4786TIP3    H138553   0.992   6.187   0.056  0.3439  1.3352 -1.8242
 4786TIP3    H238554   0.901   6.306   0.038 -1.5868  0.6780  2.4390
 4787TIP3   OH238555   6.119   6.885   2.860  0.7534  0.0699 -0.1182
 4787TIP3    H138556   6.108   6.810   2.801 -2.3924  0.8766 -0.7605
 4787TIP3    H238557   6.183   6.855   2.924 -0.7462 -3.4850 -0.0016
 4788TIP3   OH238558   6.657   7.106   1.350 -0.3241  0.4218  0.2726
 4788TIP3    H138559   6.563   7.092   1.337 -0.1423 -0.1182 -0.5312
 4788TIP3    H238560   6.665   7.199   1.369 -1.2269  0.1227  2.3940
 4789TIP3   OH238561   1.104   6.849   0.468 -0.0953 -0.3521  0.8835
 4789TIP3    H138562   1.146   6.901   0.400 -0.8476 -1.4010 -0.4329
 4789TIP3    H238563   1.173   6.835   0.533  0.7960  0.2373  0.1002
 4790TIP3   OH238564   6.499   1.376   9.252  0.1213 -0.3977 -0.2035
 4790TIP3    H138565   6.559   1.446   9.279 -0.5059 -0.1720  0.6723
 4790TIP3    H238566   6.469   1.402   9.165  0.8818 -0.2456 -0.4289
 4791TIP3   OH238567   2.978   1.798   9.468  0.2216 -0.6428  0.0039
 4791TIP3    H138568   3.029   1.878   9.462  1.0673 -1.1535  0.2062
 4791TIP3    H238569   2.918   1.802   9.393  1.3751 -0.5833 -0.9549
 4792TIP3   OH238570   4.467   3.995   7.589  0.2178 -0.0508 -0.4732
 4792TIP3    H138571   4.494   3.965   7.502 -0.6055 -1.5827 -0.2374
 4792TIP3    H238572   4.403   4.064   7.573  0.3540 -0.0637 -1.0702
 4793TIP3   OH238573   3.682   1.168   8.942  0.2774  0.5575  0.0483
 4793TIP3    H138574   3.758   1.115   8.967  0.6398  1.6380  1.3461
 4793TIP3    H238575   3.637   1.115   8.876 -0.1636 -2.0649  2.2382
 4794TIP3   OH238576   4.529   4.988   1.666 -0.1809  0.4369  0.5386
 4794TIP3    H138577   4.624   4.998   1.669 -0.0657 -0.3069 -0.2034
 4794TIP3    H238578   4.512   4.910   1.718 -0.3265  0.2299  0.1817
 4795TIP3   OH238579   2.413   2.543   6.785  0.1387 -0.9138  0.1321
 4795TIP3    H138580   2.474   2.596   6.735 -2.3466  1.5503 -0.5183
 4795TIP3    H238581   2.341   2.525   6.724 -0.4956 -2.4973  1.2728
 4796TIP3   OH238582   0.936   1.085   8.705 -0.3579  0.8552  0.0140
 4796TIP3    H138583   0.870   1.044   8.761 -0.4562  0.8912 -0.0754
 4796TIP3    H238584   0.922   1.179   8.717 -1.2348  0.8766 -1.0669
 4797TIP3   OH238585   1.814   0.394   7.981 -0.3885  0.5737  0.5224
 4797TIP3    H138586   1.769   0.433   7.905  2.0066  1.0270 -0.7901
 4797TIP3    H238587   1.753   0.329   8.015 -0.9936 -0.8396 -2.8381
 4798TIP3   OH238588   3.531   0.526   7.627 -0.3941 -0.3656 -0.4736
 4798TIP3    H138589   3.611   0.518   7.576 -0.8802  1.1203 -1.5274
 4798TIP3    H238590   3.557   0.504   7.716  1.3833  0.7837 -0.6563
 4799TIP3   OH238591   0.331   3.625   7.383  0.1715 -0.6626 -0.5701
 4799TIP3    H138592   0.302   3.683   7.312 -0.6997  0.0218  0.3235
 4799TIP3    H238593   0.346   3.684   7.457 -1.0107 -1.5956  0.4427
 4800TIP3   OH238594   2.288   6.245   8.828 -0.1390 -0.2239  0.4054
 4800TIP3    H138595   2.285   6.329   8.872 -1.7181 -1.5760  3.1332
 4800TIP3    H238596   2.196   6.225   8.808  0.1798 -1.4237  0.0450
 4801TIP3   OH238597   5.246   3.654   8.786 -0.5760 -0.5839 -0.2394
 4801TIP3    H138598   5.313   3.716   8.757 -0.1557 -0.3833  1.0824
 4801TIP3    H238599   5.200   3.629   8.706 -0.5598  1.2020 -0.8635
 4802TIP3   OH238600   2.181   3.436   2.593  0.2672  0.1269  0.5927
 4802TIP3    H138601   2.151   3.445   2.503  0.0366  1.0414  0.7554
 4802TIP3    H238602   2.229   3.517   2.611 -0.0400  0.1379  1.4242
 4803TIP3   OH238603   6.065   3.293   8.196 -0.0219 -0.5503 -0.0728
 4803TIP3    H138604   6.042   3.205   8.225  0.8195 -0.7560  0.0056
 4803TIP3    H238605   6.048   3.292   8.102  1.9847 -1.5115 -0.4897
 4804TIP3   OH238606   4.734   6.158   9.042 -0.1652  0.2469 -0.0340
 4804TIP3    H138607   4.732   6.247   9.007  1.1964  0.7647  1.1381
 4804TIP3    H238608   4.811   6.118   9.001 -1.1086 -0.6147 -1.0168
 4805TIP3   OH238609   2.718   5.152   1.290  0.7560 -0.2605 -0.7140
 4805TIP3    H138610   2.696   5.194   1.374 -0.7041 -1.2334 -0.5680
 4805TIP3    H238611   2.732   5.225   1.230 -1.2223  0.4944 -0.3394
 4806TIP3   OH238612   2.663   2.168   8.359 -0.2558  0.0139  0.3142
 4806TIP3    H138613   2.681   2.237   8.423 -0.0225  0.5990 -0.3746
 4806TIP3    H238614   2.570   2.178   8.338  0.0149  0.8184 -0.5785
 4807TIP3   OH238615   1.493   6.475   8.741 -0.6912 -0.2992  0.3516
 4807TIP3    H138616   1.498   6.510   8.830  0.6773 -2.9515  1.4408
 4807TIP3    H238617   1.579   6.490   8.704 -0.0439 -2.4022  0.8784
 4808TIP3   OH238618   1.460   2.838   0.248  0.4007 -0.9735 -0.0680
 4808TIP3    H138619   1.416   2.783   0.313  1.1319 -2.0252 -0.4478
 4808TIP3    H238620   1.553   2.834   0.272  0.4451  0.3503  0.0719
 4809TIP3   OH238621   3.608   2.727   7.735 -0.2128 -0.5960 -0.2908
 4809TIP3    H138622   3.514   2.744   7.747 -0.1387 -0.3034 -0.1152
 4809TIP3    H238623   3.615   2.695   7.645 -0.2537  1.1612 -0.9537
 4810TIP3   OH238624   1.868   2.288   8.098  0.5151 -0.0006 -0.1616
 4810TIP3    H138625   1.776   2.311   8.094  0.8580  1.7843  1.1251
 4810TIP3    H238626   1.889   2.256   8.010 -1.2078 -0.0628 -0.5759
 4811TIP3   OH238627   4.964   4.550   0.088  0.7744 -0.1467  0.3954
 4811TIP3    H138628   5.054   4.517   0.083  1.1856  0.4065  2.8106
 4811TIP3    H238629   4.913   4.478   0.124  0.8802  0.4714  1.8519
 4812TIP3   OH238630   6.736   3.128   8.838 -1.0161  0.5399  1.0803
 4812TIP3    H138631   6.663   3.189   8.845 -0.9957  0.5951  0.8056
 4812TIP3    H238632   6.814   3.184   8.835 -1.0577  0.5512 -0.2245
 4813TIP3   OH238633   2.607   3.674   3.177  0.0372 -0.2479  0.1330
 4813TIP3    H138634   2.541   3.732   3.213  0.5196  0.7825 -0.5833
 4813TIP3    H238635   2.558   3.611   3.125 -0.4764 -0.3497  0.7320
 4814TIP3   OH238636   2.957   0.513   1.622 -0.2513 -0.5352  0.2616
 4814TIP3    H138637   2.942   0.510   1.528 -1.4648  0.2353  0.4017
 4814TIP3    H238638   2.869   0.513   1.660  0.1946  0.2690  1.3525
 4815TIP3   OH238639   0.833   1.374   9.042  0.4144  0.7026 -0.3874
 4815TIP3    H138640   0.850   1.343   9.131 -1.7029  0.3917 -0.0403
 4815TIP3    H238641   0.747   1.416   9.047  0.0850  0.3666 -2.3561
 4816TIP3   OH238642   2.260   1.293   8.707 -0.1617  0.4586 -0.0004
 4816TIP3    H138643   2.279   1.373   8.658 -0.7145  0.8725  0.4469
 4816TIP3    H238644   2.288   1.312   8.797 -0.6857  0.3076  0.2002
 4817TIP3   OH238645   6.405   3.012   1.710  0.1242 -0.7486  0.3899
 4817TIP3    H138646   6.340   2.948   1.682  0.6775 -1.5809  0.9626
 4817TIP3    H238647   6.358   3.071   1.768 -0.2127 -1.1202  0.4957
 4818TIP3   OH238648   4.196   2.036   1.310 -0.0128  0.4660 -0.1231
 4818TIP3    H138649   4.127   2.054   1.246  0.4213  0.8015 -0.5064
 4818TIP3    H238650   4.207   1.941   1.308 -0.1138  0.4599 -0.4314
 4819TIP3   OH238651   5.898   4.101   2.099 -0.3596  0.2541 -0.2108
 4819TIP3    H138652   5.808   4.070   2.095 -0.3592 -0.4028  2.6458
 4819TIP3    H238653   5.896   4.187   2.058 -2.1319 -0.0117 -0.7538
 4820TIP3   OH238654   3.208   1.019   1.461  0.1359  0.2637  0.4713
 4820TIP3    H138655   3.147   1.088   1.488  1.0171  1.4677 -0.4684
 4820TIP3    H238656   3.238   0.979   1.542  0.6846  1.9663  1.1480
 4821TIP3   OH238657   0.672   6.930   2.171 -0.6291  0.3661  0.2898
 4821TIP3    H138658   0.751   6.877   2.158 -0.5390  0.4114  0.6526
 4821TIP3    H238659   0.671   6.950   2.264 -1.5872 -0.4461  0.4678
 4822TIP3   OH238660   4.804   4.227   1.773 -0.0745  0.0974  0.4484
 4822TIP3    H138661   4.844   4.142   1.792  0.4552  0.4134  0.7816
 4822TIP3    H238662   4.776   4.221   1.682 -0.9078 -0.7685  0.7360
 4823TIP3   OH238663   6.924   1.214   0.157 -0.3584 -0.3073  0.9034
 4823TIP3    H138664   6.877   1.273   0.099 -0.0398  0.1526  1.1112
 4823TIP3    H238665   6.863   1.141   0.172  0.1082 -1.2122 -1.2175
 4824TIP3   OH238666   5.975   0.745   1.839  0.1707  0.0625  0.2466
 4824TIP3    H138667   6.006   0.688   1.910 -0.4249 -0.8043 -0.1637
 4824TIP3    H238668   5.970   0.687   1.763  1.4919  1.1321 -0.7061
 4825TIP3   OH238669   6.572   4.824   0.711 -0.3212  0.0993 -0.3122
 4825TIP3    H138670   6.561   4.786   0.624  1.1963  2.1073 -1.4889
 4825TIP3    H238671   6.647   4.777   0.748  0.6707  0.9405 -1.1896
 4826TIP3   OH238672   0.339   7.054   1.644  0.6472 -0.5792  0.1117
 4826TIP3    H138673   0.373   7.020   1.561 -0.1661 -1.2118  0.0190
 4826TIP3    H238674   0.312   6.975   1.692 -0.1362 -0.1384  0.4090
 4827TIP3   OH238675   4.474   2.276   8.766  0.0682  0.0447  0.2621
 4827TIP3    H138676   4.470   2.193   8.719  0.2616 -0.2464  0.7605
 4827TIP3    H238677   4.558   2.314   8.742  0.0766 -0.0046  0.2136
 4828TIP3   OH238678   1.344   6.551   8.032  0.0261 -0.6731  0.0850
 4828TIP3    H138679   1.345   6.636   7.988 -0.5619 -0.5384  0.3252
 4828TIP3    H238680   1.365   6.488   7.963 -1.2386 -0.5023 -0.4829
 4829TIP3   OH238681   0.310   3.475   2.526  0.0201 -0.1428 -0.5933
 4829TIP3    H138682   0.346   3.451   2.440  1.7409  0.7901 -0.1727
 4829TIP3    H238683   0.260   3.554   2.509  0.4080  0.0752 -0.7314
 4830TIP3   OH238684   2.055   2.349   1.680  0.2424 -0.5369  0.2219
 4830TIP3    H138685   2.046   2.357   1.775  0.8368 -0.3445  0.2660
 4830TIP3    H238686   2.138   2.303   1.668  1.2788  1.3477 -0.2461
 4831TIP3   OH238687   2.853   7.423   1.293  0.5683  0.0275 -0.4554
 4831TIP3    H138688   2.763   7.392   1.304  0.5860 -0.8451 -2.4444
 4831TIP3    H238689   2.890   7.419   1.381 -1.0903 -0.3657  0.2679
 4832TIP3   OH238690   2.867   4.942   8.748  0.1715 -0.2269 -0.0322
 4832TIP3    H138691   2.924   5.018   8.747 -0.5401  0.3783  1.6665
 4832TIP3    H238692   2.814   4.953   8.827 -0.5210 -2.0649 -0.1973
 4833TIP3   OH238693   0.141   2.668   0.064  0.0643 -0.0043  0.0680
 4833TIP3    H138694   0.051   2.699   0.056 -0.7870 -1.7018  2.3611
 4833TIP3    H238695   0.188   2.741   0.105  0.0739  1.3160 -2.1439
 4834TIP3   OH238696   7.157   5.810   7.640  0.1229  0.0860 -0.2387
 4834TIP3    H138697   7.150   5.878   7.707 -0.2852 -0.4864  0.3073
 4834TIP3    H238698   7.222   5.749   7.674  0.6285  0.2946 -0.8145
 4835TIP3   OH238699   6.932   3.381   7.289  0.7907 -0.4456  0.9598
 4835TIP3    H138700   6.936   3.436   7.211  2.4045  0.7882  1.8864
 4835TIP3    H238701   6.839   3.358   7.296  0.3290  0.8770 -0.3091
 4836TIP3   OH238702   0.405   5.169   8.959 -0.6209 -0.5229 -0.3789
 4836TIP3    H138703   0.415   5.103   9.027 -0.5925 -1.2499 -1.0750
 4836TIP3    H238704   0.428   5.124   8.878  2.2297  1.0941 -0.5799
 4837TIP3   OH238705   5.354   2.255   0.170  0.1659 -0.1128 -0.2503
 4837TIP3    H138706   5.373   2.168   0.134 -0.8851 -1.1060  1.4592
 4837TIP3    H238707   5.265   2.248   0.205  0.2593  1.4898  0.3894
 4838TIP3   OH238708   0.407   7.152   7.326 -0.1688 -0.3060  0.0675
 4838TIP3    H138709   0.425   7.233   7.374 -0.9489 -0.1945  0.1998
 4838TIP3    H238710   0.486   7.135   7.276  0.3941 -0.0356  0.8538
 4839TIP3   OH238711   0.338   6.686   8.494  0.6975 -0.1169 -0.0537
 4839TIP3    H138712   0.415   6.723   8.537 -0.4054  1.7573  0.4314
 4839TIP3    H238713   0.314   6.751   8.428  0.6261 -1.5713 -1.5384
 4840TIP3   OH238714   2.408   1.547   8.117 -0.1903 -0.0609  0.0302
 4840TIP3    H138715   2.410   1.550   8.022 -0.0521  1.1408  0.0581
 4840TIP3    H238716   2.384   1.636   8.144  2.1962  0.3542  1.1540
 4841TIP3   OH238717   0.514   5.166   1.810  0.4352  0.2159  0.0728
 4841TIP3    H138718   0.431   5.138   1.771  2.0913 -1.3787 -2.6449
 4841TIP3    H238719   0.564   5.202   1.736  2.1501  1.1667  1.6293
 4842TIP3   OH238720   1.212   4.096   9.218  0.2036  0.1106  0.6175
 4842TIP3    H138721   1.163   4.015   9.232 -0.9858  0.8221  0.6168
 4842TIP3    H238722   1.298   4.078   9.257  0.2216 -1.4160 -0.0648
 4843TIP3   OH238723   5.156   3.476   1.511  0.0967 -0.1054 -0.1793
 4843TIP3    H138724   5.171   3.570   1.516 -1.0120  0.0520  0.5186
 4843TIP3    H238725   5.095   3.464   1.439  0.6534 -0.3545 -0.6176
 4844TIP3   OH238726   7.288   4.111   0.431 -0.3903 -0.1083  0.3582
 4844TIP3    H138727   7.325   4.197   0.449 -1.0332 -0.1192  1.8970
 4844TIP3    H238728   7.280   4.107   0.335  1.3172  0.8111  0.1450
 4845TIP3   OH238729   2.044   5.931   7.603  0.2866  0.0054 -0.1102
 4845TIP3    H138730   2.054   5.990   7.528 -0.7524  0.3947  0.0514
 4845TIP3    H238731   2.131   5.931   7.645  0.4292  1.0510 -0.3803
 4846TIP3   OH238732   1.829   2.210   7.309 -0.5653 -0.3122 -0.2187
 4846TIP3    H138733   1.848   2.238   7.220  0.2638  0.3676  0.1582
 4846TIP3    H238734   1.908   2.164   7.338 -0.2005  0.8158  0.6819
 4847TIP3   OH238735   6.505   1.260   0.808 -0.4967 -0.3311  0.6568
 4847TIP3    H138736   6.419   1.266   0.849 -1.1243  3.1573 -0.8024
 4847TIP3    H238737   6.529   1.351   0.790  2.8036 -1.2843 -0.4520
 4848TIP3   OH238738   5.715   1.531   9.317  0.3627 -0.3962  0.2856
 4848TIP3    H138739   5.733   1.580   9.236 -0.2394  1.1202  1.0182
 4848TIP3    H238740   5.802   1.505   9.348  0.8130  0.9573  0.2702
 4849TIP3   OH238741   3.294   1.117   0.663  0.5125 -0.0900  0.0129
 4849TIP3    H138742   3.371   1.107   0.720 -1.3392 -0.2867  2.6767
 4849TIP3    H238743   3.307   1.201   0.620  1.8127  0.2842  1.0748
 4850TIP3   OH238744   6.587   4.972   1.442 -0.7574 -0.5101  0.4441
 4850TIP3    H138745   6.606   4.992   1.350 -2.3297  0.9120  0.3826
 4850TIP3    H238746   6.673   4.959   1.481  0.1860  1.9013 -0.5883
 4851TIP3   OH238747   5.986   5.484   7.121  0.0769 -0.1989 -1.0279
 4851TIP3    H138748   5.954   5.570   7.093 -3.9380 -0.7576  1.0316
 4851TIP3    H238749   5.991   5.433   7.041 -2.5940  0.6050 -1.8134
 4852TIP3   OH238750   7.363   7.306   0.726  0.1965 -0.5918  0.4298
 4852TIP3    H138751   7.297   7.366   0.760 -1.3143 -2.1255  0.3085
 4852TIP3    H238752   7.377   7.243   0.796 -0.6212 -1.9395 -0.5702
 4853TIP3   OH238753   3.557   6.178   7.370 -0.2936  0.6048  0.2585
 4853TIP3    H138754   3.593   6.157   7.284  1.2473  1.2618  0.7045
 4853TIP3    H238755   3.568   6.097   7.420 -0.6380  0.4046  0.0128
 4854TIP3   OH238756   1.945   5.303   9.167 -0.5020 -0.5829  0.6492
 4854TIP3    H138757   1.974   5.324   9.078  1.6085 -1.3559  1.0878
 4854TIP3    H238758   1.923   5.388   9.206  0.8358  0.0434  0.1090
 4855TIP3   OH238759   5.696   3.370   7.640  0.0637  0.1179 -0.4280
 4855TIP3    H138760   5.620   3.369   7.698  0.3793  0.2094 -0.0058
 4855TIP3    H238761   5.724   3.462   7.640  0.1777  0.0825 -0.5740
 4856TIP3   OH238762   5.371   6.358   8.344  0.5342  0.3647  0.2050
 4856TIP3    H138763   5.394   6.265   8.345 -0.5794  0.0304 -1.3256
 4856TIP3    H238764   5.409   6.393   8.424  1.0505 -1.3935  0.7750
 4857TIP3   OH238765   6.474   1.340   7.770 -0.4940 -0.1667  0.3988
 4857TIP3    H138766   6.538   1.308   7.708  1.4587 -1.8346  3.0384
 4857TIP3    H238767   6.403   1.275   7.768 -1.2329  0.6429 -1.1288
 4858TIP3   OH238768   2.115   6.265   0.065 -0.4594  0.1333 -0.3691
 4858TIP3    H138769   2.107   6.351   0.024  0.5573  0.5182  0.2074
 4858TIP3    H238770   2.054   6.210   0.017 -1.8393  1.3898 -0.1550
 4859TIP3   OH238771   2.431   0.997   1.101 -0.2972 -0.3584 -0.1068
 4859TIP3    H138772   2.397   0.975   1.014  0.9204  1.2119 -1.0326
 4859TIP3    H238773   2.373   0.951   1.161 -1.3745 -1.2401 -1.7276
 4860TIP3   OH238774   5.939   0.465   7.387  0.0582  0.3498  0.0289
 4860TIP3    H138775   5.991   0.542   7.412  1.3078 -0.6045  0.4677
 4860TIP3    H238776   6.005   0.399   7.363 -0.9803 -0.6931 -0.0169
 4861TIP3   OH238777   7.028   0.394   0.798  0.1256  0.0783 -0.7434
 4861TIP3    H138778   6.960   0.461   0.782 -0.1772 -0.2748 -0.9505
 4861TIP3    H238779   6.979   0.313   0.809  0.5191 -0.1872 -0.9401
 4862TIP3   OH238780   2.275   1.872   1.259 -0.2051 -0.0735 -0.6113
 4862TIP3    H138781   2.278   1.965   1.237  1.8790  0.0498 -0.0151
 4862TIP3    H238782   2.334   1.830   1.197  1.1144 -0.5437  0.8747
 4863TIP3   OH238783   1.802   5.867   0.592  0.3739  0.4610  0.1272
 4863TIP3    H138784   1.862   5.806   0.633  0.0531 -0.2936 -0.5053
 4863TIP3    H238785   1.745   5.897   0.663  0.8108  0.3624  0.5178
 4864TIP3   OH238786   1.117   2.996   0.650  0.3886 -0.2647 -0.1123
 4864TIP3    H138787   1.170   3.058   0.701 -0.7667 -0.9723  2.0672
 4864TIP3    H238788   1.029   3.034   0.652  0.3569 -0.1831 -1.8651
 4865TIP3   OH238789   2.898   4.617   9.184 -0.6463 -0.4133  0.0032
 4865TIP3    H138790   2.935   4.585   9.266  1.2978 -1.4647 -1.2047
 4865TIP3    H238791   2.803   4.613   9.197 -0.4585  1.8167  3.0408
 4866TIP3   OH238792   2.317   5.623   1.599  0.1665  0.5686 -0.0182
 4866TIP3    H138793   2.255   5.640   1.528  0.7857  0.4310 -0.6039
 4866TIP3    H238794   2.290   5.682   1.669  0.3609  1.6903 -0.8590
 4867TIP3   OH238795   0.907   3.892   2.472 -0.7063  0.0590  0.2124
 4867TIP3    H138796   0.968   3.847   2.415  0.0826  0.8312  0.4283
 4867TIP3    H238797   0.925   3.857   2.560 -0.9407 -0.0923  0.2023
 4868TIP3   OH238798   7.260   1.616   0.762 -0.0648  0.1920  0.4592
 4868TIP3    H138799   7.350   1.589   0.748 -0.0809  0.5619 -0.4221
 4868TIP3    H238800   7.209   1.537   0.748  0.1437 -0.1220  1.3998
 4869TIP3   OH238801   4.781   0.576   1.577 -0.2829 -0.5210  0.0453
 4869TIP3    H138802   4.850   0.641   1.566  0.0308 -0.9698 -0.6936
 4869TIP3    H238803   4.722   0.615   1.641  0.8361 -0.2914  0.9614
 4870TIP3   OH238804   0.062   0.078   9.281  0.6146 -0.0135 -0.1394
 4870TIP3    H138805   0.050  -0.017   9.281 -0.4389  0.0523  2.2158
 4870TIP3    H238806   0.145   0.091   9.327  0.1750  0.2248  0.5994
 4871TIP3   OH238807   4.265   7.110   0.585 -0.0486 -0.0875  0.2965
 4871TIP3    H138808   4.317   7.182   0.618  0.0523  0.3374 -0.7392
 4871TIP3    H238809   4.177   7.146   0.574 -0.5149 -0.7195  1.7580
 4872TIP3   OH238810   3.808   2.487   9.435 -0.3527  0.3481  0.4325
 4872TIP3    H138811   3.850   2.406   9.464 -1.2622 -0.6926 -1.0629
 4872TIP3    H238812   3.843   2.504   9.348  0.1421  1.8303  0.8819
 4873TIP3   OH238813   1.277   6.758   9.609 -0.6093  0.3564  0.1753
 4873TIP3    H138814   1.318   6.828   9.558  1.0508  1.5331  2.9134
 4873TIP3    H238815   1.216   6.803   9.668 -0.8155 -0.7021  0.8040
 4874TIP3   OH238816   0.281   2.443   8.564 -0.3645 -0.0650  0.2102
 4874TIP3    H138817   0.265   2.429   8.657 -0.0196 -2.2441 -0.0075
 4874TIP3    H238818   0.210   2.396   8.519 -0.5940  1.0489 -0.6342
 4875TIP3   OH238819   4.708   5.242   0.445  0.3463  0.0928  0.2954
 4875TIP3    H138820   4.800   5.266   0.434 -0.1013  1.9966  0.4600
 4875TIP3    H238821   4.703   5.211   0.536  0.5783  1.2864  0.7342
 4876TIP3   OH238822   1.433   6.252   0.090  0.3235  0.3049 -0.4600
 4876TIP3    H138823   1.419   6.328   0.147 -1.6697  0.9893 -1.7411
 4876TIP3    H238824   1.479   6.189   0.145 -1.5923  0.8627  1.9790
 4877TIP3   OH238825   1.348   1.868   8.598 -0.8607 -0.2125  0.2875
 4877TIP3    H138826   1.280   1.801   8.597 -0.1701 -0.9687 -1.9786
 4877TIP3    H238827   1.420   1.829   8.648 -1.0468 -0.5329  0.3045
 4878TIP3   OH238828   3.979   1.090   0.122 -0.5191  0.3546  0.4722
 4878TIP3    H138829   3.913   1.156   0.102 -1.0217 -0.4190 -0.5143
 4878TIP3    H238830   3.937   1.031   0.184 -0.8836 -0.3011 -0.3746
 4879TIP3   OH238831   5.615   2.590   0.534  0.6594 -0.3271 -0.6217
 4879TIP3    H138832   5.554   2.544   0.476  0.3888  0.0965 -0.6818
 4879TIP3    H238833   5.570   2.672   0.554  0.8170 -0.4132  0.0775
 4880TIP3   OH238834   2.887   2.535   2.472 -0.4790  0.2734 -0.4055
 4880TIP3    H138835   2.832   2.535   2.551  1.8167  0.6574  1.2970
 4880TIP3    H238836   2.906   2.442   2.457  0.3094  0.2805  0.4536
 4881TIP3   OH238837   0.721   2.820   2.711  0.2771 -0.3046 -0.0948
 4881TIP3    H138838   0.673   2.871   2.776 -0.1138  0.0113 -0.6177
 4881TIP3    H238839   0.658   2.752   2.683 -0.3135  0.8149 -1.6246
 4882TIP3   OH238840   0.954   6.786   7.501  0.1011 -0.0463  0.0649
 4882TIP3    H138841   0.868   6.775   7.541  0.2437  1.2829  0.8160
 4882TIP3    H238842   0.936   6.824   7.415 -0.0424  1.8181  0.8687
 4883TIP3   OH238843   6.963   1.255   2.960 -0.4968  0.2653 -0.4846
 4883TIP3    H138844   6.869   1.268   2.974 -0.6405  1.1265 -2.0280
 4883TIP3    H238845   6.986   1.317   2.891  0.9331 -0.8616 -1.0824
 4884TIP3   OH238846   7.143   3.706   2.259 -0.2078 -0.1076 -0.1589
 4884TIP3    H138847   7.073   3.651   2.224 -1.3013  0.8535  0.4032
 4884TIP3    H238848   7.176   3.658   2.334  0.5329 -1.0951 -1.0973
 4885TIP3   OH238849   5.548   4.082   1.226  0.3103  0.4892 -0.1314
 4885TIP3    H138850   5.478   4.087   1.291  1.5647 -0.0797  1.3021
 4885TIP3    H238851   5.622   4.128   1.265  1.0239  0.3521 -1.2586
 4886TIP3   OH238852   0.902   0.562   1.345 -0.5610 -0.2389  0.0208
 4886TIP3    H138853   0.814   0.540   1.376 -0.3387  0.6170  1.3334
 4886TIP3    H238854   0.893   0.569   1.250 -1.5638 -1.6737 -0.0171
 4887TIP3   OH238855   5.024   2.569   8.082  0.3171  0.7411 -1.0742
 4887TIP3    H138856   4.942   2.520   8.093 -0.6482  2.1370 -1.7650
 4887TIP3    H238857   5.034   2.577   7.987  1.1448  0.7856 -0.9877
 4888TIP3   OH238858   0.845   6.112   8.922  0.2353  0.4088 -0.0093
 4888TIP3    H138859   0.932   6.128   8.886  1.2528 -2.2546  0.9870
 4888TIP3    H238860   0.857   6.117   9.017 -0.8198  0.4575  0.1328
 4889TIP3   OH238861   6.778   6.884   6.467 -0.1785  0.3952  0.3585
 4889TIP3    H138862   6.692   6.842   6.460  0.5194 -0.8302 -1.7247
 4889TIP3    H238863   6.796   6.885   6.561 -2.1083 -0.0760  0.7793
 4890TIP3   OH238864   7.029   2.186   8.350  0.9405 -0.0388  0.1022
 4890TIP3    H138865   6.970   2.184   8.426  0.3116 -1.8378 -0.3732
 4890TIP3    H238866   7.015   2.101   8.307  2.8323  0.0763 -0.8442
 4891TIP3   OH238867   0.315   5.760   1.380 -0.1945  0.1171 -0.0098
 4891TIP3    H138868   0.342   5.829   1.319 -0.3303  0.3670  0.2129
 4891TIP3    H238869   0.220   5.753   1.369 -0.3063  0.5897  0.6166
 4892TIP3   OH238870   0.471   2.758   8.295  0.8620  0.3059  0.1576
 4892TIP3    H138871   0.511   2.676   8.322  1.3666  1.0670  1.9354
 4892TIP3    H238872   0.379   2.749   8.319  0.5062 -0.4138 -1.3865
 4893TIP3   OH238873   0.947   4.089   7.920 -0.9029 -0.1815 -0.1991
 4893TIP3    H138874   1.034   4.112   7.888 -0.8340  0.2776  0.3137
 4893TIP3    H238875   0.921   4.014   7.867 -0.0636 -0.5189 -0.1452
 4894TIP3   OH238876   6.770   0.757   0.033  0.2297  0.4149  0.2588
 4894TIP3    H138877   6.718   0.692   0.080  0.4646  0.5679  0.7432
 4894TIP3    H238878   6.736   0.841   0.064  2.0436  0.5552  2.1134
 4895TIP3   OH238879   0.603   3.542   0.160 -0.0887 -0.0529 -0.3680
 4895TIP3    H138880   0.652   3.491   0.225 -0.4081 -0.7944 -0.7066
 4895TIP3    H238881   0.517   3.556   0.200 -0.4472 -0.9107 -0.8046
 4896TIP3   OH238882   6.129   4.892   8.499  0.5386 -0.1960  0.2136
 4896TIP3    H138883   6.219   4.916   8.522  0.6930 -2.1983  2.0039
 4896TIP3    H238884   6.075   4.954   8.549  0.9501 -0.8222  1.5016
 4897TIP3   OH238885   6.917   3.877   7.865 -0.3174  0.2155 -0.5025
 4897TIP3    H138886   6.851   3.823   7.910  0.4667  0.7850  1.4007
 4897TIP3    H238887   6.982   3.813   7.834  0.1104 -0.0683  0.8913
 4898TIP3   OH238888   5.826   2.092   8.791 -0.3784 -0.0688  0.5716
 4898TIP3    H138889   5.883   2.155   8.747 -1.2589  0.6003  0.3829
 4898TIP3    H238890   5.739   2.132   8.789 -0.8172 -0.9758  1.0668
 4899TIP3   OH238891   2.441   4.795   3.096  0.1997  0.7523 -0.5130
 4899TIP3    H138892   2.517   4.763   3.145 -0.3404  0.7267  0.3359
 4899TIP3    H238893   2.445   4.890   3.103 -0.8223  0.7196  1.1218
 4900TIP3   OH238894   1.583   2.824   1.592 -0.5608  0.5716  0.5826
 4900TIP3    H138895   1.496   2.802   1.559 -1.3631  0.2371  2.7471
 4900TIP3    H238896   1.607   2.750   1.648  0.7914  1.0269  0.6435
 4901TIP3   OH238897   4.476   1.102   8.726  0.3395  0.1236  0.0783
 4901TIP3    H138898   4.453   1.019   8.685  2.1965 -0.3315 -0.1184
 4901TIP3    H238899   4.393   1.137   8.758 -0.5529 -1.5225 -0.3517
 4902TIP3   OH238900   2.170   5.989   8.365 -0.3906 -0.1033  0.1307
 4902TIP3    H138901   2.234   6.021   8.427  1.2420 -0.5244 -1.2572
 4902TIP3    H238902   2.101   5.950   8.419  0.9385 -0.4198  1.6735
 4903TIP3   OH238903   1.363   0.510   8.249  0.0182  0.0997  0.6949
 4903TIP3    H138904   1.295   0.474   8.305 -0.0413 -3.9161 -1.5739
 4903TIP3    H238905   1.443   0.464   8.276  0.8217  1.1593  0.1748
 4904TIP3   OH238906   3.441   2.467   8.650  0.3937 -0.2376  0.0635
 4904TIP3    H138907   3.472   2.483   8.739  0.0371 -2.0053  0.5454
 4904TIP3    H238908   3.516   2.426   8.606 -0.1685 -1.5775  0.2940
 4905TIP3   OH238909   2.127   5.753   6.748 -0.2681 -0.2054 -0.5467
 4905TIP3    H138910   2.115   5.658   6.748 -1.9229 -0.0371  0.5355
 4905TIP3    H238911   2.040   5.788   6.767 -0.0117  1.6133 -2.4653
 4906TIP3   OH238912   2.745   7.387   8.782 -0.6419  0.1333  0.0403
 4906TIP3    H138913   2.750   7.305   8.731 -1.5765  0.1013 -0.0178
 4906TIP3    H238914   2.834   7.423   8.777 -0.5901 -0.1190 -1.2088
 4907TIP3   OH238915   6.493   6.343   1.224  0.3785 -0.4649 -0.0153
 4907TIP3    H138916   6.504   6.255   1.186  0.2629 -0.1247 -0.8501
 4907TIP3    H238917   6.399   6.358   1.221  0.2786 -0.7555  1.1662
 4908TIP3   OH238918   6.212   1.973   9.500  0.0524 -0.2302  0.2253
 4908TIP3    H138919   6.132   1.926   9.522 -0.1238 -0.1584 -0.2493
 4908TIP3    H238920   6.186   2.032   9.428  0.7807 -1.0013 -0.6946
 4909TIP3   OH238921   5.436   6.828   0.011 -0.0247 -0.2683  0.0221
 4909TIP3    H138922   5.516   6.842  -0.040  0.2056  1.0052  0.6912
 4909TIP3    H238923   5.463   6.776   0.086 -0.1705 -1.3045 -0.6369
 4910TIP3   OH238924   1.365   0.827   7.630 -0.2619 -0.0894  0.4605
 4910TIP3    H138925   1.346   0.809   7.538  1.1360 -2.4971  0.5695
 4910TIP3    H238926   1.327   0.914   7.646 -3.2874 -0.9051 -1.5135
 4911TIP3   OH238927   3.219   2.297   8.770 -0.0826  0.1994 -0.8775
 4911TIP3    H138928   3.280   2.355   8.724 -0.0902  0.5026 -0.5063
 4911TIP3    H238929   3.250   2.209   8.749 -0.9249  0.2741 -2.6516
 4912TIP3   OH238930   5.941   4.593   8.731 -0.0069 -0.5054  0.3007
 4912TIP3    H138931   5.874   4.657   8.756  3.9989  3.7235  1.5173
 4912TIP3    H238932   5.938   4.592   8.635 -2.3748 -1.3197  0.3127
 4913TIP3   OH238933   4.127   4.065   9.465  0.0014  0.4575  0.1655
 4913TIP3    H138934   4.040   4.103   9.468  0.4227  1.3883  1.1052
 4913TIP3    H238935   4.141   4.043   9.373 -2.0769 -1.7880  0.2939
 4914TIP3   OH238936   1.555   1.112   7.377 -0.0009 -0.0981 -0.4815
 4914TIP3    H138937   1.568   1.067   7.460  0.5543 -1.8093 -1.4380
 4914TIP3    H238938   1.644   1.126   7.344 -0.1602  1.7516 -0.2246
 4915TIP3   OH238939   5.581   4.705   8.968  0.1624  0.1562  0.1578
 4915TIP3    H138940   5.518   4.655   8.916 -1.5748  0.3135  2.0059
 4915TIP3    H238941   5.527   4.760   9.025  1.9827  0.4418  1.6915
 4916TIP3   OH238942   6.026   5.327   1.466  0.0465 -0.0040 -0.2110
 4916TIP3    H138943   5.961   5.391   1.436 -1.5503 -1.6277 -0.4341
 4916TIP3    H238944   6.055   5.284   1.385  0.5184 -0.0827 -0.0004
 4917TIP3   OH238945   1.545   2.260   6.775  0.0906 -0.0570 -0.3376
 4917TIP3    H138946   1.480   2.307   6.722  1.8598  1.0250 -1.6637
 4917TIP3    H238947   1.623   2.316   6.772  1.4935 -1.8927  0.1240
 4918TIP3   OH238948   0.957   6.081   9.209 -0.4626 -1.2695  0.2710
 4918TIP3    H138949   0.967   6.031   9.289  2.9655 -0.5830  0.4231
 4918TIP3    H238950   1.043   6.121   9.194 -1.5867  0.4510 -2.5495
 4919TIP3   OH238951   1.921   6.899   8.574 -0.1459 -0.7502 -0.0899
 4919TIP3    H138952   1.845   6.958   8.569 -0.8778 -1.7404 -1.2542
 4919TIP3    H238953   1.943   6.897   8.667 -2.5878 -1.6654  0.5655
 4920TIP3   OH238954   3.889   0.469   0.311  0.0096 -0.1412 -0.0551
 4920TIP3    H138955   3.944   0.533   0.265 -0.0304  0.0809  0.2035
 4920TIP3    H238956   3.815   0.521   0.345  2.1716  0.6901  4.1082
 4921TIP3   OH238957   4.363   3.667   8.728 -0.2037  0.0830 -0.0378
 4921TIP3    H138958   4.347   3.744   8.783 -1.4453 -1.5236  2.0066
 4921TIP3    H238959   4.309   3.598   8.767 -0.3908 -1.4488 -2.7344
 4922TIP3   OH238960   1.865   6.235   9.568  0.1646  0.4207  0.2036
 4922TIP3    H138961   1.782   6.195   9.544  0.2663  0.3827 -0.0831
 4922TIP3    H238962   1.898   6.273   9.487  0.0902  1.0477  0.4617
 4923TIP3   OH238963   1.161   3.214   1.839 -0.1068 -0.5411 -0.5032
 4923TIP3    H138964   1.208   3.210   1.923  0.6567 -1.4151 -0.9553
 4923TIP3    H238965   1.207   3.152   1.783  0.0819  0.8191 -1.9264
 4924TIP3   OH238966   1.380   2.393   7.119  0.3284  0.0471  0.1565
 4924TIP3    H138967   1.314   2.462   7.118 -0.9160 -1.0790 -1.0361
 4924TIP3    H238968   1.463   2.438   7.105 -0.5049  1.2733 -1.1422
 4925TIP3   OH238969   5.309   6.544   9.004  0.0616 -0.1152  0.1281
 4925TIP3    H138970   5.248   6.474   9.029  1.4772 -1.3435  0.2977
 4925TIP3    H238971   5.347   6.573   9.087 -0.9768  1.3621  0.1320
 4926TIP3   OH238972   5.500   1.328   2.360 -0.3280  0.2691 -0.1219
 4926TIP3    H138973   5.432   1.372   2.413 -0.0530  1.1123 -0.4488
 4926TIP3    H238974   5.494   1.371   2.275  2.1557  2.0594  0.4733
 4927TIP3   OH238975   0.771   1.969   7.585 -0.2343 -0.1483  0.6473
 4927TIP3    H138976   0.797   2.033   7.519  0.6938 -0.6821  0.4704
 4927TIP3    H238977   0.828   1.986   7.659 -1.1364  0.3160  1.2436
 4928TIP3   OH238978   5.430   3.589   7.254 -0.0449  0.1453 -0.1905
 4928TIP3    H138979   5.401   3.500   7.273  0.5741 -0.2482 -1.0078
 4928TIP3    H238980   5.442   3.591   7.159 -0.8152  1.3428 -0.2875
 4929TIP3   OH238981   1.282   5.208   0.598  0.4816  0.0377 -0.2993
 4929TIP3    H138982   1.296   5.180   0.508  0.6700 -0.2822 -0.1704
 4929TIP3    H238983   1.353   5.270   0.615  2.0401 -1.8517  0.4727
 4930TIP3   OH238984   5.145   7.267   2.492  0.1454  0.2637  0.2208
 4930TIP3    H138985   5.207   7.323   2.538 -0.7594  1.5313 -0.0430
 4930TIP3    H238986   5.190   7.241   2.412  0.2714  1.3622 -0.0786
 4931TIP3   OH238987   0.917   6.840   2.157 -0.5148 -0.1646 -0.3348
 4931TIP3    H138988   0.889   6.752   2.132 -4.1918  1.1595 -1.4672
 4931TIP3    H238989   0.994   6.857   2.103 -0.5688 -2.1511 -1.1223
 4932TIP3   OH238990   1.860   6.541   8.023  0.2206  0.1794 -0.4930
 4932TIP3    H138991   1.834   6.469   8.079  2.2643 -0.6740 -0.5551
 4932TIP3    H238992   1.786   6.601   8.025 -0.5479 -0.7488  1.5400
 4933TIP3   OH238993   6.009   7.380   8.009 -0.1317  0.0109 -0.1938
 4933TIP3    H138994   5.991   7.472   7.987 -0.1753  0.0513  0.0067
 4933TIP3    H238995   6.071   7.385   8.082  0.9988 -0.1255 -1.1156
 4934TIP3   OH238996   1.129   1.169   2.382 -0.2272  0.2442 -0.2362
 4934TIP3    H138997   1.044   1.160   2.340 -0.6389 -1.5159  0.8665
 4934TIP3    H238998   1.134   1.261   2.407 -1.5588  0.4889 -0.8108
 4935TIP3   OH238999   7.023   5.101   7.466 -0.1589 -0.0914  0.2122
 4935TIP3    H139000   6.956   5.163   7.439  0.7471  1.3568  1.1075
 4935TIP3    H239001   7.099   5.122   7.411 -0.1884 -1.1798 -0.2591
 4936TIP3   OH239002   3.154   4.395   0.502 -0.1768 -0.1250 -0.4498
 4936TIP3    H139003   3.194   4.480   0.487 -2.4310  1.1196  0.1128
 4936TIP3    H239004   3.210   4.353   0.567  0.3813  1.3818  0.0886
 4937TIP3   OH239005   2.423   5.418   0.199  0.1285  0.0059 -0.2679
 4937TIP3    H139006   2.368   5.340   0.198  1.8635 -1.2836  0.1773
 4937TIP3    H239007   2.431   5.440   0.292  0.9396 -0.2568 -0.2717
 4938TIP3   OH239008   4.980   6.940   7.980 -0.4560  0.2122  0.1616
 4938TIP3    H139009   4.885   6.948   7.970 -0.1647  2.9209 -1.1496
 4938TIP3    H239010   5.015   6.955   7.892  1.2702  2.0469  1.0862
 4939TIP3   OH239011   4.188   2.749   7.264  0.1230  0.0572 -0.0954
 4939TIP3    H139012   4.220   2.833   7.296 -0.4329  0.3190 -0.2233
 4939TIP3    H239013   4.104   2.769   7.223 -0.1801 -0.6158  0.1872
 4940TIP3   OH239014   0.116   0.300   2.637 -0.1059 -0.3276 -0.0708
 4940TIP3    H139015   0.164   0.383   2.624 -0.8682  0.0308 -0.7160
 4940TIP3    H239016   0.075   0.309   2.722  0.5748 -0.4367  0.2744
 4941TIP3   OH239017   1.734   0.150   2.372  0.5079  0.3958  0.1718
 4941TIP3    H139018   1.692   0.214   2.316  0.3027 -0.7969 -1.0914
 4941TIP3    H239019   1.662   0.108   2.419  0.4696 -0.1211 -0.3372
 4942TIP3   OH239020   2.921   2.425   6.938 -0.0002  0.7011  0.3382
 4942TIP3    H139021   2.964   2.505   6.970 -1.0399  1.3623  0.1266
 4942TIP3    H239022   2.984   2.356   6.956  0.5221  1.4240  1.4511
 4943TIP3   OH239023   6.730   4.621   0.816  0.3795  0.0869  0.0826
 4943TIP3    H139024   6.767   4.611   0.904  1.1492  0.1596 -0.2282
 4943TIP3    H239025   6.637   4.600   0.827  0.1813  1.4363  1.1741
 4944TIP3   OH239026   5.910   4.706   8.477  0.3471 -0.5847  0.0831
 4944TIP3    H139027   5.948   4.623   8.450  0.5170 -0.2379 -0.7604
 4944TIP3    H239028   5.984   4.760   8.504  0.1719 -0.9624  1.3792
 4945TIP3   OH239029   4.282   2.816   0.389  0.6166  0.1123  0.4595
 4945TIP3    H139030   4.316   2.891   0.339  0.9930 -0.8424 -0.7616
 4945TIP3    H239031   4.217   2.854   0.447 -0.1314  1.2268 -1.0337
 4946TIP3   OH239032   1.440   4.158   8.016 -0.0475 -0.0932  0.0992
 4946TIP3    H139033   1.478   4.070   8.025 -0.1928 -0.2098 -0.3637
 4946TIP3    H239034   1.511   4.210   7.978  0.8727  0.6263  2.6430
 4947TIP3   OH239035   5.610   2.206   0.410  0.2913  0.2662  0.4103
 4947TIP3    H139036   5.680   2.241   0.465  1.7723  0.1042 -1.2565
 4947TIP3    H239037   5.657   2.159   0.340 -1.4742  0.2936 -0.8542
 4948TIP3   OH239038   2.912   4.563   6.752  0.0489 -0.2698 -0.1840
 4948TIP3    H139039   2.889   4.472   6.771  1.1251 -0.0616  2.4699
 4948TIP3    H239040   3.006   4.562   6.735 -0.0242  0.3048 -0.6782
 4949TIP3   OH239041   1.561   2.883   8.688  0.6049  0.2559 -0.0244
 4949TIP3    H139042   1.502   2.808   8.683 -0.4086  1.0108  0.3261
 4949TIP3    H239043   1.542   2.922   8.773 -1.0779  2.6658 -1.3926
 4950TIP3   OH239044   3.556   5.084   0.070 -0.4379 -0.3980 -0.4051
 4950TIP3    H139045   3.635   5.134   0.047 -1.6932  1.8788 -0.0682
 4950TIP3    H239046   3.543   5.025  -0.004  1.7952 -1.1764 -0.2658
 4951TIP3   OH239047   1.336   0.130   3.198 -0.2999 -0.1708  0.6839
 4951TIP3    H139048   1.419   0.123   3.150 -0.4188 -0.2625  0.4930
 4951TIP3    H239049   1.327   0.224   3.217 -0.5035 -0.0663  0.0858
 4952TIP3   OH239050   1.433   5.329   9.280 -0.1310 -0.2321  0.3179
 4952TIP3    H139051   1.443   5.311   9.373  1.4351  0.4876  0.3165
 4952TIP3    H239052   1.405   5.421   9.276 -1.1057 -0.5212  0.0862
 4953TIP3   OH239053   0.743   0.121   8.154 -0.5331  0.4812 -0.7015
 4953TIP3    H139054   0.788   0.202   8.178  0.0824 -0.1152  0.2244
 4953TIP3    H239055   0.666   0.119   8.212  1.6750 -1.6456  2.4843
 4954TIP3   OH239056   4.825   6.071   9.317 -0.3918 -0.6754  0.1753
 4954TIP3    H139057   4.836   5.976   9.326 -0.6529 -0.7439 -0.2484
 4954TIP3    H239058   4.777   6.082   9.236  2.8720  0.0193 -1.8584
 4955TIP3   OH239059   5.616   5.277   9.147 -0.3892 -0.2377  0.3238
 4955TIP3    H139060   5.621   5.372   9.153  1.4541 -0.2583 -0.3235
 4955TIP3    H239061   5.609   5.258   9.054 -2.4417 -0.7300  0.5232
 4956TIP3   OH239062   3.974   5.149   6.679  0.1976 -0.5401  0.2640
 4956TIP3    H139063   3.889   5.187   6.703  0.2696 -1.3797  2.0137
 4956TIP3    H239064   4.027   5.225   6.655 -0.2700  0.2938  1.6971
 4957TIP3   OH239065   3.989   4.566   8.193  0.0602 -0.2917 -0.2309
 4957TIP3    H139066   3.945   4.493   8.237  0.4433 -1.8156 -2.2051
 4957TIP3    H239067   3.919   4.609   8.144  0.1991 -0.8184 -0.9184
 4958TIP3   OH239068   5.800   2.459   8.171  0.1663 -0.1861 -0.0903
 4958TIP3    H139069   5.891   2.485   8.158  0.1050  0.5899  0.9491
 4958TIP3    H239070   5.804   2.364   8.186  0.7405 -0.2380 -0.5620
 4959TIP3   OH239071   2.547   1.673   0.841  0.1519 -0.0739  0.0540
 4959TIP3    H139072   2.642   1.673   0.841  0.2043  2.1753  0.8790
 4959TIP3    H239073   2.523   1.728   0.766 -0.5455 -1.3610 -0.7035
 4960TIP3   OH239074   4.936   0.142   0.347  0.0149  0.4219 -0.3039
 4960TIP3    H139075   5.015   0.193   0.363 -1.7068  2.1758  4.1298
 4960TIP3    H239076   4.931   0.080   0.420 -1.2965 -1.7163 -2.0680
 4961TIP3   OH239077   4.383   5.762   0.137  0.6793  0.4012  0.4387
 4961TIP3    H139078   4.311   5.769   0.200 -0.3462 -0.7716 -0.5527
 4961TIP3    H239079   4.461   5.784   0.188 -0.2096  0.3211  1.9074
 4962TIP3   OH239080   0.898   5.099   9.302 -0.0096  0.3259 -0.3811
 4962TIP3    H139081   0.822   5.133   9.348 -0.0315  2.7738 -2.0591
 4962TIP3    H239082   0.973   5.147   9.338  0.5323 -0.7007 -0.0774
 4963TIP3   OH239083   0.514   5.065   7.176 -0.9107 -0.2326 -0.6400
 4963TIP3    H139084   0.540   5.000   7.111  0.7972 -1.5271  1.2038
 4963TIP3    H239085   0.424   5.042   7.198 -1.1569 -0.4157 -1.7463
 4964TIP3   OH239086   3.440   3.589   2.318 -0.3687  0.2401 -0.7094
 4964TIP3    H139087   3.458   3.532   2.393 -0.1546  1.1404 -0.0597
 4964TIP3    H239088   3.347   3.575   2.299 -1.1810  2.0225  1.5043
 4965TIP3   OH239089   2.186   7.177   0.274  0.0024 -0.0952  0.0491
 4965TIP3    H139090   2.179   7.177   0.370  0.2724 -0.5508  0.0706
 4965TIP3    H239091   2.109   7.130   0.244  0.0777 -0.2224  0.0552
 4966TIP3   OH239092   4.063   2.427   0.862  0.3938  0.2489 -0.0407
 4966TIP3    H139093   3.984   2.463   0.901  1.0905  1.4009  0.3711
 4966TIP3    H239094   4.036   2.395   0.776 -0.9497 -1.3770  0.9295
 4967TIP3   OH239095   5.377   7.215   2.292  0.4618 -0.3726 -0.3278
 4967TIP3    H139096   5.395   7.139   2.347  1.0470  0.3746  0.5419
 4967TIP3    H239097   5.308   7.185   2.232 -1.6801 -0.6431  2.0888
 4968TIP3   OH239098   0.818   1.334   8.046  0.9904  0.3321 -0.1079
 4968TIP3    H139099   0.897   1.312   8.095 -0.1342 -1.6606  0.9324
 4968TIP3    H239100   0.803   1.426   8.065  2.5096  0.4896  0.4699
 4969TIP3   OH239101   5.062   3.638   9.473  0.4841  0.2699 -0.2131
 4969TIP3    H139102   5.104   3.666   9.554  2.7605 -0.1361 -1.1670
 4969TIP3    H239103   4.974   3.675   9.477  0.8269  0.9701  2.0347
 4970TIP3   OH239104   4.458   6.149   7.419  0.2012  0.1719 -0.2241
 4970TIP3    H139105   4.512   6.198   7.357  1.2465 -0.2929  0.3070
 4970TIP3    H239106   4.385   6.208   7.438  0.7365  0.9846 -0.6156
 4971TIP3   OH239107   1.116   7.283   0.170  0.4625  0.0059 -0.4663
 4971TIP3    H139108   1.079   7.370   0.184  2.6885  0.8837  0.5728
 4971TIP3    H239109   1.195   7.299   0.118  1.9087 -1.0957  1.2718
 4972TIP3   OH239110   0.686   0.053   6.754  0.3649 -0.5740  0.3133
 4972TIP3    H139111   0.600   0.013   6.766  0.8069 -1.4358  0.6959
 4972TIP3    H239112   0.748  -0.017   6.774  1.1581 -0.0359 -0.1950
 4973TIP3   OH239113   7.206   4.699   3.102  0.2568 -0.1467  0.4027
 4973TIP3    H139114   7.132   4.676   3.047  1.3287 -1.2455 -0.6263
 4973TIP3    H239115   7.191   4.650   3.183  1.5573 -3.2370 -1.0721
 4974TIP3   OH239116   5.362   5.381   9.288  0.4064 -0.1634 -0.4451
 4974TIP3    H139117   5.304   5.346   9.357  0.0552  0.1688 -0.5686
 4974TIP3    H239118   5.418   5.307   9.265  0.0857 -0.4701 -0.2651
 4975TIP3   OH239119   6.120   4.773   7.167 -0.2190  0.1874 -0.3706
 4975TIP3    H139120   6.138   4.802   7.078 -0.5726 -0.8942 -0.8101
 4975TIP3    H239121   6.078   4.688   7.157  1.5851 -0.9423  0.8833
 4976TIP3   OH239122   2.324   2.145   7.662 -0.5148  0.1667  0.3231
 4976TIP3    H139123   2.235   2.178   7.679 -0.1856  1.0134  0.4375
 4976TIP3    H239124   2.369   2.218   7.620 -0.1562 -0.5986 -0.6527
 4977TIP3   OH239125   3.047   5.839   2.202  0.0421 -0.3383  0.1961
 4977TIP3    H139126   3.001   5.773   2.253  0.9527 -0.4781  0.8530
 4977TIP3    H239127   3.139   5.828   2.225  0.1931  1.2709  0.4399
 4978TIP3   OH239128   0.637   7.058   8.986  0.1934  0.1896 -0.1059
 4978TIP3    H139129   0.591   7.042   8.904  0.5439 -0.7221 -0.1356
 4978TIP3    H239130   0.647   7.153   8.990 -0.6891  0.3107 -0.6352
 4979TIP3   OH239131   3.401   4.408   7.073  0.7431 -0.0309  0.5612
 4979TIP3    H139132   3.467   4.348   7.109  0.4342 -0.9494 -0.3432
 4979TIP3    H239133   3.406   4.394   6.979  0.6958  1.4369  0.3191
 4980TIP3   OH239134   0.349   5.210   9.577 -0.7081  0.2450 -0.0056
 4980TIP3    H139135   0.255   5.226   9.587 -0.7241 -0.1835  0.6646
 4980TIP3    H239136   0.358   5.170   9.491 -1.2094 -0.1368  0.1119
 4981TIP3   OH239137   6.855   0.235   2.742 -0.5173  0.2650  0.4457
 4981TIP3    H139138   6.800   0.258   2.817 -0.7627 -0.1858  0.4074
 4981TIP3    H239139   6.802   0.174   2.691  0.4949 -1.1846  1.0739
 4982TIP3   OH239140   0.124   6.306   0.705 -0.1165 -0.0557 -0.2757
 4982TIP3    H139141   0.075   6.364   0.647  1.3258  0.3631 -1.1282
 4982TIP3    H239142   0.200   6.359   0.733  1.6711 -1.7240 -1.7125
 4983TIP3   OH239143   3.613   5.340   7.877 -0.1062 -0.0610  0.4408
 4983TIP3    H139144   3.585   5.249   7.886  1.1116 -0.5441 -0.4956
 4983TIP3    H239145   3.687   5.337   7.817  2.0337  1.1420  2.8551
 4984TIP3   OH239146   1.249   3.453   1.758 -0.3852 -0.4835  0.1346
 4984TIP3    H139147   1.230   3.365   1.789  1.4860 -0.3448  1.8986
 4984TIP3    H239148   1.185   3.509   1.801 -0.3014 -0.7650  0.6368
 4985TIP3   OH239149   7.280   7.050   9.176 -0.2030  0.3699  0.8229
 4985TIP3    H139150   7.252   7.135   9.140 -4.5006 -0.2004  2.2644
 4985TIP3    H239151   7.260   6.987   9.107  3.4865  0.3796 -0.4592
 4986TIP3   OH239152   0.425   5.457   0.688  0.1948  0.5579 -0.4780
 4986TIP3    H139153   0.488   5.526   0.706  1.4905 -0.5614 -0.5329
 4986TIP3    H239154   0.441   5.391   0.756  0.3731 -0.5664 -1.5621
 4987TIP3   OH239155   3.391   5.377   2.579 -0.4738  0.2448 -0.1487
 4987TIP3    H139156   3.321   5.435   2.609 -0.1749  0.5500 -0.0272
 4987TIP3    H239157   3.392   5.306   2.644 -0.4285  0.4312  0.0562
 4988TIP3   OH239158   1.508   1.992   0.977  0.0251  0.1528 -0.0976
 4988TIP3    H139159   1.497   1.914   0.923 -0.0901 -0.5852  0.9724
 4988TIP3    H239160   1.505   1.960   1.067  0.0537  1.3825  0.3582
 4989TIP3   OH239161   3.297   4.917   1.607 -0.4213  0.2646 -0.0646
 4989TIP3    H139162   3.386   4.947   1.629 -0.9100  1.2051  0.7104
 4989TIP3    H239163   3.255   4.993   1.569 -0.6396 -0.4319 -1.2685
 4990TIP3   OH239164   5.040   4.414   0.816  0.1150  0.1075  0.2308
 4990TIP3    H139165   5.026   4.370   0.732 -1.3272 -0.9357  0.9974
 4990TIP3    H239166   5.121   4.464   0.803 -0.1041  0.0083 -1.7878
 4991TIP3   OH239167   6.835   1.789   2.184  0.4971  0.2646 -0.2017
 4991TIP3    H139168   6.762   1.838   2.221  1.1459  1.1013  0.0173
 4991TIP3    H239169   6.886   1.761   2.260  1.3819  1.2726 -0.3891
 4992TIP3   OH239170   1.401   0.840   1.499 -0.1938  0.2607 -0.1430
 4992TIP3    H139171   1.404   0.755   1.455  1.4661 -0.3053  0.9757
 4992TIP3    H239172   1.309   0.851   1.522 -0.4721 -1.1468 -0.4810
 4993TIP3   OH239173   1.697   6.637   1.804 -0.5745 -0.2467  0.1174
 4993TIP3    H139174   1.605   6.634   1.776 -0.9040 -0.9266  1.2092
 4993TIP3    H239175   1.694   6.681   1.889  0.0247 -0.9367  0.4986
 4994TIP3   OH239176   6.667   1.852   8.295  0.0456  0.1611  0.2346
 4994TIP3    H139177   6.628   1.898   8.222  0.7820 -0.9864 -0.9260
 4994TIP3    H239178   6.673   1.761   8.266  0.5800 -0.2771  1.6228
 4995TIP3   OH239179   0.019   6.640   9.101 -0.1166  0.3174 -0.3193
 4995TIP3    H139180   0.094   6.679   9.056 -0.1267  0.8622  0.1309
 4995TIP3    H239181  -0.044   6.712   9.109  0.5334  0.6847  2.0255
 4996TIP3   OH239182   3.767   5.993   1.127  0.0776 -0.3593 -0.3286
 4996TIP3    H139183   3.691   6.002   1.069 -1.3848 -1.0230  1.3887
 4996TIP3    H239184   3.834   5.951   1.072 -1.2427 -0.9854 -1.5366
 4997TIP3   OH239185   2.529   0.626   0.734 -0.4026  0.4020  0.0013
 4997TIP3    H139186   2.603   0.565   0.728  0.0771  1.0926 -1.6192
 4997TIP3    H239187   2.532   0.674   0.652 -3.4696 -0.4264 -0.6952
 4998TIP3   OH239188   1.749   5.339   7.794 -0.0395 -0.1416  0.0997
 4998TIP3    H139189   1.686   5.373   7.858  2.4276  3.6606  0.8796
 4998TIP3    H239190   1.826   5.316   7.846  1.1539  0.6693 -1.2337
 4999TIP3   OH239191   0.806   6.214   8.512  0.7114 -0.0950 -0.0874
 4999TIP3    H139192   0.834   6.303   8.534  0.6299 -0.1324  0.1718
 4999TIP3    H239193   0.775   6.178   8.595  0.0495 -0.1128 -0.3426
 5000TIP3   OH239194   1.525   3.691   0.723  0.0573 -0.5446  0.3694
 5000TIP3    H139195   1.508   3.723   0.635  1.6754 -2.7010 -0.8098
 5000TIP3    H239196   1.581   3.758   0.763 -0.0892  0.0974 -0.4769
 5001TIP3   OH239197   2.128   3.042   1.942 -0.0977  0.1278 -0.6089
 5001TIP3    H139198   2.220   3.020   1.934  0.0275  0.3961  0.0182
 5001TIP3    H239199   2.082   2.975   1.891  0.5173  0.8255 -2.1404
 5002TIP3   OH239200   5.466   3.427   0.910 -0.1329  0.0487  0.1261
 5002TIP3    H139201   5.543   3.372   0.897  0.1832  0.7656 -1.2896
 5002TIP3    H239202   5.501   3.511   0.940 -0.3668  0.3643 -0.4766
 5003TIP3   OH239203   6.267   6.993   8.847  0.4096  0.3455 -0.5736
 5003TIP3    H139204   6.248   7.087   8.844 -0.2657  0.1920 -2.6794
 5003TIP3    H239205   6.182   6.951   8.836  0.7085 -0.5315  0.3399
 5004TIP3   OH239206   4.216   0.690   6.724  0.8981 -0.0017 -0.5435
 5004TIP3    H139207   4.148   0.731   6.777  1.8720  2.3593 -1.0015
 5004TIP3    H239208   4.192   0.709   6.634  0.2467 -2.3928 -0.9374
 5005TIP3   OH239209   0.895   0.854   2.513  0.0936  0.4637  0.3473
 5005TIP3    H139210   0.851   0.781   2.557 -0.0766  0.7047  0.5720
 5005TIP3    H239211   0.924   0.911   2.584  1.8165 -0.2724  0.3036
 5006TIP3   OH239212   3.648   7.262   2.729  0.2058 -0.6373 -0.3511
 5006TIP3    H139213   3.614   7.181   2.766 -2.6202 -0.0760 -1.4595
 5006TIP3    H239214   3.716   7.233   2.667 -0.1586 -2.0809 -0.1178
 5007TIP3   OH239215   0.868   4.724   1.946  0.2904  0.0185  0.0133
 5007TIP3    H139216   0.911   4.679   2.019 -2.7292 -2.2259  0.6085
 5007TIP3    H239217   0.786   4.756   1.984 -0.6063  0.2481 -2.0099
 5008TIP3   OH239218   0.789   2.347   9.138 -0.0432  0.3512 -0.5995
 5008TIP3    H139219   0.867   2.301   9.105 -0.9652 -0.6314 -1.4681
 5008TIP3    H239220   0.777   2.420   9.077  0.8412  1.2009  0.2049
 5009TIP3   OH239221   0.829   6.331   1.930  0.0763  0.6788 -0.5075
 5009TIP3    H139222   0.760   6.265   1.930  0.8930 -0.2113  0.3776
 5009TIP3    H239223   0.897   6.293   1.874  0.9451  0.3138  0.7559
 5010TIP3   OH239224   3.002   4.714   8.042 -0.0961  0.0230 -0.0218
 5010TIP3    H139225   2.997   4.633   8.093 -0.8680 -0.6593 -1.1282
 5010TIP3    H239226   3.003   4.685   7.951 -0.7048  1.2777 -0.4524
 5011TIP3   OH239227   1.295   2.331   9.505  0.0697 -0.4263  0.2614
 5011TIP3    H139228   1.241   2.258   9.537 -0.7817  0.4685  0.9487
 5011TIP3    H239229   1.251   2.358   9.424  1.4557 -1.8283 -1.0318
 5012TIP3   OH239230   3.461   5.348   8.607 -0.4407 -0.5318 -0.5794
 5012TIP3    H139231   3.413   5.306   8.678  1.1604  0.9028  1.4652
 5012TIP3    H239232   3.553   5.337   8.630  0.1053  0.4632 -2.1423
 5013TIP3   OH239233   6.142   4.295   7.649 -0.2039 -0.0319 -0.0838
 5013TIP3    H139234   6.124   4.275   7.557  1.5905  0.8345 -0.6685
 5013TIP3    H239235   6.189   4.378   7.647  1.3260 -0.7892  1.4740
 5014TIP3   OH239236   2.843   3.249   0.933  0.6500 -0.5355 -0.8021
 5014TIP3    H139237   2.852   3.159   0.964 -0.3829 -0.3813 -0.0080
 5014TIP3    H239238   2.809   3.297   1.009  0.7533  0.4305 -1.3544
 5015TIP3   OH239239   6.465   3.300   8.841  0.3903  0.1749 -0.0318
 5015TIP3    H139240   6.433   3.291   8.751  0.0513 -1.6458  0.2304
 5015TIP3    H239241   6.387   3.292   8.895  0.5072  1.8661  0.4437
 5016TIP3   OH239242   1.280   6.939   0.843 -0.3587 -0.2066 -0.4805
 5016TIP3    H139243   1.355   6.998   0.833 -0.1373  0.0722  2.1685
 5016TIP3    H239244   1.304   6.863   0.790  1.2948  0.3452 -0.6085
 5017TIP3   OH239245   4.577   7.051   0.954  0.1887 -0.1369 -0.2112
 5017TIP3    H139246   4.500   7.007   0.989  0.0434 -0.9851 -1.5106
 5017TIP3    H239247   4.648   6.987   0.963  0.2521 -0.1854 -0.9738
 5018TIP3   OH239248   5.826   1.097   1.695 -0.3478  0.1474 -0.3947
 5018TIP3    H139249   5.878   1.020   1.672 -0.4996  0.1151 -0.6358
 5018TIP3    H239250   5.890   1.167   1.705 -0.4448  0.7179 -3.1737
 5019TIP3   OH239251   1.307   4.112   7.599 -0.6450 -0.0639 -0.0354
 5019TIP3    H139252   1.324   4.056   7.523 -1.1326 -1.3095  0.7448
 5019TIP3    H239253   1.308   4.201   7.564 -0.6649 -0.6027 -1.4649
 5020TIP3   OH239254   0.566   4.073   9.199  0.1656  0.1474  0.4206
 5020TIP3    H139255   0.476   4.100   9.183  0.3939  0.5435 -0.2207
 5020TIP3    H239256   0.617   4.120   9.134  0.7517 -0.6712  0.2822
 5021TIP3   OH239257   6.333   4.542   0.601 -0.5349 -0.1142  0.2240
 5021TIP3    H139258   6.298   4.566   0.515 -0.5004 -1.7866 -0.2862
 5021TIP3    H239259   6.273   4.584   0.663 -1.8196 -0.6198 -0.6237
 5022TIP3   OH239260   5.336   0.060   2.976 -0.3251 -0.1711  0.3426
 5022TIP3    H139261   5.340   0.122   2.903  0.2779 -0.4516  0.1351
 5022TIP3    H239262   5.258   0.007   2.957  0.0955 -0.5643 -0.3723
 5023TIP3   OH239263   6.248   1.418   8.474 -0.1983  0.3458  0.2151
 5023TIP3    H139264   6.216   1.344   8.526 -0.7540  1.2723  1.2293
 5023TIP3    H239265   6.246   1.387   8.384  0.0329 -1.0344  0.6591
 5024TIP3   OH239266   2.315   5.803   2.400 -0.0011 -0.0598 -0.3192
 5024TIP3    H139267   2.247   5.774   2.461  0.5532  0.3848  0.5232
 5024TIP3    H239268   2.343   5.723   2.356  0.4223 -0.5909  0.8637
 5025TIP3   OH239269   6.062   0.590   2.046  0.3163  0.1235 -0.5365
 5025TIP3    H139270   6.153   0.570   2.064 -0.1731 -1.5219  0.3031
 5025TIP3    H239271   6.022   0.603   2.132 -0.0809  1.7199 -0.9292
 5026TIP3   OH239272   7.291   0.002   2.302 -0.4810  0.2518 -0.2919
 5026TIP3    H139273   7.329  -0.086   2.307 -0.9669  0.1077  1.1305
 5026TIP3    H239274   7.238   0.000   2.222 -1.0112 -0.9733  0.0608
 5027TIP3   OH239275   2.894   1.545   9.049  0.0886  0.3849 -0.1643
 5027TIP3    H139276   2.903   1.475   8.985  0.5834 -0.2167  0.5455
 5027TIP3    H239277   2.823   1.600   9.016 -1.4547 -1.3616  0.1116
 5028TIP3   OH239278   6.651   2.907   8.699 -0.0222 -0.3659 -0.1060
 5028TIP3    H139279   6.687   2.989   8.735  0.2313 -0.5030 -0.0444
 5028TIP3    H239280   6.574   2.889   8.752  1.1493 -1.3400  1.3579
 5029TIP3   OH239281   2.871   7.372   6.970  0.2473 -0.2821  0.6001
 5029TIP3    H139282   2.843   7.464   6.973 -2.2426 -0.9765  2.5007
 5029TIP3    H239283   2.821   7.334   6.897 -0.0404 -0.4620  0.8855
 5030TIP3   OH239284   1.248   1.166   8.400  0.0454  0.8055  0.1439
 5030TIP3    H139285   1.277   1.257   8.403  1.1224  0.4431  1.2892
 5030TIP3    H239286   1.325   1.115   8.424 -0.1861 -0.5128 -1.7125
 5031TIP3   OH239287   7.275   2.457   6.931  0.1425 -0.2129 -0.2541
 5031TIP3    H139288   7.284   2.415   7.017  0.2632 -1.4701 -0.8695
 5031TIP3    H239289   7.329   2.536   6.937  0.9744 -0.8271  0.4715
 5032TIP3   OH239290   6.635   6.551   6.872 -0.3797 -0.0733  0.2042
 5032TIP3    H139291   6.692   6.628   6.870  0.8440 -0.9511  0.3315
 5032TIP3    H239292   6.621   6.529   6.780  1.1093 -0.9844  0.1574
 5033TIP3   OH239293   2.989   2.057   8.239 -0.1677 -0.7152  0.7362
 5033TIP3    H139294   3.069   2.012   8.267  0.5162 -0.8914 -1.3156
 5033TIP3    H239295   2.950   1.998   8.174 -0.2029  0.8210 -0.6987
 5034TIP3   OH239296   2.923   5.397   8.799  0.3418 -0.0899 -0.0308
 5034TIP3    H139297   2.908   5.449   8.720  0.5428  0.5964  0.3761
 5034TIP3    H239298   2.854   5.425   8.860  1.9797  1.6284  1.1345
 5035TIP3   OH239299   5.499   2.715   2.155 -0.1685 -0.2080 -0.5152
 5035TIP3    H139300   5.425   2.656   2.168  1.1140 -1.8519 -0.3609
 5035TIP3    H239301   5.495   2.737   2.062  0.0212 -1.5706 -0.8767
 5036TIP3   OH239302   4.690   2.672   7.378 -0.1546  0.1782  0.5276
 5036TIP3    H139303   4.772   2.695   7.335 -0.9697 -2.7399 -3.1985
 5036TIP3    H239304   4.636   2.750   7.370  0.7207  0.6515 -1.4906
 5037TIP3   OH239305   4.811   6.197   7.586  0.2546 -0.2494 -0.6269
 5037TIP3    H139306   4.860   6.245   7.652 -0.1006 -1.2461  0.3773
 5037TIP3    H239307   4.728   6.245   7.579 -0.8584 -1.6610  1.6998
 5038TIP3   OH239308   2.913   2.258   1.893  0.1978  0.3289 -0.6601
 5038TIP3    H139309   2.959   2.177   1.872  0.6574 -0.2026  2.0359
 5038TIP3    H239310   2.977   2.328   1.877 -0.3837  0.2852 -3.5444
 5039TIP3   OH239311   4.723   5.400   8.770 -0.0199 -0.2603 -0.1388
 5039TIP3    H139312   4.789   5.378   8.835 -0.4908 -0.4528  0.2817
 5039TIP3    H239313   4.681   5.316   8.748 -0.0367 -0.1617 -0.4999
 5040TIP3   OH239314   0.738   2.204   1.609  0.0824  0.4950 -0.3901
 5040TIP3    H139315   0.738   2.120   1.655  0.1395  1.2461  1.0529
 5040TIP3    H239316   0.757   2.181   1.518 -3.1796 -1.3955 -0.7636
 5041TIP3   OH239317   4.775   5.780   1.227 -0.2198  0.3879  0.0295
 5041TIP3    H139318   4.859   5.735   1.218  0.2187  1.3211 -0.7081
 5041TIP3    H239319   4.710   5.712   1.210  0.3877 -0.2916  0.3577
 5042TIP3   OH239320   3.491   7.284   0.587  0.2165 -0.0434 -0.3066
 5042TIP3    H139321   3.476   7.342   0.662 -0.7284  0.1817 -0.6564
 5042TIP3    H239322   3.403   7.259   0.557  0.5211  0.9494 -2.1760
 5043TIP3   OH239323   6.918   7.054   2.760 -0.1160  0.2225 -0.2875
 5043TIP3    H139324   6.891   7.135   2.716  0.1177  0.0972 -0.6737
 5043TIP3    H239325   7.013   7.054   2.752 -0.0935  0.0715  0.0014
 5044TIP3   OH239326   6.633   5.019   1.918 -0.0106 -0.3766 -0.2849
 5044TIP3    H139327   6.613   5.069   1.839  0.3535  0.6883  0.2882
 5044TIP3    H239328   6.577   4.941   1.911 -0.9077  0.3082 -0.9653
 5045TIP3   OH239329   1.089   3.519   0.343  0.6759 -0.1467 -0.3605
 5045TIP3    H139330   1.095   3.597   0.399  3.2419 -1.0768  0.7707
 5045TIP3    H239331   1.117   3.550   0.257  0.7442  0.3799 -0.1547
 5046TIP3   OH239332   6.991   1.880   6.796 -0.4522  0.2087  0.1368
 5046TIP3    H139333   7.036   1.797   6.780  1.2806  1.2621 -0.7885
 5046TIP3    H239334   6.905   1.855   6.829  0.3117 -1.9310  0.6586
 5047TIP3   OH239335   0.525   5.903   1.958 -0.2455  0.5292  0.0127
 5047TIP3    H139336   0.555   5.832   1.901  2.0492  0.3140  1.3299
 5047TIP3    H239337   0.491   5.859   2.035  1.0624  0.7859  0.7770
 5048TIP3   OH239338   0.602   4.818   0.081 -0.3701 -0.3427  0.1019
 5048TIP3    H139339   0.659   4.821   0.157 -0.0401  1.0639 -0.1874
 5048TIP3    H239340   0.530   4.878   0.102 -1.5617 -1.7759  0.2952
 5049TIP3   OH239341   5.036   3.692   8.138  0.3071 -0.4031 -0.7078
 5049TIP3    H139342   4.975   3.738   8.079  1.2701 -0.1270 -1.5234
 5049TIP3    H239343   4.980   3.637   8.193 -0.7338  0.4410 -0.8954
 5050TIP3   OH239344   6.638   2.280   0.882 -0.0381 -0.4426  0.0342
 5050TIP3    H139345   6.725   2.302   0.848 -0.0788  0.0438  0.2414
 5050TIP3    H239346   6.581   2.351   0.853 -0.7575 -1.5933 -1.5708
 5051TIP3   OH239347   4.967   5.262   8.969 -0.0124  0.6105  0.1272
 5051TIP3    H139348   5.048   5.227   8.932  1.1075  2.1691  0.9724
 5051TIP3    H239349   4.996   5.311   9.047 -1.3242  3.7345 -1.1941
 5052TIP3   OH239350   4.697   5.931   1.625 -0.1532  0.4992  0.1189
 5052TIP3    H139351   4.786   5.952   1.595  0.1171 -0.0432  0.5368
 5052TIP3    H239352   4.642   5.998   1.583  0.4841  1.0273  0.1019
 5053TIP3   OH239353   6.762   6.933   0.757 -0.2634  0.2654  0.2904
 5053TIP3    H139354   6.725   7.009   0.802  1.2508  1.6105 -0.6036
 5053TIP3    H239355   6.799   6.879   0.827 -3.0248 -0.6904  1.1211
 5054TIP3   OH239356   2.543   4.830   8.420 -0.8389  0.1799 -0.0426
 5054TIP3    H139357   2.540   4.817   8.325 -0.7480  0.0771 -0.0307
 5054TIP3    H239358   2.481   4.765   8.454  0.5741 -1.1492  0.1112
 5055TIP3   OH239359   3.296   3.044   2.682 -0.8154 -0.0612  0.3589
 5055TIP3    H139360   3.226   3.056   2.746 -0.5906 -0.2967  0.6526
 5055TIP3    H239361   3.312   3.132   2.647 -1.5254 -0.0669 -0.0005
 5056TIP3   OH239362   7.383   1.795   2.375 -0.5863 -0.2451  0.0636
 5056TIP3    H139363   7.379   1.732   2.303 -0.2324 -0.0035 -0.1667
 5056TIP3    H239364   7.313   1.767   2.434  0.1231 -1.3597  0.3864
 5057TIP3   OH239365   2.189   3.069   0.135 -0.2681 -0.1023  0.0965
 5057TIP3    H139366   2.259   3.051   0.073  0.0437  0.9247  0.1328
 5057TIP3    H239367   2.232   3.117   0.207 -1.3827  2.8139 -1.0335
 5058TIP3   OH239368   6.072   0.231   9.211  0.1865 -0.1268  0.3920
 5058TIP3    H139369   6.042   0.148   9.247 -0.9312 -0.0343 -0.2706
 5058TIP3    H239370   6.071   0.291   9.285  0.5167 -0.5810  0.7678
 5059TIP3   OH239371   0.252   4.275   2.013 -0.3411 -0.1316  0.0564
 5059TIP3    H139372   0.220   4.364   2.028  0.0731  0.2311 -1.0924
 5059TIP3    H239373   0.191   4.239   1.949  0.2748 -0.1965 -0.4990
 5060TIP3   OH239374   4.216   6.847   0.690 -0.0931  0.0692  0.0299
 5060TIP3    H139375   4.285   6.801   0.737 -1.1430 -3.3343 -1.4601
 5060TIP3    H239376   4.262   6.915   0.640  1.6398  0.3187  1.8280
 5061TIP3   OH239377   7.111   6.600   7.828  0.0548 -0.5983  0.8633
 5061TIP3    H139378   7.123   6.669   7.892 -1.3866  0.6438 -0.1414
 5061TIP3    H239379   7.189   6.604   7.773 -0.3263  0.7066  0.3978
 5062TIP3   OH239380   2.731   2.185   8.051 -0.5109  0.0558 -0.0073
 5062TIP3    H139381   2.712   2.229   8.135  2.1767 -1.2169  1.3772
 5062TIP3    H239382   2.659   2.123   8.040 -3.6845  3.5587 -1.3462
 5063TIP3   OH239383   0.705   2.359   8.182  0.1361  0.1597  0.0466
 5063TIP3    H139384   0.615   2.333   8.204  0.7733 -1.6282  0.7562
 5063TIP3    H239385   0.696   2.445   8.141 -1.8759  0.1051  0.2701
 5064TIP3   OH239386   1.976   3.807   8.732 -0.1681  0.0934 -0.5772
 5064TIP3    H139387   1.945   3.742   8.669 -2.9779  1.0523 -0.3268
 5064TIP3    H239388   1.950   3.772   8.817  1.2716  0.0421 -0.1239
 5065TIP3   OH239389   4.656   2.436   7.719  0.1896  0.1326  0.3696
 5065TIP3    H139390   4.572   2.453   7.762  0.9188  2.2047  1.0996
 5065TIP3    H239391   4.697   2.367   7.771 -0.8354 -0.5564  0.2883
 5066TIP3   OH239392   1.179   6.332   0.798 -0.3109 -0.0727 -0.5387
 5066TIP3    H139393   1.194   6.240   0.780 -1.3604 -0.3004 -0.3127
 5066TIP3    H239394   1.158   6.335   0.891  0.2291  0.4681 -0.4262
 5067TIP3   OH239395   7.233   6.175   1.499 -0.4296 -0.6476  0.9204
 5067TIP3    H139396   7.228   6.234   1.574 -0.2196  1.0755 -0.3425
 5067TIP3    H239397   7.321   6.189   1.463 -1.2854  0.3370 -0.9673
 5068TIP3   OH239398   0.940   5.537   8.598 -0.1120 -0.4102  0.1486
 5068TIP3    H139399   1.032   5.512   8.597  0.3402  1.1393  0.7815
 5068TIP3    H239400   0.896   5.463   8.640  0.8810 -1.0082  0.1634
 5069TIP3   OH239401   5.235   2.830   8.097 -0.1582  0.1392  0.0247
 5069TIP3    H139402   5.182   2.895   8.144  0.2706  0.6017 -0.1188
 5069TIP3    H239403   5.177   2.755   8.087  0.0278 -0.3293  2.0898
 5070TIP3   OH239404   7.406   5.522   2.473  0.3497 -0.0122  0.1352
 5070TIP3    H139405   7.420   5.455   2.406  0.5935 -0.1641  0.3383
 5070TIP3    H239406   7.448   5.488   2.551 -0.2691 -0.0047  0.4748
 5071TIP3   OH239407   5.428   1.987   0.072  0.3655 -0.2859 -0.0522
 5071TIP3    H139408   5.506   1.957   0.119 -0.0760 -2.1423 -0.4351
 5071TIP3    H239409   5.457   1.997  -0.019  0.3190 -0.2942 -0.0679
 5072TIP3   OH239410   2.704   0.981   0.327  0.1207  0.4585  0.2047
 5072TIP3    H139411   2.773   0.969   0.262 -0.3459 -2.5492  0.1005
 5072TIP3    H239412   2.633   0.923   0.298 -0.8570  0.4606  2.3802
 5073TIP3   OH239413   3.908   5.034   8.391  0.4708  0.5021 -0.0573
 5073TIP3    H139414   3.958   4.974   8.335  0.5348  0.1163  0.4111
 5073TIP3    H239415   3.971   5.066   8.454  0.3852  0.9045 -0.1758
 5074TIP3   OH239416   2.590   5.994   7.726 -0.0669 -0.2539  0.6312
 5074TIP3    H139417   2.646   6.051   7.778 -0.0393 -1.4076  1.9299
 5074TIP3    H239418   2.647   5.921   7.700 -0.5560 -0.6250  0.5777
 5075TIP3   OH239419   1.614   2.780   0.777  0.0143 -0.2368  0.1453
 5075TIP3    H139420   1.639   2.721   0.706  0.7589 -0.1180  0.3072
 5075TIP3    H239421   1.684   2.772   0.841  0.3404  1.1551 -0.0287
 5076TIP3   OH239422   3.704   0.114   0.026  0.2013  0.2517 -0.0287
 5076TIP3    H139423   3.692   0.200   0.066  0.7356  0.0730  0.5319
 5076TIP3    H239424   3.615   0.082   0.011 -0.0152  0.2664  1.1457
 5077TIP3   OH239425   4.789   6.079   0.174  0.1516 -0.0744 -0.2915
 5077TIP3    H139426   4.830   6.162   0.150 -1.7830  0.3451 -2.5392
 5077TIP3    H239427   4.855   6.012   0.157  1.3283  0.8714  0.4095
 5078TIP3   OH239428   3.531   3.928   9.505 -0.2499  0.8687 -0.1656
 5078TIP3    H139429   3.554   3.878   9.583 -0.1088  0.0168 -0.7469
 5078TIP3    H239430   3.436   3.941   9.512 -0.4056 -0.1105 -0.3677
 5079TIP3   OH239431   4.818   1.404   1.998  0.1415 -0.7531  0.2587
 5079TIP3    H139432   4.781   1.318   2.017  0.6256 -0.7840  1.0990
 5079TIP3    H239433   4.856   1.395   1.911  0.2436 -1.4113  0.3668
 5080TIP3   OH239434   1.225   2.907   9.258  0.2611  0.4478 -0.2019
 5080TIP3    H139435   1.284   2.872   9.192 -0.1193 -0.6617  0.0135
 5080TIP3    H239436   1.211   2.834   9.319 -0.2925  1.0919  0.4719
 5081TIP3   OH239437   4.053   4.873   8.698 -0.6395 -0.6782  0.1584
 5081TIP3    H139438   4.084   4.905   8.783 -0.1339  0.5658 -0.4701
 5081TIP3    H239439   4.124   4.818   8.666  0.1627  0.6420 -0.4288
 5082TIP3   OH239440   6.431   2.671   8.279  0.1952  0.1824 -0.1067
 5082TIP3    H139441   6.336   2.679   8.287  0.3793  1.1324  1.6414
 5082TIP3    H239442   6.459   2.752   8.237  0.3383  0.3978  0.4040
 5083TIP3   OH239443   6.691   6.985   1.084 -0.2175 -0.4177 -0.2896
 5083TIP3    H139444   6.672   7.049   1.016  0.9720  0.0386 -0.2162
 5083TIP3    H239445   6.679   7.033   1.166  0.6819 -0.2773 -0.2347
 5084TIP3   OH239446   1.592   4.600   9.025 -0.0099 -0.2924  0.2815
 5084TIP3    H139447   1.679   4.637   9.038 -0.1456  0.4934 -0.8955
 5084TIP3    H239448   1.558   4.644   8.947 -1.0309 -1.3821  0.0750
 5085TIP3   OH239449   0.045   6.676   8.295  0.2768  0.3172  0.1520
 5085TIP3    H139450   0.087   6.590   8.298 -0.0674  0.1314 -0.2149
 5085TIP3    H239451  -0.029   6.664   8.234 -0.4034  0.5906  0.9097
 5086TIP3   OH239452   0.091   5.310   0.368  0.6317 -0.4866  0.2659
 5086TIP3    H139453   0.013   5.349   0.408  1.8267 -0.1995  2.4447
 5086TIP3    H239454   0.153   5.382   0.361  1.0680 -0.9291 -0.5140
 5087TIP3   OH239455   6.546   5.032   7.949 -0.3452 -0.2087  0.3269
 5087TIP3    H139456   6.525   5.114   7.994 -0.3092 -1.2202  2.2627
 5087TIP3    H239457   6.546   4.966   8.018  0.3108 -1.7396 -1.0848
 5088TIP3   OH239458   1.306   1.135   9.035 -0.0922 -0.2669  0.8625
 5088TIP3    H139459   1.214   1.159   9.048 -0.9858 -2.2193 -1.0941
 5088TIP3    H239460   1.346   1.213   8.996 -1.1902  0.2677  0.7631
 5089TIP3   OH239461   2.654   6.970   7.774 -0.0802 -0.0878 -0.4751
 5089TIP3    H139462   2.626   7.060   7.763 -2.4093 -0.4645  1.4978
 5089TIP3    H239463   2.743   6.977   7.809 -0.3989  1.4833  0.1109
 5090TIP3   OH239464   2.637   7.332   0.263  0.2758 -0.3916  0.4100
 5090TIP3    H139465   2.683   7.332   0.179 -1.1316  0.0587 -0.3933
 5090TIP3    H239466   2.654   7.245   0.300  2.0313 -0.1158  0.3118
 5091TIP3   OH239467   4.147   0.233   2.282 -0.6494  0.5319  0.0063
 5091TIP3    H139468   4.101   0.301   2.332 -2.2294  0.2916 -1.0324
 5091TIP3    H239469   4.239   0.257   2.288 -0.9969  1.7069  1.2247
 5092TIP3   OH239470   4.938   2.489   1.215  0.2547 -0.1047 -0.0659
 5092TIP3    H139471   4.925   2.401   1.179 -1.1008 -0.4840  1.2667
 5092TIP3    H239472   4.850   2.516   1.242  0.5489  1.9053 -0.9495
 5093TIP3   OH239473   3.780   6.083   9.351 -0.0483  0.5527  0.1432
 5093TIP3    H139474   3.744   6.140   9.419 -0.4491  0.5603 -0.0740
 5093TIP3    H239475   3.728   6.003   9.355 -1.7446  1.4702 -1.7754
 5094TIP3   OH239476   3.185   4.708   1.972 -0.1842 -0.5007  0.0864
 5094TIP3    H139477   3.278   4.730   1.976  0.3645 -2.3873 -0.9994
 5094TIP3    H239478   3.148   4.768   1.908  0.4096 -0.1294  0.0891
 5095TIP3   OH239479   3.622   0.578   6.626  0.3994 -0.2097  0.2595
 5095TIP3    H139480   3.681   0.631   6.572 -1.2140 -1.9729 -3.6259
 5095TIP3    H239481   3.567   0.641   6.671  1.7454  1.3987 -0.2536
 5096TIP3   OH239482   1.707   3.676   8.898  0.2372  0.1642 -0.7247
 5096TIP3    H139483   1.715   3.755   8.953  0.7582 -0.6576  0.4221
 5096TIP3    H239484   1.618   3.682   8.862  0.3926  1.4567 -0.9647
 5097TIP3   OH239485   0.542   0.234   1.672  0.6159 -0.2202 -0.0741
 5097TIP3    H139486   0.528   0.141   1.652  0.9379 -0.0690 -1.1020
 5097TIP3    H239487   0.576   0.270   1.590  0.7818  0.7436  0.4103
 5098TIP3   OH239488   4.609   4.405   0.421 -0.5805  0.3017  0.6091
 5098TIP3    H139489   4.666   4.382   0.494 -0.3491  0.0124  0.3369
 5098TIP3    H239490   4.520   4.390   0.455 -0.4444 -0.9954  0.4432
 5099TIP3   OH239491   3.313   2.274   0.871 -0.1217 -0.1205 -0.4193
 5099TIP3    H139492   3.404   2.255   0.891  0.2584  1.5072 -0.5350
 5099TIP3    H239493   3.303   2.248   0.779  1.0549  2.3488 -1.3274
 5100TIP3   OH239494   7.190   0.894   9.266 -0.2037  0.0709 -0.5427
 5100TIP3    H139495   7.251   0.827   9.235  1.4330  0.2782  1.9289
 5100TIP3    H239496   7.109   0.846   9.282 -0.6944 -0.2801 -3.5353
 5101TIP3   OH239497   0.953   5.953   1.412 -0.0388  0.7269  0.3994
 5101TIP3    H139498   0.877   5.906   1.446 -0.1797  0.4794 -0.2629
 5101TIP3    H239499   1.015   5.954   1.486 -0.4004  0.3189  0.7141
 5102TIP3   OH239500   1.363   5.680   8.658 -0.5923  0.0492  0.1437
 5102TIP3    H139501   1.425   5.624   8.704 -0.3212  0.0650 -0.1980
 5102TIP3    H239502   1.409   5.709   8.579 -0.7977  0.5894  0.2121
 5103TIP3   OH239503   7.266   0.328   6.285 -0.2275 -0.1185 -0.0886
 5103TIP3    H139504   7.260   0.389   6.358  1.6083 -0.2732  0.2320
 5103TIP3    H239505   7.253   0.382   6.207 -0.1029  0.4223  0.2599
 5104TIP3   OH239506   2.799   4.165   0.269 -0.0751 -0.1347  0.5761
 5104TIP3    H139507   2.732   4.112   0.313 -0.4997 -0.4352 -0.4229
 5104TIP3    H239508   2.872   4.165   0.330 -1.0614  0.4200  1.8222
 5105TIP3   OH239509   4.755   0.244   7.904  0.3599  0.3798 -0.6685
 5105TIP3    H139510   4.755   0.275   7.995  0.5937 -1.8891  0.1632
 5105TIP3    H239511   4.833   0.189   7.898 -0.7115 -1.0981 -1.6425
 5106TIP3   OH239512   3.044   0.547   9.044 -0.3004  1.2618 -0.4020
 5106TIP3    H139513   2.965   0.497   9.023 -0.9680  1.8033  0.6832
 5106TIP3    H239514   3.028   0.633   9.006 -1.1742  2.0062  1.4930
 5107TIP3   OH239515   4.505   5.354   7.604 -0.6466 -0.7354  0.2811
 5107TIP3    H139516   4.568   5.370   7.674 -1.5282  1.1675  0.6975
 5107TIP3    H239517   4.435   5.304   7.647 -1.0316  0.1475  0.7154
 5108TIP3   OH239518   6.811   6.275   9.065  0.2320 -0.2981 -0.1482
 5108TIP3    H139519   6.792   6.361   9.027  2.3865  1.0575  1.5913
 5108TIP3    H239520   6.906   6.267   9.060  0.1668 -2.0936  0.7612
 5109TIP3   OH239521   6.419   6.777   9.328  0.3878  0.2071  0.0400
 5109TIP3    H139522   6.413   6.871   9.309 -0.2136  0.1494 -0.0700
 5109TIP3    H239523   6.453   6.773   9.418 -0.7944  0.5627  0.5228
 5110TIP3   OH239524   2.324   2.510   2.442  0.0764  0.1134 -0.7091
 5110TIP3    H139525   2.249   2.570   2.449 -0.5421 -0.6431 -0.6766
 5110TIP3    H239526   2.339   2.481   2.532 -0.4302 -0.7222 -0.8829
 5111TIP3   OH239527   4.125   1.331   0.191  0.3685  0.6608 -0.0063
 5111TIP3    H139528   4.084   1.249   0.162  0.1144  0.8353 -0.1422
 5111TIP3    H239529   4.202   1.303   0.240  0.2858  0.3386 -0.0586
 5112TIP3   OH239530   0.245   1.420   8.466  0.3379  0.1506 -0.3391
 5112TIP3    H139531   0.213   1.449   8.552  0.2852  0.8373 -0.5830
 5112TIP3    H239532   0.271   1.329   8.480  0.0083  0.1484  0.3221
 5113TIP3   OH239533   0.304   3.892   1.771  0.0659 -0.0076 -0.0996
 5113TIP3    H139534   0.221   3.846   1.779 -1.1384  2.0929  0.0611
 5113TIP3    H239535   0.328   3.914   1.861  0.3295  0.1928 -0.2186
 5114TIP3   OH239536   5.714   1.112   0.954 -0.1837 -0.1244  0.4560
 5114TIP3    H139537   5.627   1.080   0.975 -0.0754 -1.6172 -1.1313
 5114TIP3    H239538   5.728   1.084   0.863  1.1579  1.8350 -0.0169
 5115TIP3   OH239539   3.271   2.081   9.454 -0.4205 -0.1174  0.1541
 5115TIP3    H139540   3.331   2.066   9.381  0.5652 -0.5211  1.0228
 5115TIP3    H239541   3.317   2.046   9.531 -0.8882  1.3999  1.1728
 5116TIP3   OH239542   2.147   0.364   6.760 -0.1120  0.2138  0.3486
 5116TIP3    H139543   2.217   0.392   6.819 -0.1820 -0.4831  0.7760
 5116TIP3    H239544   2.110   0.446   6.726  0.6405  0.5974  0.4289
 5117TIP3   OH239545   7.204   4.220   9.075 -0.0917 -0.4737  0.4088
 5117TIP3    H139546   7.227   4.127   9.075  0.1087 -0.4615  2.1316
 5117TIP3    H239547   7.279   4.263   9.117  1.4374  0.9843 -3.3284
 5118TIP3   OH239548   1.805   6.853   9.266  0.4217  0.2894  0.4657
 5118TIP3    H139549   1.752   6.875   9.342  1.8881 -0.2177  1.6817
 5118TIP3    H239550   1.886   6.902   9.278  0.7899 -0.0123 -0.6438
 5119TIP3   OH239551   4.692   4.397   8.411  0.2151  0.6656  0.0436
 5119TIP3    H139552   4.731   4.456   8.476  1.3504 -1.2331  1.1880
 5119TIP3    H239553   4.767   4.354   8.369 -0.5430 -0.7558  0.0598
 5120TIP3   OH239554   7.297   3.165   1.632 -0.8287 -0.2606 -0.2710
 5120TIP3    H139555   7.295   3.073   1.606  1.9542 -1.2993  2.4712
 5120TIP3    H239556   7.378   3.198   1.595  0.1018 -0.0805  1.7776
 5121TIP3   OH239557   5.816   0.612   8.420  0.4595 -1.2370  0.5723
 5121TIP3    H139558   5.809   0.608   8.324  0.3384 -0.7995  0.5608
 5121TIP3    H239559   5.728   0.589   8.451  0.3478 -0.8262  0.5629
 5122TIP3   OH239560   3.471   6.072   8.895 -0.4530  0.1749  0.5977
 5122TIP3    H139561   3.543   6.134   8.895  0.7926 -1.1376 -1.2746
 5122TIP3    H239562   3.399   6.118   8.852 -0.2425  1.0167  1.1423
 5123TIP3   OH239563   4.228   6.310   0.226 -0.1132  0.1763  0.2028
 5123TIP3    H139564   4.218   6.273   0.314  2.8564  1.2029  1.0623
 5123TIP3    H239565   4.227   6.233   0.168  0.0958 -0.7125  1.3429
 5124TIP3   OH239566   5.069   6.785   9.582  0.4421 -0.3303 -0.1845
 5124TIP3    H139567   5.000   6.772   9.647  1.9598  1.8006  2.0263
 5124TIP3    H239568   5.125   6.708   9.592 -0.1847 -0.7888 -0.1061
 5125TIP3   OH239569   5.716   3.066   0.072  0.0837 -1.0913  0.3791
 5125TIP3    H139570   5.788   3.095   0.128 -0.6612  0.5015  0.5676
 5125TIP3    H239571   5.655   3.022   0.131  0.4977 -1.7162  0.3543
 5126TIP3   OH239572   2.383   6.489   8.448 -0.1090 -0.2602  0.7795
 5126TIP3    H139573   2.349   6.412   8.402  1.0159 -0.7621  0.7588
 5126TIP3    H239574   2.359   6.562   8.392 -0.1766 -0.7112  0.2086
 5127TIP3   OH239575   6.507   4.237   1.780  0.8034 -0.8398 -0.5172
 5127TIP3    H139576   6.549   4.319   1.752 -0.0841  0.5651  1.8985
 5127TIP3    H239577   6.467   4.202   1.701  1.0747  1.1811 -1.6269
 5128TIP3   OH239578   3.755   0.880   0.783  0.1207  0.0283  0.1567
 5128TIP3    H139579   3.827   0.818   0.771  0.1630  0.1641 -0.3340
 5128TIP3    H239580   3.698   0.864   0.707 -0.2552  0.0655  0.4303
 5129TIP3   OH239581   4.134   4.793   1.112 -0.0022  0.1844 -0.0655
 5129TIP3    H139582   4.161   4.833   1.029 -0.8864 -0.8113 -0.8579
 5129TIP3    H239583   4.135   4.699   1.094 -3.1739  0.0414  0.0828
 5130TIP3   OH239584   7.139   7.376   8.032 -0.2031  0.2486 -0.2552
 5130TIP3    H139585   7.101   7.328   8.105  0.4047 -2.0221 -1.3585
 5130TIP3    H239586   7.212   7.424   8.072  0.5372 -1.4677  0.5741
 5131TIP3   OH239587   6.660   0.468   6.573  0.5433  0.8290 -0.2866
 5131TIP3    H139588   6.736   0.451   6.629  0.4259  0.0378 -0.3478
 5131TIP3    H239589   6.613   0.384   6.571 -0.2713  1.2822 -0.3415
 5132TIP3   OH239590   3.880   4.764   0.054 -0.1231  0.4710  0.2319
 5132TIP3    H139591   3.887   4.668   0.050  0.9851  0.5925 -1.4304
 5132TIP3    H239592   3.902   4.794  -0.034  1.1613  2.3545  1.1250
 5133TIP3   OH239593   5.871   2.508   1.904 -0.3204 -0.2138 -0.9193
 5133TIP3    H139594   5.814   2.479   1.833 -1.8887 -1.4841  0.7784
 5133TIP3    H239595   5.888   2.429   1.955 -1.1410  1.0280  1.4028
 5134TIP3   OH239596   2.921   4.109   7.502 -0.0994  0.0658 -0.1014
 5134TIP3    H139597   2.871   4.042   7.548  0.0964 -0.5984 -0.8310
 5134TIP3    H239598   2.898   4.098   7.410 -0.5686  1.4507 -0.1680
 5135TIP3   OH239599   4.559   6.742   9.544  0.0365 -0.7138  0.3103
 5135TIP3    H139600   4.641   6.749   9.494  0.9243  1.5613  1.9523
 5135TIP3    H239601   4.582   6.770   9.633 -2.3327 -0.9453  1.0686
 5136TIP3   OH239602   4.745   4.628   7.844 -0.3087  0.2373 -0.4130
 5136TIP3    H139603   4.701   4.713   7.836 -0.3896  0.1048 -1.5162
 5136TIP3    H239604   4.685   4.566   7.802  0.4924 -0.1023 -1.0736
 5137TIP3   OH239605   5.575   1.526   7.385  0.0600  0.3306  0.0369
 5137TIP3    H139606   5.573   1.449   7.328 -0.3173 -0.9754  1.7579
 5137TIP3    H239607   5.601   1.598   7.326  5.0133 -1.7680 -0.8757
 5138TIP3   OH239608   1.471   1.619   2.384 -0.1448 -0.0530 -0.2234
 5138TIP3    H139609   1.495   1.541   2.435 -0.1651  1.0241  1.4842
 5138TIP3    H239610   1.543   1.680   2.399 -1.4707  1.3053  0.7688
 5139TIP3   OH239611   5.018   6.228   2.152  0.6821 -0.4111  0.7102
 5139TIP3    H139612   4.955   6.245   2.082  1.4980  1.0171  0.2776
 5139TIP3    H239613   5.044   6.315   2.182  3.5998 -0.8508 -0.1871
 5140TIP3   OH239614   6.236   6.919   9.101  0.0228  0.3613  0.1257
 5140TIP3    H139615   6.272   6.928   9.012  0.4608 -0.7443  0.1688
 5140TIP3    H239616   6.178   6.843   9.095  1.2451 -0.7095  1.1216
 5141TIP3   OH239617   5.098   2.010   1.045 -0.0518 -0.6705 -0.1094
 5141TIP3    H139618   5.067   2.058   1.122 -0.0511  1.2104 -1.2267
 5141TIP3    H239619   5.043   1.931   1.043 -0.4447 -0.4747  1.4737
 5142TIP3   OH239620   2.792   3.697   8.289 -0.2790  0.3335  0.6083
 5142TIP3    H139621   2.809   3.788   8.264  4.1756 -0.1108  1.2958
 5142TIP3    H239622   2.844   3.683   8.368 -1.9612 -2.4899  1.3762
 5143TIP3   OH239623   0.182   0.913   7.827  0.2835  0.0074 -0.3385
 5143TIP3    H139624   0.254   0.972   7.847  0.1049  0.1420 -0.0890
 5143TIP3    H239625   0.154   0.880   7.913 -0.7517  0.8968 -0.3195
 5144TIP3   OH239626   6.934   5.292   6.303 -0.2194 -0.7408 -0.5059
 5144TIP3    H139627   6.842   5.305   6.330  0.3287 -0.1743  1.2605
 5144TIP3    H239628   6.958   5.375   6.261  0.0086 -0.1270  0.7656
 5145TIP3   OH239629   4.210   2.841   1.317  0.3875 -0.2882  0.4152
 5145TIP3    H139630   4.274   2.805   1.255  1.5346  2.6366 -0.2412
 5145TIP3    H239631   4.126   2.833   1.271  0.8937 -0.3120 -0.5331
 5146TIP3   OH239632   4.037   2.803   1.071 -0.1373  0.0380  0.0713
 5146TIP3    H139633   3.946   2.832   1.072 -0.8561 -2.0566 -0.1863
 5146TIP3    H239634   4.071   2.833   0.987 -0.4022  1.2641  0.3748
 5147TIP3   OH239635   2.847   1.951   1.811 -0.2403  0.5592 -0.5274
 5147TIP3    H139636   2.787   1.987   1.876  0.2781  1.3203 -0.4623
 5147TIP3    H239637   2.802   1.963   1.728  0.1113  1.7999 -0.5595
 5148TIP3   OH239638   0.476   7.280   7.751 -0.5918 -0.3147 -0.1253
 5148TIP3    H139639   0.473   7.186   7.733 -1.5829 -0.0420 -1.5320
 5148TIP3    H239640   0.512   7.286   7.840 -0.9276 -2.0353  0.1662
 5149TIP3   OH239641   1.643   0.775   9.499  0.1203 -0.4543  0.1450
 5149TIP3    H139642   1.665   0.694   9.453 -0.5030 -0.4136 -0.2298
 5149TIP3    H239643   1.725   0.800   9.542  0.1521 -1.6328  0.8154
 5150TIP3   OH239644   0.537   4.459   8.055 -0.2438  0.1364 -0.0538
 5150TIP3    H139645   0.553   4.365   8.061  0.1438  0.1610 -0.5676
 5150TIP3    H239646   0.603   4.499   8.112 -1.3708  0.0460  1.3823
 5151TIP3   OH239647   2.856   6.269   0.800  0.8097 -0.1274  0.6342
 5151TIP3    H139648   2.853   6.267   0.896 -0.9323  0.9591  0.6389
 5151TIP3    H239649   2.934   6.321   0.780  1.4182 -0.6985  1.4300
 5152TIP3   OH239650   5.251   2.802   0.531 -0.1093 -0.5029 -0.0260
 5152TIP3    H139651   5.226   2.858   0.458  0.8421 -0.3307 -0.2274
 5152TIP3    H239652   5.213   2.717   0.511  0.4406 -0.5503 -0.9022
 5153TIP3   OH239653   5.728   4.487   8.177 -0.1167 -0.1622 -0.2729
 5153TIP3    H139654   5.649   4.539   8.193  0.5653  0.9719 -0.4294
 5153TIP3    H239655   5.728   4.471   8.083 -0.5659 -0.8569 -0.1592
 5154TIP3   OH239656   1.810   3.461   6.412  0.2378 -0.7068 -0.6400
 5154TIP3    H139657   1.782   3.506   6.332  1.6762  0.3938 -0.5641
 5154TIP3    H239658   1.755   3.383   6.416 -1.7384  0.5837 -1.2534
 5155TIP3   OH239659   4.825   2.572   0.975  0.0207  0.1873  0.4354
 5155TIP3    H139660   4.890   2.581   1.045 -1.3797  1.1701  1.6712
 5155TIP3    H239661   4.803   2.662   0.951 -1.3212 -0.1219  0.4540
 5156TIP3   OH239662   4.658   5.963   1.930 -0.0240 -0.0259  0.3510
 5156TIP3    H139663   4.623   6.028   1.868 -0.3301  0.7346  1.3026
 5156TIP3    H239664   4.582   5.911   1.956  0.3814 -1.4669 -1.1785
 5157TIP3   OH239665   7.196   6.571   0.614  0.3652 -0.2468  0.0301
 5157TIP3    H139666   7.262   6.620   0.663 -0.5775  0.6499  0.4290
 5157TIP3    H239667   7.150   6.520   0.680 -0.2276  0.1719 -0.0557
 5158TIP3   OH239668   0.165   6.570   9.336 -0.6372  0.0891 -0.2907
 5158TIP3    H139669   0.098   6.587   9.270 -0.4882  0.3762 -0.3697
 5158TIP3    H239670   0.191   6.656   9.367  0.3459  0.0420 -0.9176
 5159TIP3   OH239671   5.186   3.139   7.572 -0.2005 -0.2574  0.2636
 5159TIP3    H139672   5.205   3.045   7.578  0.9687 -0.0225  0.3998
 5159TIP3    H239673   5.143   3.150   7.487  2.5728 -0.4636 -1.2630
 5160TIP3   OH239674   3.914   1.095   8.446 -0.3144  0.1911  0.2199
 5160TIP3    H139675   3.827   1.118   8.480  0.0679  0.1192  1.2773
 5160TIP3    H239676   3.975   1.134   8.508  0.3802 -1.8423  0.9256
 5161TIP3   OH239677   1.320   5.421   1.872 -0.1688  0.0746 -0.2564
 5161TIP3    H139678   1.330   5.330   1.900 -0.8810 -0.1217 -0.5943
 5161TIP3    H239679   1.374   5.428   1.793  1.5169  0.5182  0.9020
 5162TIP3   OH239680   7.100   2.452   9.100 -0.5347 -0.0735 -0.0138
 5162TIP3    H139681   7.176   2.402   9.131 -0.7483 -0.8834 -0.7556
 5162TIP3    H239682   7.026   2.413   9.146 -0.3106  2.4475  2.7958
 5163TIP3   OH239683   4.923   0.904   0.568  0.3731  0.1243 -0.2411
 5163TIP3    H139684   4.993   0.888   0.631 -0.9927 -2.5237  0.7518
 5163TIP3    H239685   4.959   0.972   0.510  2.0962  1.9332  2.6635
 5164TIP3   OH239686   5.592   4.418   7.345  0.0353  0.5016 -0.2026
 5164TIP3    H139687   5.514   4.366   7.328  1.1108 -1.3055  0.1744
 5164TIP3    H239688   5.560   4.493   7.396 -1.1922 -1.2019  1.6742
 5165TIP3   OH239689   1.587   2.502   0.153 -0.5674  0.0637  0.7066
 5165TIP3    H139690   1.648   2.575   0.141 -0.1163 -0.2687  0.9788
 5165TIP3    H239691   1.519   2.517   0.088 -0.6395  0.9011  0.9641
 5166TIP3   OH239692   6.835   6.919   2.200  0.0093  0.5437 -0.3294
 5166TIP3    H139693   6.781   6.998   2.197 -0.1477  0.4144 -1.3751
 5166TIP3    H239694   6.925   6.951   2.207 -0.1519  0.7714  0.9077
 5167TIP3   OH239695   0.584   7.155   0.906 -0.3007  0.4604 -0.3285
 5167TIP3    H139696   0.507   7.134   0.960 -0.9739  2.1584 -0.5491
 5167TIP3    H239697   0.578   7.095   0.832 -1.0004  0.0629  0.0369
 5168TIP3   OH239698   3.794   1.152   0.827  0.4958  0.1501 -0.4875
 5168TIP3    H139699   3.801   1.202   0.746  0.2800  0.0656 -0.5576
 5168TIP3    H239700   3.817   1.062   0.802 -0.2429 -0.0118 -0.5966
 5169TIP3   OH239701   4.081   4.291   6.816 -0.4402 -0.0389  0.0854
 5169TIP3    H139702   4.176   4.299   6.817 -0.4838  0.5717 -0.1980
 5169TIP3    H239703   4.059   4.277   6.724 -0.8164  2.5876 -0.2910
 5170TIP3   OH239704   6.341   2.509   7.454 -0.5566  0.1684  0.6895
 5170TIP3    H139705   6.302   2.504   7.367  1.4995  0.7261 -0.3280
 5170TIP3    H239706   6.307   2.591   7.491 -0.8739  0.3045  0.1096
 5171TIP3   OH239707   6.069   5.985   7.330  0.3594 -0.3528  0.4324
 5171TIP3    H139708   5.998   6.013   7.388  0.5181  1.1947 -0.0639
 5171TIP3    H239709   6.134   5.946   7.389  0.1424  0.4108  1.1921
 5172TIP3   OH239710   1.778   5.052   7.772  0.2112  0.4731  0.6640
 5172TIP3    H139711   1.772   5.106   7.693 -0.4793 -2.3365 -1.3645
 5172TIP3    H239712   1.857   5.000   7.760 -1.2912 -1.8940  0.4221
 5173TIP3   OH239713   0.579   1.160   2.505  0.3294 -0.1996 -0.1200
 5173TIP3    H139714   0.562   1.110   2.585  1.8546 -0.1528  0.2712
 5173TIP3    H239715   0.668   1.194   2.516  1.1544 -1.3781 -2.4480
 5174TIP3   OH239716   5.764   4.947   0.227  0.3165  0.2480  0.4648
 5174TIP3    H139717   5.744   5.032   0.267  0.1891  0.0108  0.8983
 5174TIP3    H239718   5.825   4.969   0.156 -0.7838  0.8753 -0.3224
 5175TIP3   OH239719   3.736   3.173   1.406 -0.6332 -0.3634 -0.3581
 5175TIP3    H139720   3.681   3.248   1.383 -1.0465 -0.4310  0.3752
 5175TIP3    H239721   3.826   3.203   1.390 -0.6903  0.8182  1.3249
 5176TIP3   OH239722   0.775   3.699   0.388 -0.0771 -0.1134  0.3836
 5176TIP3    H139723   0.721   3.775   0.368 -0.3009 -0.6864 -1.2942
 5176TIP3    H239724   0.862   3.736   0.406  0.5143  0.4679 -2.9967
 5177TIP3   OH239725   2.014   3.516   0.440  0.2930  0.1133  0.0964
 5177TIP3    H139726   1.995   3.445   0.379  2.9867  0.2977 -1.1027
 5177TIP3    H239727   1.940   3.516   0.501 -1.6528 -1.2012 -2.1238
 5178TIP3   OH239728   4.945   1.729   1.597 -0.0937 -0.3827  0.0886
 5178TIP3    H139729   4.903   1.696   1.676 -1.0466  0.1867 -0.1611
 5178TIP3    H239730   4.893   1.692   1.525 -1.0071  1.3507 -0.2012
 5179TIP3   OH239731   5.646   5.757   0.678 -0.3159  0.2164 -0.0023
 5179TIP3    H139732   5.670   5.674   0.636  0.9336  0.2974  0.5103
 5179TIP3    H239733   5.607   5.730   0.761  1.3355  0.1248  0.7928
 5180TIP3   OH239734   4.618   4.274   7.772 -0.1608  0.0573  0.1733
 5180TIP3    H139735   4.607   4.268   7.867 -0.2406 -0.6135  0.1286
 5180TIP3    H239736   4.665   4.194   7.748  2.6972  1.6217  0.0340
 5181TIP3   OH239737   0.694   6.355   6.688  0.4895 -0.3765 -0.2901
 5181TIP3    H139738   0.659   6.283   6.634  0.4522  0.9497 -2.1509
 5181TIP3    H239739   0.780   6.373   6.650 -0.0449  1.3988 -0.7492
 5182TIP3   OH239740   3.291   6.296   9.307 -0.0801  0.2248 -0.3181
 5182TIP3    H139741   3.215   6.257   9.263  0.8064 -0.5971 -1.1805
 5182TIP3    H239742   3.364   6.276   9.249  0.7483  1.3011  0.3287
 5183TIP3   OH239743   2.459   0.705   9.001  0.4633 -0.1161  0.2005
 5183TIP3    H139744   2.519   0.743   9.064 -0.3805 -1.4048  1.8657
 5183TIP3    H239745   2.515   0.661   8.937  1.3392  1.3561 -0.0874
 5184TIP3   OH239746   3.229   7.164   0.943 -0.0947 -0.1092 -0.3395
 5184TIP3    H139747   3.186   7.158   0.858 -0.6487  0.2002 -0.0902
 5184TIP3    H239748   3.164   7.207   0.999 -0.4997 -2.0261  0.7567
 5185TIP3   OH239749   0.594   3.691   2.372 -0.1786 -0.2289 -0.3390
 5185TIP3    H139750   0.598   3.597   2.354  0.0698  0.0154 -1.7194
 5185TIP3    H239751   0.501   3.713   2.366 -0.1126 -0.1743 -1.3199
 5186TIP3   OH239752   0.064   3.689   2.322 -0.5153  0.3220 -0.0595
 5186TIP3    H139753   0.010   3.611   2.328  0.5375 -0.3533  0.9908
 5186TIP3    H239754   0.013   3.757   2.367 -0.8870 -0.0718  0.1200
 5187TIP3   OH239755   0.236   2.988   8.421  0.1840 -0.0148  0.0804
 5187TIP3    H139756   0.256   3.080   8.437 -1.9192  0.8271 -1.5994
 5187TIP3    H239757   0.275   2.942   8.495 -1.9784  2.6448  3.1532
 5188TIP3   OH239758   2.341   2.614   9.181  0.0852  0.0990  0.1405
 5188TIP3    H139759   2.258   2.662   9.177  0.9704  2.1277  2.8125
 5188TIP3    H239760   2.390   2.644   9.105 -1.0383  0.0638 -0.6156
 5189TIP3   OH239761   2.437   2.463   8.571  0.1676 -0.1625 -0.1987
 5189TIP3    H139762   2.444   2.545   8.619  0.9617 -1.0605  1.2808
 5189TIP3    H239763   2.350   2.429   8.594 -0.6697  0.8032 -1.7726
 5190TIP3   OH239764   6.382   0.604   0.620  0.3158 -0.1288 -1.1395
 5190TIP3    H139765   6.385   0.509   0.620  1.6818 -0.1150 -0.4594
 5190TIP3    H239766   6.407   0.629   0.530  1.4142 -0.4173 -0.9325
 5191TIP3   OH239767   3.520   5.225   7.541 -0.8717 -0.3697  0.0519
 5191TIP3    H139768   3.528   5.130   7.552 -0.0223 -0.2472  0.5623
 5191TIP3    H239769   3.456   5.252   7.607 -0.8520 -0.5401  0.1403
 5192TIP3   OH239770   3.825   3.692   1.064 -0.2715 -0.9522 -0.0812
 5192TIP3    H139771   3.854   3.705   0.974  0.9081 -0.2994  0.3696
 5192TIP3    H239772   3.744   3.742   1.070 -0.3208 -0.9360 -0.7650
 5193TIP3   OH239773   0.379   3.970   8.921 -0.1769  0.2893 -0.3960
 5193TIP3    H139774   0.321   4.008   8.986  0.1599  0.4051 -0.1604
 5193TIP3    H239775   0.430   3.905   8.969  1.6235  1.9009 -0.0222
 5194TIP3   OH239776   2.384   1.976   3.128 -0.3119 -0.1825 -0.4088
 5194TIP3    H139777   2.322   2.044   3.101 -0.8181 -0.7330 -0.6720
 5194TIP3    H239778   2.374   1.908   3.061 -1.1042 -1.2813  0.7819
 5195TIP3   OH239779   4.660   1.780   7.180 -0.0999  0.3722  0.0559
 5195TIP3    H139780   4.568   1.764   7.157 -0.0080 -0.8672  0.4637
 5195TIP3    H239781   4.657   1.852   7.243 -0.9050 -0.4471  0.9702
 5196TIP3   OH239782   5.051   2.199   1.540 -0.2459  0.1986  0.3894
 5196TIP3    H139783   5.078   2.169   1.452 -2.4735 -0.4760 -0.1200
 5196TIP3    H239784   5.055   2.120   1.594  0.1391  0.4004  0.6614
 5197TIP3   OH239785   3.364   6.536   2.224 -0.1475  0.2064 -0.1699
 5197TIP3    H139786   3.424   6.484   2.279  0.3412  1.6307  0.7074
 5197TIP3    H239787   3.330   6.602   2.284 -1.1062  0.6125 -1.1507
 5198TIP3   OH239788   4.757   2.403   9.577 -0.2836  0.7101 -0.2520
 5198TIP3    H139789   4.775   2.320   9.621  0.2411  0.0299 -1.6911
 5198TIP3    H239790   4.834   2.417   9.521 -0.0101  2.5677  0.5425
 5199TIP3   OH239791   3.111   3.660   2.106 -0.2232 -0.4316 -0.2270
 5199TIP3    H139792   3.078   3.675   2.018  0.8751  0.8883 -0.4417
 5199TIP3    H239793   3.206   3.664   2.098 -0.0224 -2.1144  0.7265
 5200TIP3   OH239794   4.571   2.545   8.568 -0.0457 -0.1606  0.3212
 5200TIP3    H139795   4.483   2.507   8.570 -0.1937  0.1778  0.3667
 5200TIP3    H239796   4.617   2.501   8.639  0.1462 -1.1035 -0.3715
 5201TIP3   OH239797   6.879   6.179   1.616  0.3133  0.1357 -0.0221
 5201TIP3    H139798   6.936   6.256   1.624 -0.9871  1.1136  0.1641
 5201TIP3    H239799   6.854   6.178   1.523  0.3016 -0.0472 -0.0169
 5202TIP3   OH239800   1.327   2.407   7.480 -0.1670 -0.3442 -0.5606
 5202TIP3    H139801   1.408   2.356   7.492 -0.8941 -1.4256 -0.1123
 5202TIP3    H239802   1.355   2.483   7.429  1.0364 -0.9644 -0.8820
 5203TIP3   OH239803   6.579   4.207   7.026 -0.4217 -0.4649 -0.0710
 5203TIP3    H139804   6.641   4.248   6.967 -0.3567  0.5511  0.6849
 5203TIP3    H239805   6.496   4.250   7.007 -0.5405 -0.6074  0.1198
 5204TIP3   OH239806   4.353   1.343   7.535  0.0071  0.5334  0.4949
 5204TIP3    H139807   4.353   1.260   7.582 -2.0088  0.2829  0.1581
 5204TIP3    H239808   4.401   1.403   7.592  2.6550 -1.0893  0.1709
 5205TIP3   OH239809   2.252   0.489   9.045 -0.2696 -0.2368  0.7101
 5205TIP3    H139810   2.274   0.582   9.037 -0.8609 -0.0803  0.8673
 5205TIP3    H239811   2.335   0.446   9.067  0.0615  0.2138  0.3569
 5206TIP3   OH239812   2.513   6.699   0.011 -0.2358 -0.0731 -0.0067
 5206TIP3    H139813   2.469   6.722   0.094 -0.0320 -0.5221  0.2297
 5206TIP3    H239814   2.605   6.688   0.035 -0.1063  0.2014 -0.3767
 5207TIP3   OH239815   1.021   3.497   9.659  0.5403 -0.2764 -0.4043
 5207TIP3    H139816   0.950   3.559   9.675 -1.1926 -1.8891 -1.2930
 5207TIP3    H239817   1.072   3.536   9.588  1.5462  1.6307  1.2696
 5208TIP3   OH239818   7.259   2.417   2.680  0.5414  0.7155 -0.6117
 5208TIP3    H139819   7.172   2.381   2.663 -0.0983  1.4910  0.8990
 5208TIP3    H239820   7.316   2.340   2.687 -0.2085  0.1582 -0.5570
 5209TIP3   OH239821   3.223   6.614   7.430  0.2412  0.1178 -0.6539
 5209TIP3    H139822   3.157   6.622   7.362  0.0611  0.1584 -0.4723
 5209TIP3    H239823   3.302   6.654   7.392  0.1386  0.1514 -0.8313
 5210TIP3   OH239824   1.827   5.758   7.549  1.0227  0.3659 -0.1404
 5210TIP3    H139825   1.774   5.801   7.616  0.9897  1.5251 -0.8945
 5210TIP3    H239826   1.912   5.802   7.553  0.0350  2.8263 -3.0685
 5211TIP3   OH239827   5.885   1.265   7.435 -0.1857 -0.6795  0.2428
 5211TIP3    H139828   5.794   1.240   7.452 -0.4437 -0.6233 -0.9739
 5211TIP3    H239829   5.878   1.344   7.381  0.5879 -0.6117  0.2349
 5212TIP3   OH239830   4.781   6.011   0.672 -0.8011  0.1206 -0.0187
 5212TIP3    H139831   4.871   6.009   0.705 -1.0333  0.9198  0.7177
 5212TIP3    H239832   4.782   5.955   0.594  0.2040 -0.3103  0.2878
 5213TIP3   OH239833   2.092   2.176   6.624 -0.3669 -0.4740 -0.0459
 5213TIP3    H139834   2.062   2.222   6.702 -0.2792  1.7368 -1.2563
 5213TIP3    H239835   2.188   2.182   6.628 -0.3455 -0.7381 -0.1134
 5214TIP3   OH239836   5.721   2.543   9.009  0.1242 -0.2410  0.3513
 5214TIP3    H139837   5.798   2.589   9.043  0.7563 -0.4191 -0.8080
 5214TIP3    H239838   5.655   2.612   8.999  1.4215  0.7384 -2.4574
 5215TIP3   OH239839   6.511   4.582   7.939 -0.0503 -0.5122  0.4432
 5215TIP3    H139840   6.487   4.530   8.016  0.3331  0.0508  0.9624
 5215TIP3    H239841   6.559   4.522   7.882  0.1354 -0.7977  0.8962
 5216TIP3   OH239842   2.216   1.994   0.071 -0.1534 -0.2747 -0.5417
 5216TIP3    H139843   2.130   1.995   0.029 -0.0214  2.4037 -0.9353
 5216TIP3    H239844   2.251   2.082   0.056  0.9832  0.0627  3.0384
 5217TIP3   OH239845   1.289   0.567   7.347 -0.4729 -0.0730  0.1225
 5217TIP3    H139846   1.317   0.658   7.340 -1.1142  0.5211  3.6104
 5217TIP3    H239847   1.359   0.518   7.304  1.1833  1.9202  0.3739
 5218TIP3   OH239848   2.185   6.408   2.230  0.0311 -0.1428 -0.4767
 5218TIP3    H139849   2.266   6.389   2.183 -1.8504  1.2955 -4.8663
 5218TIP3    H239850   2.200   6.493   2.271  0.3749  0.8092 -2.4675
 5219TIP3   OH239851   1.150   3.442   1.246  0.0130 -0.6978 -0.5151
 5219TIP3    H139852   1.079   3.424   1.307  1.7716 -0.3780  1.7479
 5219TIP3    H239853   1.208   3.503   1.293  1.8349 -1.0081 -2.2111
 5220TIP3   OH239854   6.173   3.010   8.809  0.4827  0.3885 -0.8120
 5220TIP3    H139855   6.121   2.938   8.844  0.4942  0.2290 -1.1160
 5220TIP3    H239856   6.129   3.033   8.727  1.0241  0.0923 -1.1904
 5221TIP3   OH239857   0.914   6.426   9.557 -0.2275  0.5582 -0.1668
 5221TIP3    H139858   0.946   6.516   9.552  1.2620  0.0566 -0.0484
 5221TIP3    H239859   0.819   6.434   9.545 -0.1003  2.1167 -0.3562
 5222TIP3   OH239860   2.915   7.159   8.925 -0.0459 -0.3712  0.4341
 5222TIP3    H139861   2.822   7.183   8.918  0.0337 -0.1395  0.1378
 5222TIP3    H239862   2.961   7.229   8.880  0.3582  0.0481  1.4864
 5223TIP3   OH239863   4.493   3.660   9.456 -0.2264  0.1881 -0.0292
 5223TIP3    H139864   4.582   3.633   9.479 -0.7270 -2.0580 -0.4368
 5223TIP3    H239865   4.437   3.595   9.498 -1.6954  1.5982  0.2690
 5224TIP3   OH239866   7.187   3.075   7.031  0.4866  0.2392 -0.0187
 5224TIP3    H139867   7.227   2.989   7.040 -0.6339 -0.2895  0.0583
 5224TIP3    H239868   7.143   3.074   6.946 -2.0292 -0.3892  1.1667
 5225TIP3   OH239869   3.102   6.350   2.759 -0.0291 -0.0883 -0.4526
 5225TIP3    H139870   3.009   6.370   2.770  0.0115 -0.2139  0.1725
 5225TIP3    H239871   3.121   6.374   2.668 -0.3948  1.0516 -0.2526
 5226TIP3   OH239872   5.788   1.572   9.052 -0.1046  0.1424  0.1703
 5226TIP3    H139873   5.793   1.477   9.038  0.5911  0.2500 -0.3508
 5226TIP3    H239874   5.842   1.610   8.983 -0.7976  0.9535  0.0539
 5227TIP3   OH239875   5.815   6.160   7.128 -0.4566  0.6717 -0.2724
 5227TIP3    H139876   5.794   6.130   7.217  1.6162 -0.9291 -0.2400
 5227TIP3    H239877   5.855   6.246   7.141  0.4837  0.1523  0.4669
 5228TIP3   OH239878   1.539   0.104   1.529  0.1040  0.1440  0.3253
 5228TIP3    H139879   1.512   0.146   1.610 -0.3356 -0.9790  0.7740
 5228TIP3    H239880   1.477   0.032   1.517  0.1732  0.2773 -0.9950
 5229TIP3   OH239881   5.867   6.024   8.869 -0.3877 -0.4766 -0.1411
 5229TIP3    H139882   5.822   6.073   8.800  0.5088 -0.4557 -0.7296
 5229TIP3    H239883   5.870   6.085   8.943 -1.2459 -0.4541 -0.1080
 5230TIP3   OH239884   0.186   5.578   7.415  0.3802  0.2120 -0.2507
 5230TIP3    H139885   0.245   5.513   7.378 -0.2019  0.3965 -1.5685
 5230TIP3    H239886   0.194   5.654   7.358  0.1616  0.8645  0.5683
 5231TIP3   OH239887   4.370   5.736   0.607 -0.4279 -0.5560 -0.5696
 5231TIP3    H139888   4.384   5.829   0.587 -1.2414 -0.5638 -1.2394
 5231TIP3    H239889   4.370   5.732   0.702  1.1889 -0.1335 -0.5221
 5232TIP3   OH239890   1.510   1.835   2.090  0.1996  0.1027  0.3519
 5232TIP3    H139891   1.557   1.889   2.154 -1.0306 -1.3947  2.6808
 5232TIP3    H239892   1.552   1.750   2.096 -1.7996 -0.8797  1.4640
 5233TIP3   OH239893   5.615   4.659   0.540 -0.5553  0.5876 -0.7166
 5233TIP3    H139894   5.684   4.607   0.500 -0.8259 -0.1667 -0.2307
 5233TIP3    H239895   5.557   4.595   0.582  0.1734  1.3455  1.6282
 5234TIP3   OH239896   6.128   5.966   9.280 -0.1385  0.6116 -0.1427
 5234TIP3    H139897   6.220   5.973   9.307  0.1176  0.4195 -0.9528
 5234TIP3    H239898   6.086   5.917   9.351  0.8875 -1.4429 -0.8615
 5235TIP3   OH239899   1.249   2.478   2.249  0.2982 -0.4015  0.0228
 5235TIP3    H139900   1.210   2.401   2.290 -1.4980  0.4625  0.0262
 5235TIP3    H239901   1.258   2.542   2.320 -1.7891  0.6998 -0.6131
 5236TIP3   OH239902   3.838   0.519   7.626 -0.0832  0.2407  0.1120
 5236TIP3    H139903   3.859   0.450   7.690  0.3430  0.3336  0.0767
 5236TIP3    H239904   3.911   0.581   7.633  1.1911 -0.8839 -2.0479
 5237TIP3   OH239905   2.073   2.989   8.764 -0.2643 -0.4073  0.5037
 5237TIP3    H139906   2.026   3.048   8.705  0.5711  0.2874  0.5181
 5237TIP3    H239907   2.013   2.975   8.837 -0.4596  0.4475  0.5153
 5238TIP3   OH239908   4.405   5.126   6.429  0.1906  0.5959 -0.3794
 5238TIP3    H139909   4.500   5.133   6.421  0.0957  0.7342 -1.5404
 5238TIP3    H239910   4.372   5.209   6.395 -0.3944  0.0160 -1.2577
 5239TIP3   OH239911   2.209   6.359   1.165 -0.4697  0.0449  0.1721
 5239TIP3    H139912   2.189   6.320   1.080  0.2995  1.6431 -0.8066
 5239TIP3    H239913   2.168   6.301   1.229 -1.2867 -1.0699 -1.2997
 5240TIP3   OH239914   6.410   3.908   8.258  0.0293  0.1699  0.8839
 5240TIP3    H139915   6.418   3.812   8.250  1.1869  0.3331 -0.4090
 5240TIP3    H239916   6.330   3.929   8.211  0.8949 -0.0048 -0.7584
 5241TIP3   OH239917   5.955   7.302   9.266 -0.2135 -0.3481  0.2038
 5241TIP3    H139918   5.907   7.345   9.337 -1.2044  0.1772 -0.7595
 5241TIP3    H239919   5.895   7.303   9.192  1.4437  0.8567 -1.2306
 5242TIP3   OH239920   3.866   1.706   8.589 -1.0051 -0.0374 -0.1701
 5242TIP3    H139921   3.955   1.741   8.584  0.2531 -3.0033 -0.8537
 5242TIP3    H239922   3.827   1.727   8.504  0.5239 -2.0531 -1.4728
 5243TIP3   OH239923   0.363   4.612   2.238  0.5131 -0.4231  0.1059
 5243TIP3    H139924   0.350   4.600   2.332  0.5367  0.7070  0.2579
 5243TIP3    H239925   0.412   4.693   2.230  1.5306 -1.1052 -0.8326
 5244TIP3   OH239926   5.356   0.335   7.930  0.1810  0.2627  0.4367
 5244TIP3    H139927   5.352   0.348   7.836 -1.7900 -1.8496  0.1563
 5244TIP3    H239928   5.278   0.380   7.964 -0.9483 -1.6997  0.6113
 5245TIP3   OH239929   4.165   6.924   8.863  0.3355 -0.2640 -0.2159
 5245TIP3    H139930   4.119   6.847   8.830  0.5245 -0.3349 -0.3153
 5245TIP3    H239931   4.251   6.891   8.887 -0.5046 -0.7289  2.5553
 5246TIP3   OH239932   6.843   6.528   7.877  0.2403 -0.2255 -0.5238
 5246TIP3    H139933   6.783   6.600   7.856  1.2511  1.1789  1.1176
 5246TIP3    H239934   6.930   6.568   7.872  0.7558 -0.9519  1.7470
 5247TIP3   OH239935   4.027   4.752   2.541  0.1639 -0.5448  0.2280
 5247TIP3    H139936   3.954   4.745   2.604 -0.8273  0.4462 -0.7776
 5247TIP3    H239937   4.074   4.830   2.569 -0.4330  0.0495 -0.3975
 5248TIP3   OH239938   3.490   5.330   9.340  0.0334  0.0070  0.3072
 5248TIP3    H139939   3.403   5.338   9.380  0.2160 -0.0832  0.7311
 5248TIP3    H239940   3.543   5.396   9.384  0.2276 -0.0592  0.1737
 5249TIP3   OH239941   3.833   3.594   7.926  0.2979 -0.2146 -0.0732
 5249TIP3    H139942   3.775   3.646   7.871 -1.4363 -1.9323  0.0292
 5249TIP3    H239943   3.907   3.573   7.869 -1.6021 -2.2297 -1.9811
 5250TIP3   OH239944   6.055   1.828   0.470 -0.0139 -0.0660  0.0188
 5250TIP3    H139945   6.120   1.881   0.516  0.3778 -0.9812  0.5527
 5250TIP3    H239946   6.102   1.748   0.447 -0.5905 -0.1848 -0.7790
 5251TIP3   OH239947   6.170   2.788   9.197  0.0726 -0.5892 -0.3283
 5251TIP3    H139948   6.244   2.814   9.143  1.7121  1.6146  2.6472
 5251TIP3    H239949   6.208   2.735   9.268 -1.3013 -0.1421  0.8113
 5252TIP3   OH239950   0.886   4.108   1.821  0.1045 -0.1507  0.1152
 5252TIP3    H139951   0.844   4.032   1.861 -0.3065 -0.3514 -0.6710
 5252TIP3    H239952   0.825   4.180   1.837  0.0743 -0.1725  0.1005
 5253TIP3   OH239953   2.968   1.135   2.116 -1.0506  0.0891 -0.2468
 5253TIP3    H139954   2.890   1.147   2.170 -0.5423 -2.3220  1.1728
 5253TIP3    H239955   2.934   1.103   2.033 -1.5971 -0.6778  0.2601
 5254TIP3   OH239956   6.027   2.708   8.037  0.4738 -0.0506 -0.6875
 5254TIP3    H139957   6.049   2.793   8.000  0.3563  1.5457  2.5773
 5254TIP3    H239958   6.041   2.646   7.965 -0.2976  2.7582 -3.4753
 5255TIP3   OH239959   6.887   6.631   6.772 -0.1094  0.5293  0.1018
 5255TIP3    H139960   6.895   6.552   6.720 -0.9176 -2.1495  3.6707
 5255TIP3    H239961   6.974   6.643   6.811 -0.6876 -0.3216  1.7250
 5256TIP3   OH239962   0.473   3.604   8.211  0.4176 -0.0376  0.7010
 5256TIP3    H139963   0.415   3.541   8.253 -0.1441  0.3002  0.4418
 5256TIP3    H239964   0.449   3.689   8.250 -0.9993  0.4846 -1.1655
 5257TIP3   OH239965   5.092   3.648   7.568 -0.2468 -0.4198  0.1119
 5257TIP3    H139966   5.147   3.570   7.563 -0.9039 -0.8109 -1.7441
 5257TIP3    H239967   5.111   3.696   7.488  0.0080  1.2645  1.1401
 5258TIP3   OH239968   1.655   1.535   7.738 -0.0337  0.1712 -0.0483
 5258TIP3    H139969   1.568   1.566   7.763 -0.3061  0.3909 -1.1937
 5258TIP3    H239970   1.707   1.542   7.818 -0.6127  1.7052  0.2428
 5259TIP3   OH239971   3.980   1.768   2.822 -0.8389 -0.5098 -0.2497
 5259TIP3    H139972   4.041   1.705   2.783  0.3851  0.9461 -0.7749
 5259TIP3    H239973   3.963   1.734   2.909  1.1434 -0.7282  0.1021
 5260TIP3   OH239974   4.418   3.038   0.910 -0.1337  0.5568 -0.0473
 5260TIP3    H139975   4.424   3.082   0.825  0.5169  0.3394 -0.1150
 5260TIP3    H239976   4.335   2.991   0.906  0.9285 -1.3552 -1.4935
 5261TIP3   OH239977   0.395   0.141   2.120  0.6149  0.0472  0.0349
 5261TIP3    H139978   0.451   0.063   2.122 -1.5339 -1.6172 -0.6602
 5261TIP3    H239979   0.369   0.150   2.029  0.2792  1.2038  0.2250
 5262TIP3   OH239980   4.695   3.849   9.186  0.4829  0.1593  0.6785
 5262TIP3    H139981   4.712   3.778   9.124  1.2805 -0.4126  1.5449
 5262TIP3    H239982   4.599   3.851   9.194  0.4009 -0.1406 -0.1090
 5263TIP3   OH239983   0.139   5.753   2.239 -0.4894  0.0574  0.0771
 5263TIP3    H139984   0.044   5.764   2.239 -0.4593  0.3834 -0.4452
 5263TIP3    H239985   0.154   5.674   2.187 -0.4835 -0.0415  0.2313
 5264TIP3   OH239986   4.791   6.204   1.039  0.2653 -0.4706 -0.2291
 5264TIP3    H139987   4.726   6.206   0.969  1.0786 -1.5218 -1.0507
 5264TIP3    H239988   4.750   6.150   1.107 -1.0184  1.5321  0.6721
 5265TIP3   OH239989   5.130   0.297   6.585  0.1583  0.0742 -0.3759
 5265TIP3    H139990   5.085   0.212   6.583  1.7968 -0.8374 -3.2219
 5265TIP3    H239991   5.188   0.291   6.661 -1.8608 -0.0705  1.2664
 5266TIP3   OH239992   3.209   6.497   8.506  0.0323  0.6493 -0.2124
 5266TIP3    H139993   3.138   6.518   8.444 -1.2715 -2.3972  0.0493
 5266TIP3    H239994   3.210   6.571   8.567 -3.2020  0.7066 -0.0347
 5267TIP3   OH239995   7.178   5.408   8.196  0.1962 -0.5600  0.0777
 5267TIP3    H139996   7.176   5.460   8.116  1.3086 -0.7780 -0.1074
 5267TIP3    H239997   7.100   5.434   8.244  0.4161  0.8446 -0.2918
 5268TIP3   OH239998   4.883   6.198   7.287 -0.0790 -0.2337 -0.0647
 5268TIP3    H139999   4.922   6.137   7.224 -0.0778 -0.3816  0.0778
 5268TIP3    H240000   4.878   6.148   7.369 -3.4766 -1.3115 -0.7845
 5269TIP3   OH240001   5.201   0.122   9.217 -0.7236  0.2432 -0.0769
 5269TIP3    H140002   5.221   0.052   9.154  0.7167  2.6104 -2.4922
 5269TIP3    H240003   5.173   0.076   9.296 -0.0572 -3.0186 -1.5550
 5270TIP3   OH240004   6.002   1.520   1.161  0.3774  0.1187 -0.1604
 5270TIP3    H140005   5.999   1.541   1.068  1.1320  0.4422 -0.1149
 5270TIP3    H240006   6.050   1.593   1.201 -2.0132  1.2766  0.8435
 5271TIP3   OH240007   0.610   3.966   1.905  0.5805 -0.0062  0.0632
 5271TIP3    H140008   0.536   3.931   1.956 -0.0402  1.1496 -0.0198
 5271TIP3    H240009   0.638   4.043   1.953  1.1301  0.1018 -0.4217
 5272TIP3   OH240010   4.914   5.786   1.787 -0.1333  0.0131 -0.1550
 5272TIP3    H140011   4.956   5.846   1.725  1.3366 -4.1332 -3.7407
 5272TIP3    H240012   4.822   5.812   1.788  0.2899  1.8376 -2.1127
 5273TIP3   OH240013   0.826   0.226   0.696 -0.0642  0.3521  0.2569
 5273TIP3    H140014   0.754   0.164   0.690  1.6125 -1.5400 -1.5893
 5273TIP3    H240015   0.865   0.208   0.782 -0.2738 -0.3638  0.2103
 5274TIP3   OH240016   0.711   1.450   7.651  0.0392  0.6493  0.3267
 5274TIP3    H140017   0.650   1.503   7.701 -1.2902 -0.8871  0.4323
 5274TIP3    H240018   0.792   1.501   7.648 -0.7814  2.0679  1.4836
 5275TIP3   OH240019   4.415   2.515   1.195 -0.2857  0.1286 -0.1929
 5275TIP3    H140020   4.326   2.496   1.165 -0.3829 -0.4612  0.4576
 5275TIP3    H240021   4.424   2.609   1.182 -2.0944  0.7910  2.5264
 5276TIP3   OH240022   5.988   5.193   1.700  0.6607 -0.2441 -0.0346
 5276TIP3    H140023   5.965   5.233   1.616  0.8834  1.2608  0.5926
 5276TIP3    H240024   5.907   5.149   1.728  0.6129 -0.8544 -1.0601
 5277TIP3   OH240025   1.362   4.961   0.711 -0.4589 -0.1244  0.0547
 5277TIP3    H140026   1.300   5.029   0.685 -1.6547 -0.6282  1.3977
 5277TIP3    H240027   1.418   4.948   0.635 -2.3440 -0.0049 -1.4136
 5278TIP3   OH240028   7.127   0.817   8.149 -0.4414 -0.0978 -0.2663
 5278TIP3    H140029   7.117   0.901   8.103 -2.6608  1.1948  2.3097
 5278TIP3    H240030   7.042   0.775   8.142  0.0727 -1.2585  0.1515
 5279TIP3   OH240031   5.361   4.572   2.643 -0.2114 -0.0253 -0.1640
 5279TIP3    H140032   5.329   4.542   2.728  1.3746 -0.7370  0.2262
 5279TIP3    H240033   5.454   4.549   2.644  0.6318  2.9601 -0.7548
 5280TIP3   OH240034   3.536   2.044   0.290 -0.4722  0.5993  0.0936
 5280TIP3    H140035   3.590   2.116   0.258 -1.6757  0.8168 -1.5413
 5280TIP3    H240036   3.480   2.021   0.216  0.2010 -2.3550  0.3774
 5281TIP3   OH240037   6.642   1.276   2.871  0.3640 -0.7926  0.2557
 5281TIP3    H140038   6.615   1.184   2.863 -0.7582 -0.4860  0.4040
 5281TIP3    H240039   6.620   1.314   2.786 -0.0806 -0.4348  0.5299
 5282TIP3   OH240040   4.073   2.177   7.342 -0.1799 -0.6513 -0.0632
 5282TIP3    H140041   4.035   2.265   7.342 -0.2932 -0.7001  0.5484
 5282TIP3    H240042   4.022   2.128   7.407  0.8373 -0.7450  0.6887
 5283TIP3   OH240043   1.299   3.892   7.381 -0.7924  0.1598  0.0057
 5283TIP3    H140044   1.214   3.893   7.336  0.4270 -2.4498 -2.7138
 5283TIP3    H240045   1.305   3.804   7.419  1.9047 -1.0200 -2.7329
 5284TIP3   OH240046   2.487   0.343   9.611 -0.1199  0.3166  0.0393
 5284TIP3    H140047   2.516   0.256   9.584 -0.6335  0.4167 -0.8979
 5284TIP3    H240048   2.419   0.327   9.676 -1.1305 -0.0452 -1.0562
 5285TIP3   OH240049   3.341   1.228   8.345  0.4727  0.0821  0.0238
 5285TIP3    H140050   3.294   1.189   8.419 -0.4832 -0.2631 -0.7317
 5285TIP3    H240051   3.386   1.304   8.382  0.3260 -0.3029  1.0266
 5286TIP3   OH240052   0.737   4.909   0.697 -0.2736  0.3453 -0.1400
 5286TIP3    H140053   0.644   4.918   0.677  0.1128  1.7148 -1.5877
 5286TIP3    H240054   0.765   4.998   0.719  1.1916  0.5263 -2.3665
 5287TIP3   OH240055   6.168   6.289   0.307  0.2591 -0.0157 -0.0852
 5287TIP3    H140056   6.157   6.219   0.371  2.4295  0.3952  0.8372
 5287TIP3    H240057   6.203   6.363   0.358  0.1407  0.9951 -1.4081
 5288TIP3   OH240058   4.900   7.419   8.425 -0.6061 -0.0995  0.4242
 5288TIP3    H140059   4.962   7.372   8.480  0.4373  1.0256  0.2635
 5288TIP3    H240060   4.891   7.505   8.466  0.8181  1.0643 -1.5186
 5289TIP3   OH240061   0.622   5.226   8.599 -0.5716 -0.8230 -0.2833
 5289TIP3    H140062   0.612   5.318   8.575  1.6013 -0.7858 -1.3417
 5289TIP3    H240063   0.628   5.180   8.516  0.7085 -1.5694  0.1838
 5290TIP3   OH240064   3.592   3.421   2.106 -0.2088 -0.2949  0.0277
 5290TIP3    H140065   3.505   3.381   2.116 -0.6560  0.3562 -0.9879
 5290TIP3    H240066   3.595   3.489   2.172 -0.5679 -0.1725 -0.0796
 5291TIP3   OH240067   4.875   7.371   1.900  0.4373 -0.3278  0.1763
 5291TIP3    H140068   4.902   7.456   1.865  1.2968 -0.4349  0.5494
 5291TIP3    H240069   4.783   7.363   1.875  0.3178  0.7497  0.1959
 5292TIP3   OH240070   5.983   1.757   7.788 -0.4275 -0.4983  0.5939
 5292TIP3    H140071   6.027   1.673   7.799 -1.8973 -1.3095  0.4548
 5292TIP3    H240072   5.925   1.745   7.712  0.4500  1.1294 -0.3955
 5293TIP3   OH240073   3.940   1.995   2.686  0.6304 -0.1666 -0.2031
 5293TIP3    H140074   3.906   2.033   2.767  0.8811 -1.0278  0.3196
 5293TIP3    H240075   3.981   1.912   2.713  3.9495  1.1679 -0.5944
 5294TIP3   OH240076   4.484   5.605   7.955  0.3913  0.2835  0.3437
 5294TIP3    H140077   4.531   5.671   8.005  2.1964  0.8405 -1.9319
 5294TIP3    H240078   4.396   5.641   7.944  0.6433  1.1829  1.1566
 5295TIP3   OH240079   6.038   6.717   8.088  0.0932  0.4938 -0.1751
 5295TIP3    H140080   6.123   6.692   8.126 -0.4869 -0.0174  0.8338
 5295TIP3    H240081   6.060   6.780   8.019  1.3731 -0.4583 -0.6766
 5296TIP3   OH240082   6.762   6.155   8.818  0.3549  0.1493 -0.0906
 5296TIP3    H140083   6.691   6.209   8.783  1.4988  1.4150 -0.5537
 5296TIP3    H240084   6.765   6.176   8.911 -0.4863 -0.6425  0.1258
 5297TIP3   OH240085   3.041   7.050   0.717  0.3204  0.3030  0.5014
 5297TIP3    H140086   3.012   6.969   0.676  0.8309  0.4449 -0.1540
 5297TIP3    H240087   2.962   7.104   0.724  0.1307  0.0621  0.2063
 5298TIP3   OH240088   0.354   1.253   2.376  0.5819 -0.0263 -0.9266
 5298TIP3    H140089   0.441   1.230   2.409 -0.4030 -0.0700  1.9088
 5298TIP3    H240090   0.346   1.347   2.393  0.1056  0.0033 -1.2954
 5299TIP3   OH240091   3.772   0.183   9.218 -0.1605 -0.6226 -0.4057
 5299TIP3    H140092   3.833   0.161   9.148 -0.3907  0.7631 -1.0895
 5299TIP3    H240093   3.799   0.270   9.247 -0.8798 -0.6242  0.3269
 5300TIP3   OH240094   0.248   2.703   1.298 -0.4904 -0.0889  0.1297
 5300TIP3    H140095   0.284   2.631   1.349  0.3549  0.8674  0.9274
 5300TIP3    H240096   0.241   2.669   1.209 -0.2406 -1.1879  0.5152
 5301TIP3   OH240097   1.840   3.971   0.400  0.7127 -0.5837  0.1991
 5301TIP3    H140098   1.864   4.063   0.411 -0.4806 -0.3817  1.4273
 5301TIP3    H240099   1.810   3.964   0.310  2.9961 -0.3307 -0.6560
 5302TIP3   OH240100   7.125   1.307   7.193 -0.4569  0.7671  0.2910
 5302TIP3    H140101   7.047   1.282   7.144 -1.0516 -0.1718  1.6566
 5302TIP3    H240102   7.097   1.307   7.285  1.2592 -0.0583  0.8609
 5303TIP3   OH240103   0.500   4.243   7.518 -0.6128  0.1671  0.0292
 5303TIP3    H140104   0.455   4.287   7.446 -0.7315  0.5951  0.3584
 5303TIP3    H240105   0.526   4.158   7.482  0.2581  0.7879 -0.8366
 5304TIP3   OH240106   2.739   1.450   0.913  0.8141  0.0106  0.0041
 5304TIP3    H140107   2.748   1.441   0.819  0.1149 -0.7816  0.0003
 5304TIP3    H240108   2.821   1.417   0.949  1.3616  0.9579 -0.3433
 5305TIP3   OH240109   4.551   1.098   9.558 -0.2972 -0.5019  0.1312
 5305TIP3    H140110   4.460   1.097   9.589  0.0441 -2.2705  1.2163
 5305TIP3    H240111   4.551   1.039   9.483  0.2725 -2.1514  1.3452
 5306TIP3   OH240112   2.824   5.357   7.155 -0.1154 -0.0272  0.4548
 5306TIP3    H140113   2.730   5.353   7.135  0.0816 -2.1142 -0.2724
 5306TIP3    H240114   2.867   5.337   7.071  0.9064 -1.2879  1.2420
 5307TIP3   OH240115   3.796   6.956   8.943  0.6759 -0.2549  0.4808
 5307TIP3    H140116   3.855   6.881   8.955  0.3625 -0.3478  1.5661
 5307TIP3    H240117   3.792   6.997   9.030 -0.6772 -0.1263  0.3786
 5308TIP3   OH240118   3.444   0.529   8.774  0.4818  0.0810  0.2774
 5308TIP3    H140119   3.416   0.448   8.817  2.6040  0.8666  3.4976
 5308TIP3    H240120   3.504   0.500   8.705 -0.9892 -1.1656 -0.5158
 5309TIP3   OH240121   1.053   0.194   6.779  0.1581 -0.0236 -0.1499
 5309TIP3    H140122   1.017   0.176   6.866  0.0743 -0.9871 -0.3694
 5309TIP3    H240123   1.136   0.239   6.797 -0.4537  0.9225  0.3851
 5310TIP3   OH240124   3.112   4.128   1.091  0.1080  0.2337  0.3914
 5310TIP3    H140125   3.088   4.035   1.083 -2.5966  0.9678 -1.2702
 5310TIP3    H240126   3.158   4.133   1.175 -0.8190 -2.3877  1.1687
 5311TIP3   OH240127   2.950   4.272   9.232 -0.2086 -0.1197 -0.2075
 5311TIP3    H140128   2.919   4.250   9.144 -2.3982 -0.0328  0.4676
 5311TIP3    H240129   2.880   4.242   9.290  0.7281  0.7070  1.4365
 5312TIP3   OH240130   6.203   0.054   7.190  0.3802 -0.0614 -0.4545
 5312TIP3    H140131   6.131  -0.010   7.197  1.8454 -1.7030  0.2851
 5312TIP3    H240132   6.247   0.031   7.108  0.2613  0.7274 -0.7399
 5313TIP3   OH240133   1.851   7.072   6.737 -0.3339 -0.0539  0.2519
 5313TIP3    H140134   1.836   6.981   6.760 -0.7789 -0.0591 -0.0477
 5313TIP3    H240135   1.764   7.109   6.727 -0.1619  0.0457 -1.0252
 5314TIP3   OH240136   6.270   7.302   8.705  0.3137  0.1301 -0.3602
 5314TIP3    H140137   6.208   7.374   8.692  1.2201  0.9419 -0.2866
 5314TIP3    H240138   6.271   7.256   8.622  1.0994  1.3138 -1.0246
 5315TIP3   OH240139   2.073   3.427   8.897  0.0798 -0.4611 -0.2824
 5315TIP3    H140140   2.083   3.340   8.935  2.2189  0.6096  1.8591
 5315TIP3    H240141   2.005   3.469   8.949 -1.3567 -0.9679 -1.6746
 5316TIP3   OH240142   5.180   0.637   7.632 -0.5383 -0.2741 -0.1933
 5316TIP3    H140143   5.208   0.666   7.545  2.9929  0.5168  1.0525
 5316TIP3    H240144   5.225   0.553   7.644 -0.9434 -0.3434  0.9041
 5317TIP3   OH240145   4.534   6.444   0.798  0.1625  0.6182 -0.1349
 5317TIP3    H140146   4.621   6.468   0.833  0.2161 -0.4950  0.5256
 5317TIP3    H240147   4.475   6.456   0.872 -0.1017  0.4702 -0.3215
 5318TIP3   OH240148   0.104   6.110   1.511 -0.3402  0.5188  0.3321
 5318TIP3    H140149   0.178   6.100   1.451 -2.7413  0.7440 -2.9622
 5318TIP3    H240150   0.091   6.022   1.548  0.5266  0.0889 -0.3394
 5319TIP3   OH240151   1.640   7.273   8.473  0.0096 -0.4827  0.8043
 5319TIP3    H140152   1.693   7.353   8.468  0.5331 -0.8327  0.7551
 5319TIP3    H240153   1.573   7.286   8.406  1.1118 -0.8224 -0.4074
 5320TIP3   OH240154   2.452   1.675   8.584  0.3548  0.2721  0.3710
 5320TIP3    H140155   2.484   1.758   8.620 -0.0698 -0.2951  2.2025
 5320TIP3    H240156   2.531   1.625   8.567  0.6221  1.0678 -0.8835
 5321TIP3   OH240157   4.701   0.672   7.479  0.5949 -0.1811  0.0467
 5321TIP3    H140158   4.762   0.743   7.457 -0.7101  1.1121  0.3996
 5321TIP3    H240159   4.707   0.663   7.574 -0.8622  1.0808  0.3079
 5322TIP3   OH240160   3.097   6.121   2.269 -0.4352 -0.1524 -0.4145
 5322TIP3    H140161   3.099   6.025   2.268  1.2682 -0.1531 -0.2956
 5322TIP3    H240162   3.123   6.146   2.181 -2.3081  0.2458 -0.9007
 5323TIP3   OH240163   2.176   6.045   2.351  0.2236 -0.1174  0.0338
 5323TIP3    H140164   2.223   5.970   2.388  0.9141 -0.1023 -0.7872
 5323TIP3    H240165   2.154   6.099   2.427 -1.1039 -1.5793  0.7412
 5324TIP3   OH240166   4.192   5.781   0.394  0.2689  0.3218  0.0319
 5324TIP3    H140167   4.184   5.761   0.487  0.9023  0.5442  0.1398
 5324TIP3    H240168   4.137   5.716   0.350 -0.1847  0.3370  0.5705
 5325TIP3   OH240169   6.598   3.585   7.616  0.0510  0.1372  0.6101
 5325TIP3    H140170   6.578   3.498   7.650  1.4340 -0.7785 -0.7716
 5325TIP3    H240171   6.513   3.625   7.600 -0.6177 -0.5459  2.1985
 5326TIP3   OH240172   3.240   1.043   2.373 -0.6775  0.0124  0.1168
 5326TIP3    H140173   3.303   0.974   2.393  0.2328  1.3876  2.4543
 5326TIP3    H240174   3.167   1.027   2.432 -1.1410  0.2065 -0.3904
 5327TIP3   OH240175   2.004   1.742   0.169 -0.4748 -0.6383  0.2090
 5327TIP3    H140176   1.927   1.692   0.142 -0.5805 -1.3995  1.8195
 5327TIP3    H240177   2.013   1.811   0.103 -2.9108 -0.1439  0.3260
 5328TIP3   OH240178   5.833   3.441   1.501 -0.1140  0.0750  0.0736
 5328TIP3    H140179   5.747   3.455   1.540 -0.2872  1.0913 -0.6376
 5328TIP3    H240180   5.842   3.346   1.496  0.4181 -0.2041  3.6175
 5329TIP3   OH240181   4.692   5.719   9.599 -0.2123  1.0368 -0.2760
 5329TIP3    H140182   4.673   5.636   9.643  1.6222  0.1347 -1.0694
 5329TIP3    H240183   4.631   5.720   9.525  0.5918 -0.2899 -1.0118
 5330TIP3   OH240184   5.021   1.580   1.954 -0.4417 -0.5976  0.3725
 5330TIP3    H140185   4.966   1.658   1.944 -0.4644 -0.7218 -0.5204
 5330TIP3    H240186   4.965   1.517   1.999 -0.2103  0.1135  1.6872
 5331TIP3   OH240187   5.084   1.509   9.059  0.7146  0.3948  0.3792
 5331TIP3    H140188   5.007   1.552   9.095  0.5174 -0.6545  1.2343
 5331TIP3    H240189   5.156   1.538   9.114  0.4044 -1.2548  1.7036
 5332TIP3   OH240190   0.469   6.330   8.563 -0.1909 -0.4467 -0.0652
 5332TIP3    H140191   0.524   6.298   8.634 -0.1048  0.7499  0.4272
 5332TIP3    H240192   0.411   6.394   8.604  0.6400  1.1394 -1.2678
 5333TIP3   OH240193   2.622   5.501   1.840  0.1586 -0.2187  1.0653
 5333TIP3    H140194   2.563   5.562   1.885 -0.7137  0.1733 -0.5609
 5333TIP3    H240195   2.605   5.416   1.881  1.0587  0.4940  3.0447
 5334TIP3   OH240196   0.814   2.979   1.592 -0.0753 -0.3288 -0.0153
 5334TIP3    H140197   0.844   3.034   1.519 -0.4013 -0.7431 -0.4710
 5334TIP3    H240198   0.893   2.963   1.644  0.1048  0.2119 -0.1124
 5335TIP3   OH240199   0.215   3.069   1.756 -0.2927 -0.4729 -0.5480
 5335TIP3    H140200   0.138   3.030   1.797  0.1798  0.2922  1.1510
 5335TIP3    H240201   0.228   3.019   1.676 -1.3434 -1.9473  0.1676
 5336TIP3   OH240202   5.278   5.232   6.844  0.4565 -0.3774  0.1551
 5336TIP3    H140203   5.199   5.201   6.888  2.3217 -1.0139  3.3778
 5336TIP3    H240204   5.336   5.156   6.844  2.3809  1.0106  1.2948
 5337TIP3   OH240205   0.934   2.625   8.895  0.1135  0.2832  0.0826
 5337TIP3    H140206   0.928   2.541   8.848  1.0483  0.5755 -0.5804
 5337TIP3    H240207   0.857   2.625   8.952 -1.4195  0.1509 -1.8547
 5338TIP3   OH240208   5.839   5.763   9.326 -0.4146 -0.0275  0.0793
 5338TIP3    H140209   5.753   5.805   9.336 -1.0379 -1.0902 -0.6403
 5338TIP3    H240210   5.867   5.789   9.238  1.3591  2.6796  1.3284
 5339TIP3   OH240211   2.261   0.413   1.218  0.3123  0.4609 -0.2313
 5339TIP3    H140212   2.168   0.388   1.208  0.1998  0.9963 -0.5714
 5339TIP3    H240213   2.274   0.420   1.312 -0.0311  0.5154 -0.1849
 5340TIP3   OH240214   0.448   3.850   8.332 -0.4984 -0.3818 -0.4395
 5340TIP3    H140215   0.387   3.924   8.330 -0.7892 -0.6078 -0.0628
 5340TIP3    H240216   0.526   3.885   8.375 -0.0526  0.1278 -1.6139
 5341TIP3   OH240217   0.478   2.392   1.916 -0.0673  0.4096 -0.1085
 5341TIP3    H140218   0.482   2.297   1.931 -1.6119  0.2218 -0.6920
 5341TIP3    H240219   0.537   2.407   1.842  1.4773  0.1878  1.0174
 5342TIP3   OH240220   0.830   5.426   8.099 -0.1965 -0.1617 -0.2912
 5342TIP3    H140221   0.869   5.486   8.163 -1.7090  1.0369 -0.4413
 5342TIP3    H240222   0.875   5.444   8.017  0.7906 -0.7287  0.1114
 5343TIP3   OH240223   4.375   3.246   8.219  0.4429  0.4091  0.1735
 5343TIP3    H140224   4.280   3.251   8.228  0.4669 -1.0325  1.7059
 5343TIP3    H240225   4.392   3.258   8.125 -1.1557  1.5865 -0.0013
 5344TIP3   OH240226   3.066   1.202   7.202 -0.1645  0.3955 -0.2490
 5344TIP3    H140227   3.036   1.252   7.277 -0.5766 -0.8578  0.4599
 5344TIP3    H240228   3.124   1.135   7.239 -0.4914 -0.3363 -1.0185
 5345TIP3   OH240229   5.385   6.278   8.731  0.1396 -0.1385  0.0076
 5345TIP3    H140230   5.431   6.338   8.672 -0.4285 -1.9986 -2.5341
 5345TIP3    H240231   5.296   6.312   8.735 -0.6082 -1.4542 -2.6876
 5346TIP3   OH240232   4.271   5.706   1.705 -0.1435  0.6085 -0.3801
 5346TIP3    H140233   4.230   5.657   1.777  1.9952 -0.3500  0.2742
 5346TIP3    H240234   4.223   5.678   1.627 -0.4468 -0.8197  0.2856
 5347TIP3   OH240235   2.724   0.097   9.049  0.5812 -0.0866 -0.1734
 5347TIP3    H140236   2.637   0.123   9.080  1.6335  2.2189  1.1292
 5347TIP3    H240237   2.707   0.045   8.971 -1.9898 -0.5315  0.5850
 5348TIP3   OH240238   2.861   2.200   1.626  0.1652  0.1168  0.7431
 5348TIP3    H140239   2.866   2.203   1.721  1.1287 -1.4388  0.7931
 5348TIP3    H240240   2.827   2.285   1.600 -0.0829  0.5744  2.4700
 5349TIP3   OH240241   4.834   2.522   0.455 -0.2389 -0.1260  0.2370
 5349TIP3    H140242   4.788   2.604   0.438  0.7668  0.5789  0.8098
 5349TIP3    H240243   4.872   2.533   0.542 -1.4565 -1.8646  1.0535
 5350TIP3   OH240244   5.486   7.265   1.495  0.0428  0.1238 -0.2625
 5350TIP3    H140245   5.489   7.247   1.589  2.7806  2.3461  0.2002
 5350TIP3    H240246   5.437   7.347   1.487  0.2784  0.2260 -0.7159
 5351TIP3   OH240247   1.435   3.909   7.761  0.3047 -0.3547  0.1155
 5351TIP3    H140248   1.394   3.993   7.743 -0.2804 -0.1741  2.0389
 5351TIP3    H240249   1.365   3.855   7.799  0.6003 -1.8122 -1.3011
 5352TIP3   OH240250   0.228   4.580   8.890 -0.5757 -0.1217 -0.0968
 5352TIP3    H140251   0.142   4.580   8.848 -0.7007  0.5689  0.1418
 5352TIP3    H240252   0.288   4.607   8.821 -1.0340  2.9962  0.5815
 5353TIP3   OH240253   3.995   4.162   9.180 -0.2140  0.6486 -0.0534
 5353TIP3    H140254   4.079   4.202   9.158 -1.2071  1.5901 -2.5189
 5353TIP3    H240255   3.935   4.193   9.112 -2.0100 -1.9451  0.2005
 5354TIP3   OH240256   4.025   5.004   1.229 -0.2297  0.2319  0.5311
 5354TIP3    H140257   3.984   5.058   1.161 -0.3178 -0.5375 -0.0360
 5354TIP3    H240258   4.050   4.923   1.184 -0.6772 -0.4720  1.5194
 5355TIP3   OH240259   0.453   0.258   6.396 -0.5513 -0.1582 -0.0111
 5355TIP3    H140260   0.518   0.291   6.458 -0.4972 -0.5562  0.1455
 5355TIP3    H240261   0.404   0.192   6.446 -0.7787 -0.1818 -0.2651
 5356TIP3   OH240262   0.735   3.938   8.313 -0.0940  0.2305 -0.4550
 5356TIP3    H140263   0.736   4.025   8.272 -1.0684  0.5225  0.1157
 5356TIP3    H240264   0.789   3.884   8.255  0.0948  1.0848 -1.1035
 5357TIP3   OH240265   0.907   3.512   1.412  0.7295 -0.7092  0.3808
 5357TIP3    H140266   0.837   3.457   1.377  0.8978 -0.2116 -0.8115
 5357TIP3    H240267   0.900   3.504   1.507 -0.7096 -0.9535  0.2714
 5358TIP3   OH240268   1.628   4.306   7.895  0.0063  0.4199 -0.2268
 5358TIP3    H140269   1.701   4.291   7.835 -1.1796  0.3490 -1.7139
 5358TIP3    H240270   1.636   4.398   7.920  0.9158  0.2674  0.0930
 5359TIP3   OH240271   4.364   0.131   1.904 -0.3253 -0.4604  0.2573
 5359TIP3    H140272   4.392   0.056   1.852 -0.8008 -0.7302  0.3857
 5359TIP3    H240273   4.381   0.207   1.848 -0.8548 -0.7479 -0.2962
 5360TIP3   OH240274   3.016   5.427   7.416  0.6309 -0.1645  0.0168
 5360TIP3    H140275   3.025   5.338   7.450 -2.5703 -0.4771  0.3461
 5360TIP3    H240276   3.068   5.428   7.335  1.2164 -2.0974  0.3271
 5361TIP3   OH240277   4.055   4.007   1.663  0.0202 -0.0374  0.4726
 5361TIP3    H140278   4.006   3.931   1.631  1.8444 -1.1386  0.1491
 5361TIP3    H240279   4.080   3.984   1.752 -1.1459  1.0821  1.1086
 5362TIP3   OH240280   6.632   1.847   0.105 -0.7490  0.0333 -0.0619
 5362TIP3    H140281   6.617   1.755   0.126  1.0843  0.0675  1.7673
 5362TIP3    H240282   6.687   1.845   0.027 -1.6403 -0.3612 -0.6937
 5363TIP3   OH240283   6.957   2.144   6.746 -0.5632 -0.0316  0.0709
 5363TIP3    H140284   6.886   2.157   6.809  1.4022  1.4588  2.1343
 5363TIP3    H240285   6.961   2.049   6.734 -1.8410 -0.2615  1.1800
 5364TIP3   OH240286   0.119   5.239   2.037  0.7598  0.2601  0.2893
 5364TIP3    H140287   0.141   5.235   1.944 -0.1050 -2.1636  0.1135
 5364TIP3    H240288   0.176   5.174   2.078  0.4570  0.6070  1.2999
 5365TIP3   OH240289   1.004   2.223   2.734 -0.5227 -0.2305 -0.0704
 5365TIP3    H140290   1.037   2.133   2.744 -1.0799 -0.5091 -0.7061
 5365TIP3    H240291   0.916   2.220   2.772 -0.9002 -0.1848 -0.9300
 5366TIP3   OH240292   3.594   0.082   0.354  0.4342  0.0382 -0.1436
 5366TIP3    H140293   3.523   0.113   0.410  0.5082 -0.3254  0.1578
 5366TIP3    H240294   3.552   0.059   0.271 -0.1357 -1.9870  0.6374
 5367TIP3   OH240295   4.283   6.894   2.442  0.4543  0.1137  0.5942
 5367TIP3    H140296   4.214   6.874   2.379  1.0952 -0.2448 -0.0112
 5367TIP3    H240297   4.262   6.982   2.473  1.1250  1.0915 -1.5193
 5368TIP3   OH240298   7.125   6.624   1.522  0.0266  0.4459  0.2122
 5368TIP3    H140299   7.135   6.667   1.437  1.5542  2.0750  1.1469
 5368TIP3    H240300   7.208   6.577   1.535 -0.1434  0.3146  0.8656
 5369TIP3   OH240301   0.282   6.112   7.500  0.1990 -0.1986 -0.4805
 5369TIP3    H140302   0.207   6.158   7.538 -0.4703  0.4757 -2.4954
 5369TIP3    H240303   0.255   6.021   7.495  0.1183 -0.2182  0.1851
 5370TIP3   OH240304   0.600   2.041   3.153  0.1405  0.3721 -0.8376
 5370TIP3    H140305   0.522   2.095   3.141  1.1068  1.5954 -1.8949
 5370TIP3    H240306   0.574   1.974   3.217 -2.3758 -0.4908 -2.6466
 5371TIP3   OH240307   6.550   0.727   8.467  0.2418 -0.1388 -0.4718
 5371TIP3    H140308   6.612   0.669   8.512 -0.6572  0.6205  1.9434
 5371TIP3    H240309   6.513   0.674   8.397  1.9535 -1.3284 -0.5492
 5372TIP3   OH240310   6.205   3.923   9.631 -0.0815  0.0491  0.0214
 5372TIP3    H140311   6.258   3.845   9.617  0.0704  0.2395 -0.4784
 5372TIP3    H240312   6.166   3.941   9.545 -0.2845  0.3988  0.1850
 5373TIP3   OH240313   1.398   3.285   7.270  0.2525  0.1422 -0.4350
 5373TIP3    H140314   1.380   3.316   7.358  1.3996  0.0626 -0.1480
 5373TIP3    H240315   1.410   3.364   7.218 -0.3764  0.1885 -0.5112
 5374TIP3   OH240316   6.211   0.892   7.889  0.8074  0.6234  0.2444
 5374TIP3    H140317   6.195   0.815   7.943 -0.2418  0.9008  0.3525
 5374TIP3    H240318   6.164   0.875   7.807  1.6815  0.5783 -0.2711
 5375TIP3   OH240319   3.432   3.575   8.829  0.4023  0.4699 -0.2054
 5375TIP3    H140320   3.350   3.622   8.814 -0.0561 -0.6598 -1.4680
 5375TIP3    H240321   3.408   3.483   8.819  1.8428  0.1283 -0.6474
 5376TIP3   OH240322   0.513   1.828   1.818  0.0424 -1.0979 -0.0438
 5376TIP3    H140323   0.518   1.733   1.807  0.5698 -1.2016  0.9770
 5376TIP3    H240324   0.426   1.843   1.855  0.4141 -1.3055  0.9188
 5377TIP3   OH240325   0.910   6.920   0.679  0.0039  0.2870 -0.2419
 5377TIP3    H140326   0.976   6.900   0.613  0.6345  1.4084  0.0308
 5377TIP3    H240327   0.914   6.845   0.739  0.9868  0.3029 -0.2679
 5378TIP3   OH240328   3.096   7.012   8.438 -0.3022  0.2717 -0.5020
 5378TIP3    H140329   3.087   6.925   8.398  1.0310 -0.0569 -0.1284
 5378TIP3    H240330   3.038   7.068   8.387  0.0674 -0.4971 -1.8039
 5379TIP3   OH240331   6.888   7.288   7.694 -0.0590 -0.5055 -0.4744
 5379TIP3    H140332   6.896   7.356   7.760  0.9530 -0.9853 -0.0974
 5379TIP3    H240333   6.817   7.231   7.726 -1.7856  1.0043 -1.3961
 5380TIP3   OH240334   2.717   2.390   7.091 -0.7196 -0.6315 -0.2759
 5380TIP3    H140335   2.774   2.418   7.020 -2.5502 -0.1456 -1.5986
 5380TIP3    H240336   2.696   2.470   7.139 -3.3408 -0.0806 -2.1323
 5381TIP3   OH240337   0.477   2.736   7.930  0.1745 -0.1090  0.5712
 5381TIP3    H140338   0.424   2.816   7.937 -0.2440 -0.0516 -1.9849
 5381TIP3    H240339   0.473   2.714   7.837 -0.2780 -3.5094  1.2740
 5382TIP3   OH240340   0.443   4.441   1.006 -0.4043 -0.0323 -0.5347
 5382TIP3    H140341   0.467   4.481   0.922  1.1438  1.6301  0.6277
 5382TIP3    H240342   0.438   4.514   1.067 -0.5838 -1.3014  1.0300
 5383TIP3   OH240343   5.601   4.118   1.600 -0.2232  0.4103 -0.1052
 5383TIP3    H140344   5.609   4.160   1.514  1.3593 -0.1186 -0.2449
 5383TIP3    H240345   5.507   4.118   1.617 -0.6824 -0.3179 -2.2740
 5384TIP3   OH240346   6.707   2.351   7.136 -0.1787 -0.4043 -0.0093
 5384TIP3    H140347   6.672   2.437   7.161  1.3766  0.1614  0.3664
 5384TIP3    H240348   6.800   2.356   7.159  0.0100 -2.0749 -0.3203
 5385TIP3   OH240349   2.450   4.494   9.094 -0.5347  0.3128 -0.2917
 5385TIP3    H140350   2.423   4.582   9.068  0.2751 -0.0837 -2.7553
 5385TIP3    H240351   2.522   4.508   9.156 -1.5431  1.3462  0.6883
 5386TIP3   OH240352   7.087   1.109   1.606  0.0110  0.2701 -0.0128
 5386TIP3    H140353   7.101   1.202   1.587 -0.6992  0.1693 -1.1227
 5386TIP3    H240354   7.152   1.088   1.672  0.6688  1.3833 -0.2822
 5387TIP3   OH240355   6.127   0.446   0.510 -0.4554 -0.1511  0.2851
 5387TIP3    H140356   6.068   0.376   0.482 -0.4888 -0.2220  0.5303
 5387TIP3    H240357   6.084   0.527   0.483 -0.2831 -0.2346 -0.2527
 5388TIP3   OH240358   0.903   7.303   0.568 -0.1778 -0.4100  0.0896
 5388TIP3    H140359   0.991   7.266   0.562 -0.1483 -0.6093  1.4544
 5388TIP3    H240360   0.857   7.268   0.492  0.5313 -1.3869  0.0879
 5389TIP3   OH240361   4.009   1.449   0.826 -0.3844  0.4054  0.2708
 5389TIP3    H140362   4.027   1.534   0.784 -1.2694  0.8220  0.7244
 5389TIP3    H240363   3.979   1.393   0.755  0.5855  0.3323 -0.1074
 5390TIP3   OH240364   2.634   2.505   1.074  0.6192  0.2879  0.2794
 5390TIP3    H140365   2.569   2.573   1.094 -0.6150 -0.4238 -1.0988
 5390TIP3    H240366   2.671   2.481   1.159  1.4020  2.9350  0.7775
 5391TIP3   OH240367   7.133   0.197   2.707 -0.1858  0.6133 -0.3331
 5391TIP3    H140368   7.051   0.211   2.754 -1.8399 -1.5027 -2.3255
 5391TIP3    H240369   7.128   0.256   2.632  1.1765  2.0060  0.6058
 5392TIP3   OH240370   2.493   5.071   8.870 -0.0800 -0.3090 -0.2881
 5392TIP3    H140371   2.441   5.149   8.891 -0.9565 -0.0921 -2.8271
 5392TIP3    H240372   2.445   5.030   8.798  2.2240 -1.2386 -1.3985
 5393TIP3   OH240373   1.430   0.491   9.460 -0.1134  0.0208  0.3766
 5393TIP3    H140374   1.525   0.495   9.452 -0.1779  1.3281  0.0750
 5393TIP3    H240375   1.415   0.450   9.546  0.6976 -0.6587  0.2135
 5394TIP3   OH240376   4.652   1.562   0.711  0.8654 -0.3633 -0.2686
 5394TIP3    H140377   4.611   1.642   0.744  0.6989 -1.0167  1.2141
 5394TIP3    H240378   4.738   1.590   0.680  0.9076  0.3570  0.4736
 5395TIP3   OH240379   3.850   0.346   1.346  0.1056  0.4764 -0.1489
 5395TIP3    H140380   3.939   0.362   1.376  0.8991 -2.5425 -0.6142
 5395TIP3    H240381   3.860   0.309   1.258 -1.6751  0.8474 -0.5514
 5396TIP3   OH240382   0.597   5.971   7.926  0.0559 -0.3804  0.4733
 5396TIP3    H140383   0.570   5.937   7.841  0.5712 -0.3339  0.2908
 5396TIP3    H240384   0.514   5.993   7.970 -0.2915 -1.8693  0.5994
 5397TIP3   OH240385   5.736   6.618   1.420  0.8086  0.1692 -0.2482
 5397TIP3    H140386   5.645   6.589   1.417  1.4253 -1.8642 -1.3691
 5397TIP3    H240387   5.731   6.713   1.423 -1.3425  0.1698 -1.6006
 5398TIP3   OH240388   1.642   5.596   0.697 -0.6260 -0.1180 -0.5012
 5398TIP3    H140389   1.695   5.549   0.761 -1.9992 -0.7923  0.1881
 5398TIP3    H240390   1.705   5.643   0.643  0.6000  0.0948  1.0574
 5399TIP3   OH240391   5.069   2.817   0.045  0.3615 -0.2368 -0.0989
 5399TIP3    H140392   4.983   2.779   0.031  0.3431 -0.7949  1.3918
 5399TIP3    H240393   5.121   2.747   0.083  0.5616  0.9206  1.9258
 5400TIP3   OH240394   1.527   6.635   8.514  0.1041  0.7887 -0.0387
 5400TIP3    H140395   1.468   6.644   8.589  0.5999 -0.6852  0.5626
 5400TIP3    H240396   1.488   6.565   8.462  0.5125  0.8642 -0.4486
 5401TIP3   OH240397   2.868   1.995   8.547 -0.2455 -0.1398  0.2065
 5401TIP3    H140398   2.915   1.914   8.562 -0.3122 -0.2660 -0.2539
 5401TIP3    H240399   2.930   2.064   8.571 -0.2315 -0.3262  0.7156
 5402TIP3   OH240400   6.449   6.897   8.685 -0.8790  0.4451 -0.6033
 5402TIP3    H140401   6.408   6.911   8.600 -2.4279  0.0990  0.0532
 5402TIP3    H240402   6.389   6.938   8.747  0.2207  0.6817  0.3345
 5403TIP3   OH240403   2.085   1.933   1.609  0.1184  0.1865  0.0159
 5403TIP3    H140404   2.109   2.023   1.589 -0.7967  0.9319  2.0017
 5403TIP3    H240405   2.026   1.908   1.539  0.3273  1.1656 -0.5256
 5404TIP3   OH240406   5.425   0.269   0.831 -0.5018  0.5351  0.3846
 5404TIP3    H140407   5.474   0.298   0.907  0.0735 -0.1626  0.2912
 5404TIP3    H240408   5.348   0.225   0.866  0.1308 -0.4310  0.5903
 5405TIP3   OH240409   0.656   3.170   8.246 -0.1727  0.2833  0.0667
 5405TIP3    H140410   0.708   3.097   8.213 -1.4557 -0.6600  0.0287
 5405TIP3    H240411   0.698   3.248   8.211  1.1275 -0.4403 -0.0503
 5406TIP3   OH240412   6.261   7.128   8.424  0.1302 -0.4728 -0.0476
 5406TIP3    H140413   6.317   7.053   8.403 -0.8415 -1.1354 -0.3452
 5406TIP3    H240414   6.192   7.126   8.358 -1.6711 -1.1846  1.7527
 5407TIP3   OH240415   0.202   4.540   2.035 -0.0634 -0.4601 -0.3246
 5407TIP3    H140416   0.196   4.616   1.977 -1.0859 -0.3197 -0.0593
 5407TIP3    H240417   0.277   4.558   2.092 -1.3392  1.2270  0.9293
 5408TIP3   OH240418   6.591   0.241   2.887  0.1953  0.1217 -0.3322
 5408TIP3    H140419   6.557   0.316   2.839 -0.9251 -0.1785 -0.0295
 5408TIP3    H240420   6.596   0.270   2.978 -0.9285 -0.3871 -0.0971
 5409TIP3   OH240421   2.248   1.263   2.271 -0.2060  0.3814  0.1928
 5409TIP3    H140422   2.250   1.332   2.205 -0.8018  0.3674  0.1542
 5409TIP3    H240423   2.235   1.310   2.354 -0.7686  0.3085  0.1489
 5410TIP3   OH240424   0.580   6.337   8.047  0.5644 -0.6557  0.2620
 5410TIP3    H140425   0.539   6.332   8.133 -1.7070 -2.4751 -0.8092
 5410TIP3    H240426   0.586   6.430   8.028  1.6627 -0.1786  2.5761
 5411TIP3   OH240427   0.005   6.103   8.174 -0.8084  0.3513 -0.4210
 5411TIP3    H140428  -0.031   6.157   8.104 -0.6595 -0.5446 -1.2073
 5411TIP3    H240429   0.040   6.026   8.129 -0.6923 -0.2302  0.6396
 5412TIP3   OH240430   4.338   1.076   0.044  0.1318 -0.6065  0.4247
 5412TIP3    H140431   4.317   1.085   0.137  2.7726  2.8451  0.8617
 5412TIP3    H240432   4.270   1.126  -0.001 -0.5491 -1.4023  0.5395
 5413TIP3   OH240433   6.610   3.465   2.916 -0.1169 -0.3661  0.5993
 5413TIP3    H140434   6.587   3.375   2.894 -0.6664 -0.0628 -0.1347
 5413TIP3    H240435   6.529   3.504   2.948 -0.1745  0.1676 -0.1533
 5414TIP3   OH240436   7.041   4.676   0.416 -0.1562  0.5508 -0.1998
 5414TIP3    H140437   7.117   4.729   0.391 -0.4967  0.8143 -0.6914
 5414TIP3    H240438   6.983   4.680   0.340  0.6189 -2.0529 -0.9996
 5415TIP3   OH240439   6.253   4.897   8.868 -0.2778  0.4992  0.1207
 5415TIP3    H140440   6.211   4.913   8.953 -0.0010  3.4244 -0.1721
 5415TIP3    H240441   6.234   4.805   8.849 -0.1432 -0.3540  3.4253
 5416TIP3   OH240442   4.293   2.949   7.407 -0.0189  0.2151  0.5487
 5416TIP3    H140443   4.294   2.999   7.489  0.8605  0.0597  0.6458
 5416TIP3    H240444   4.309   3.015   7.340  0.6584  0.1477  0.6347
 5417TIP3   OH240445   0.661   3.543   7.453 -0.2372 -0.4477  0.0709
 5417TIP3    H140446   0.584   3.517   7.504  0.2037 -1.8711  0.0314
 5417TIP3    H240447   0.735   3.518   7.506  0.2216 -0.9287 -0.7779
 5418TIP3   OH240448   3.650   6.775   8.586  0.2331  0.6280  0.5312
 5418TIP3    H140449   3.570   6.769   8.639 -0.0398  2.5190  0.4038
 5418TIP3    H240450   3.702   6.842   8.629  1.2895  0.1696  0.0019
 5419TIP3   OH240451   6.368   1.167   0.094 -0.2463 -0.3810 -0.4559
 5419TIP3    H140452   6.389   1.199   0.007  0.2583 -2.5935 -1.2023
 5419TIP3    H240453   6.422   1.089   0.105 -1.1011 -0.7740  1.4042
 5420TIP3   OH240454   5.957   2.740   0.167 -0.1497 -0.0196  0.3078
 5420TIP3    H140455   5.959   2.651   0.202 -1.0883  0.3184  1.2723
 5420TIP3    H240456   5.970   2.729   0.073  2.4232 -0.9705  0.6749
 5421TIP3   OH240457   7.238   3.379   3.101 -0.1751 -0.0717 -0.2117
 5421TIP3    H140458   7.294   3.332   3.163 -0.5282 -2.2336 -1.4246
 5421TIP3    H240459   7.298   3.435   3.052  0.9890 -2.2576 -1.4138
 5422TIP3   OH240460   4.583   1.978   2.609 -0.7125 -0.2783  0.1860
 5422TIP3    H140461   4.518   1.916   2.641 -3.4899  1.6510 -1.2538
 5422TIP3    H240462   4.560   2.061   2.652  2.4982  0.0128  1.6163
 5423TIP3   OH240463   5.639   3.250   2.418  0.1387 -0.3533  0.8475
 5423TIP3    H140464   5.609   3.240   2.508  1.4503 -1.6722  1.1898
 5423TIP3    H240465   5.734   3.260   2.426  0.3329 -1.0370 -0.4110
 5424TIP3   OH240466   4.962   2.795   7.669 -0.0296  0.3173 -0.2681
 5424TIP3    H140467   4.869   2.771   7.661 -0.2105  0.7913  0.3077
 5424TIP3    H240468   4.974   2.813   7.762  0.6331  0.3116 -0.3490
 5425TIP3   OH240469   3.312   4.009   6.660  0.3133  0.6474 -0.2525
 5425TIP3    H140470   3.407   4.001   6.661  0.6177  3.2155  1.1098
 5425TIP3    H240471   3.282   3.953   6.731  0.4748 -2.1025 -2.1957
 5426TIP3   OH240472   4.836   2.170   9.101 -0.4656 -0.3773  0.0978
 5426TIP3    H140473   4.912   2.112   9.091 -0.1694 -0.1641  1.0480
 5426TIP3    H240474   4.767   2.128   9.050  0.7202  0.2484 -2.1459
 5427TIP3   OH240475   4.300   7.266   1.157  0.0697 -0.1291 -0.4406
 5427TIP3    H140476   4.359   7.191   1.156 -1.8215 -1.7460  0.6313
 5427TIP3    H240477   4.316   7.308   1.241  1.0566  0.6764 -0.9987
 5428TIP3   OH240478   6.559   7.166   0.637  0.1738  0.1256 -0.0317
 5428TIP3    H140479   6.465   7.156   0.655  0.3686 -1.2470  0.3655
 5428TIP3    H240480   6.599   7.170   0.724  0.6560 -1.4783 -0.1417
 5429TIP3   OH240481   3.381   4.672   1.498  0.1081 -0.4948  0.1618
 5429TIP3    H140482   3.300   4.631   1.470 -0.7471  2.3686 -2.0081
 5429TIP3    H240483   3.356   4.761   1.525  2.5652  0.9158 -1.7516
 5430TIP3   OH240484   6.481   3.204   7.511  0.3968  0.4768  0.2626
 5430TIP3    H140485   6.449   3.261   7.441  0.4995  1.1641  0.7715
 5430TIP3    H240486   6.403   3.159   7.543  0.4238 -0.2796 -0.6654
 5431TIP3   OH240487   7.192   1.384   1.028  0.0242 -0.1170  0.0868
 5431TIP3    H140488   7.121   1.320   1.027  1.2171 -1.5200  1.1174
 5431TIP3    H240489   7.255   1.350   1.092  0.3453  2.5092  1.3127
 5432TIP3   OH240490   1.576   2.969   8.985  0.1004 -0.3376  0.1154
 5432TIP3    H140491   1.534   2.892   9.023 -2.4484  0.3770 -1.0657
 5432TIP3    H240492   1.618   3.012   9.060  0.1453 -1.9451  1.0722
 5433TIP3   OH240493   5.048   1.637   8.811  0.3365  0.8204  0.2301
 5433TIP3    H140494   5.039   1.597   8.897 -0.2908  1.7103  0.5834
 5433TIP3    H240495   5.114   1.583   8.767  1.2949  0.8596  1.5602
 5434TIP3   OH240496   1.360   7.053   7.837 -0.3107  0.1607  0.4231
 5434TIP3    H140497   1.276   7.007   7.837 -0.2425  0.0356  0.8860
 5434TIP3    H240498   1.356   7.110   7.914  0.6584 -1.0069  1.3945
 5435TIP3   OH240499   4.358   6.893   7.951  0.8507 -0.0121 -0.6524
 5435TIP3    H140500   4.428   6.926   8.007 -1.3722  0.0709  2.2617
 5435TIP3    H240501   4.330   6.968   7.899  1.3387  0.5439 -0.1162
 5436TIP3   OH240502   3.784   6.007   7.730  0.1453 -0.3371 -0.0862
 5436TIP3    H140503   3.832   6.054   7.797  2.4789 -1.2437 -1.0230
 5436TIP3    H240504   3.766   6.072   7.662  1.5462 -0.3172 -0.4585
 5437TIP3   OH240505   3.013   2.247   1.162 -0.8292 -0.2887 -0.2252
 5437TIP3    H140506   3.089   2.195   1.135  1.4457  1.8705  1.5199
 5437TIP3    H240507   3.027   2.333   1.122 -0.5560  1.1179  2.6133
 5438TIP3   OH240508   6.483   4.571   1.041 -0.3490 -0.3706 -0.1399
 5438TIP3    H140509   6.547   4.503   1.063 -0.3011 -0.1888  0.2968
 5438TIP3    H240510   6.406   4.523   1.012 -0.3766 -0.6180  0.3280
 5439TIP3   OH240511   3.692   1.244   1.483 -0.2107  0.0330 -0.2076
 5439TIP3    H140512   3.660   1.154   1.491 -0.9630  0.1487 -1.6236
 5439TIP3    H240513   3.613   1.299   1.486  0.3327  0.8325  2.2370
 5440TIP3   OH240514   5.213   6.112   7.989  0.5000  0.5159 -0.7491
 5440TIP3    H140515   5.244   6.043   8.047 -0.8992  1.0963  0.7670
 5440TIP3    H240516   5.280   6.118   7.921  1.2023 -1.5611 -0.3199
 5441TIP3   OH240517   2.360   1.020   8.765 -0.3696 -0.7177 -0.1852
 5441TIP3    H140518   2.309   1.097   8.742 -0.1670 -0.4388  0.2938
 5441TIP3    H240519   2.449   1.053   8.782 -0.5048 -0.9025  0.9760
 5442TIP3   OH240520   6.727   3.854   8.163  0.0049  0.2252  0.1529
 5442TIP3    H140521   6.683   3.825   8.243  0.1666 -2.2578 -0.5923
 5442TIP3    H240522   6.658   3.856   8.097  0.0128  1.5948  0.1469
 5443TIP3   OH240523   4.746   2.023   2.336 -0.1491 -0.4233 -0.1709
 5443TIP3    H140524   4.706   2.107   2.312 -1.0520 -0.2301  1.8231
 5443TIP3    H240525   4.837   2.046   2.356 -0.1951 -0.0526 -0.3670
 5444TIP3   OH240526   3.692   5.044   8.548 -0.5853  0.4023 -0.1830
 5444TIP3    H140527   3.712   5.113   8.611 -0.0798 -1.2740  1.5929
 5444TIP3    H240528   3.762   5.051   8.483  0.3923  0.5751  0.8491
 5445TIP3   OH240529   1.727   3.691   2.732 -0.3942  0.2415  0.2300
 5445TIP3    H140530   1.806   3.724   2.775 -0.4975  0.2415  0.4223
 5445TIP3    H240531   1.724   3.598   2.754 -0.8942  0.4072  0.9364
 5446TIP3   OH240532   6.059   4.424   8.919 -0.3105  0.7126 -0.4946
 5446TIP3    H140533   5.983   4.470   8.882 -1.6359 -0.8378  0.1894
 5446TIP3    H240534   6.066   4.344   8.868 -1.4065 -0.8696  1.6750
 5447TIP3   OH240535   7.226   4.876   2.448  0.0300  0.9380 -0.7279
 5447TIP3    H140536   7.282   4.853   2.374  1.7320 -0.6797  0.9363
 5447TIP3    H240537   7.177   4.796   2.467  1.5149  0.4476  1.3960
 5448TIP3   OH240538   1.897   1.564   8.518 -0.1471  0.3076 -0.1340
 5448TIP3    H140539   1.802   1.570   8.511 -0.3422 -0.7839  1.0071
 5448TIP3    H240540   1.922   1.495   8.456 -0.2002  0.0889  0.0848
 5449TIP3   OH240541   0.898   7.135   2.067  0.1799 -0.8752  0.0313
 5449TIP3    H140542   0.976   7.084   2.045  0.5784 -0.1597 -0.2590
 5449TIP3    H240543   0.836   7.070   2.101  0.7246 -1.5251 -0.1801
 5450TIP3   OH240544   1.899   2.376   8.509 -0.4310 -0.2949 -0.1252
 5450TIP3    H140545   1.859   2.451   8.464  0.1087 -1.0177 -1.8719
 5450TIP3    H240546   1.829   2.310   8.511 -0.5215 -0.1943  0.3411
 5451TIP3   OH240547   6.065   2.682   1.940 -0.4234  0.0729 -0.1743
 5451TIP3    H140548   5.970   2.679   1.932 -0.4151 -0.2522 -0.1700
 5451TIP3    H240549   6.095   2.602   1.898 -0.1977 -0.1847  0.4584
 5452TIP3   OH240550   7.128   4.131   2.409 -0.6672  0.4203 -0.3882
 5452TIP3    H140551   7.038   4.119   2.377 -1.0102 -1.6800  1.1966
 5452TIP3    H240552   7.118   4.169   2.496  0.0975  1.9225 -0.9170
 5453TIP3   OH240553   5.872   6.028   1.304 -0.0991  0.1646 -0.1116
 5453TIP3    H140554   5.851   6.105   1.251 -0.6467 -0.9080 -1.5153
 5453TIP3    H240555   5.885   5.957   1.240  3.2478 -0.3467  0.9461
 5454TIP3   OH240556   3.945   0.440   9.649 -0.0445  0.3799 -0.2593
 5454TIP3    H140557   3.921   0.376   9.583  0.7065 -0.8045  0.5689
 5454TIP3    H240558   4.011   0.396   9.702 -0.8846  1.1350  1.5063
 5455TIP3   OH240559   2.905   3.732   1.058  0.3182  0.4486  0.5311
 5455TIP3    H140560   2.851   3.679   0.999 -0.3045  3.1175 -1.4907
 5455TIP3    H240561   2.993   3.695   1.048 -0.4102 -1.5444  0.9203
 5456TIP3   OH240562   5.843   3.130   8.752  0.4442  0.4527 -0.1911
 5456TIP3    H140563   5.839   3.188   8.676  0.3166  1.9731  0.9290
 5456TIP3    H240564   5.762   3.147   8.799  1.0613  0.4485  0.9086
 5457TIP3   OH240565   2.839   2.160   0.829 -0.5301 -0.0071 -0.5715
 5457TIP3    H140566   2.841   2.191   0.739 -0.9950  0.8111 -0.3111
 5457TIP3    H240567   2.925   2.119   0.842 -0.2153  0.4382 -1.1843
 5458TIP3   OH240568   1.083   3.703   7.634 -0.0754 -0.5867  0.0154
 5458TIP3    H140569   1.070   3.760   7.558 -0.8583  1.9344  1.9321
 5458TIP3    H240570   1.176   3.679   7.629  0.2756  0.8303 -0.8749
 5459TIP3   OH240571   6.407   1.177   8.374  0.1877 -0.3341 -0.2951
 5459TIP3    H140572   6.441   1.209   8.290  0.2335 -0.1621 -0.2108
 5459TIP3    H240573   6.474   1.117   8.406  0.1182 -0.4869 -0.4361
 5460TIP3   OH240574   6.724   3.590   1.559 -0.5462  0.1418  0.1456
 5460TIP3    H140575   6.681   3.520   1.511 -1.9025  0.5938  0.6357
 5460TIP3    H240576   6.749   3.654   1.492  1.5164 -1.1566 -0.4097
 5461TIP3   OH240577   6.954   2.809   7.534  0.1374 -0.1667 -0.5394
 5461TIP3    H140578   7.032   2.816   7.478  1.2652 -0.5339  0.9149
 5461TIP3    H240579   6.930   2.900   7.551  0.7706 -0.0274 -0.3305
 5462TIP3   OH240580   5.194   5.605   9.340 -0.0534  0.0490 -0.2330
 5462TIP3    H140581   5.261   5.537   9.325  0.3431  0.6636 -1.3255
 5462TIP3    H240582   5.141   5.570   9.412  0.1764 -1.3983 -0.7254
 5463TIP3   OH240583   6.234   5.060   9.539  0.2001  0.0519  0.4013
 5463TIP3    H140584   6.169   4.990   9.542  0.1221  0.1491  1.1660
 5463TIP3    H240585   6.192   5.133   9.584  0.1456  0.7213 -0.6893
 5464TIP3   OH240586   2.130   7.029   2.578  0.2336  0.3306 -0.0593
 5464TIP3    H140587   2.078   6.968   2.526 -2.2908  2.0287  0.2903
 5464TIP3    H240588   2.217   7.025   2.540 -0.5030 -1.5145 -1.7086
 5465TIP3   OH240589   4.541   5.343   0.888  0.4221 -0.2342  0.0431
 5465TIP3    H140590   4.487   5.329   0.966  0.1378  1.4506  0.1829
 5465TIP3    H240591   4.613   5.280   0.898 -0.1559 -0.7588  1.1407
 5466TIP3   OH240592   0.404   3.606   3.129 -0.1255 -0.4199 -0.3822
 5466TIP3    H140593   0.472   3.668   3.101 -1.1390  0.0612 -1.8924
 5466TIP3    H240594   0.404   3.538   3.061  0.4314 -1.6977  0.8419
 5467TIP3   OH240595   4.731   2.779   9.522 -0.6144  0.3656  0.5627
 5467TIP3    H140596   4.822   2.765   9.497 -1.3153  0.2308 -2.3213
 5467TIP3    H240597   4.720   2.874   9.521 -0.9460  0.3506 -1.2360
 5468TIP3   OH240598   4.133   0.292   7.361 -0.3450  0.2364 -0.1059
 5468TIP3    H140599   4.127   0.382   7.392 -0.5364  0.7249 -1.5002
 5468TIP3    H240600   4.220   0.285   7.322  0.5065 -0.8298  1.8435
 5469TIP3   OH240601   1.150   0.897   8.760 -0.6094 -0.0503  0.1351
 5469TIP3    H140602   1.083   0.965   8.758 -1.6232 -1.0191 -1.6996
 5469TIP3    H240603   1.104   0.820   8.794 -0.2756 -0.5762 -0.5867
 5470TIP3   OH240604   6.494   5.314   0.168  0.2671  0.0381 -0.3893
 5470TIP3    H140605   6.547   5.390   0.144 -0.4576  0.4729 -0.6689
 5470TIP3    H240606   6.416   5.322   0.113  0.2926 -1.0486 -0.5988
 5471TIP3   OH240607   0.680   1.664   0.846 -0.5796 -0.0281 -0.1833
 5471TIP3    H140608   0.743   1.726   0.884  1.1425 -0.1725 -2.6067
 5471TIP3    H240609   0.636   1.714   0.777 -1.6986 -0.5271  0.1506
 5472TIP3   OH240610   2.743   2.628   8.516  0.1449 -0.3966 -0.5224
 5472TIP3    H140611   2.762   2.537   8.496  0.8169 -0.3082 -0.3224
 5472TIP3    H240612   2.687   2.625   8.594  0.2830 -0.6364 -0.4317
 5473TIP3   OH240613   0.365   1.805   7.614 -0.4016  0.1203  0.8740
 5473TIP3    H140614   0.457   1.780   7.604 -0.7562 -0.3569 -1.8875
 5473TIP3    H240615   0.368   1.890   7.658  1.4053  0.4622  0.1613
 5474TIP3   OH240616   6.802   7.031   7.156 -0.4195  0.5775 -0.2986
 5474TIP3    H140617   6.788   7.123   7.180  1.6740  0.6208  1.0420
 5474TIP3    H240618   6.880   7.033   7.100  1.5004 -0.5742  2.1520
 5475TIP3   OH240619   2.745   2.615   2.691 -0.4795 -0.4116 -0.2781
 5475TIP3    H140620   2.826   2.605   2.741  0.7066  1.3948 -1.7321
 5475TIP3    H240621   2.684   2.655   2.752  1.0037  1.9573 -0.2152
 5476TIP3   OH240622   3.318   0.273   0.098  0.1295  0.0561 -0.3961
 5476TIP3    H140623   3.335   0.191   0.051  0.0976  0.1223 -0.5231
 5476TIP3    H240624   3.356   0.259   0.185 -2.0312 -1.0491  0.4443
 5477TIP3   OH240625   5.882   5.833   6.640  0.6214  0.3968  0.6060
 5477TIP3    H140626   5.881   5.740   6.660  1.5194  0.6433  1.8788
 5477TIP3    H240627   5.791   5.861   6.651  0.1578 -0.4903 -0.7347
 5478TIP3   OH240628   5.811   1.736   8.371  0.4332  0.6657 -0.0945
 5478TIP3    H140629   5.861   1.813   8.400  1.5342 -0.2598  0.5531
 5478TIP3    H240630   5.875   1.665   8.373 -1.2526 -0.9014  2.2083
 5479TIP3   OH240631   3.528   5.065   1.629  0.2357 -0.1395  0.2084
 5479TIP3    H140632   3.616   5.069   1.665  0.6945  0.8677 -0.9593
 5479TIP3    H240633   3.540   5.077   1.535 -1.0807 -0.7933 -0.0679
 5480TIP3   OH240634   6.546   3.914   6.736  0.1412 -0.4120  0.2471
 5480TIP3    H140635   6.474   3.976   6.728  1.4737  1.0303 -1.8440
 5480TIP3    H240636   6.514   3.834   6.696 -1.4721 -1.0339  2.6179
 5481TIP3   OH240637   1.112   0.625   0.700  0.0044 -0.8753  0.6827
 5481TIP3    H140638   1.023   0.653   0.720  0.5000  0.3547  1.3143
 5481TIP3    H240639   1.118   0.633   0.605 -0.4554 -0.6311  0.6705
 5482TIP3   OH240640   2.061   3.572   7.065  0.0225  0.0325  0.0762
 5482TIP3    H140641   1.973   3.537   7.078 -0.7146  1.3898 -0.9467
 5482TIP3    H240642   2.100   3.571   7.152 -0.4798 -1.8801  0.3131
 5483TIP3   OH240643   0.909   4.109   6.203  0.0285 -0.0591  0.2986
 5483TIP3    H140644   0.903   4.071   6.290 -0.7390  0.0356  0.2956
 5483TIP3    H240645   0.873   4.197   6.213  0.3352  0.1011 -0.0186
 5484TIP3   OH240646   0.960   2.393   7.792 -0.3439  0.0584  0.0465
 5484TIP3    H140647   0.951   2.383   7.697  0.9670  0.0167 -0.0848
 5484TIP3    H240648   0.946   2.487   7.808  1.8971  0.5282 -0.5134
 5485TIP3   OH240649   7.403   4.566   6.855  0.2543  0.0917  0.6240
 5485TIP3    H140650   7.401   4.622   6.777 -1.7634 -0.8512 -0.0639
 5485TIP3    H240651   7.405   4.627   6.928 -1.2263  1.0856 -0.1185
 5486TIP3   OH240652   1.244   5.038   6.881  0.4111  0.2126  0.0120
 5486TIP3    H140653   1.307   5.066   6.814  0.8168  1.0226  0.7074
 5486TIP3    H240654   1.268   4.947   6.899 -0.5399 -0.4599 -1.8571
 5487TIP3   OH240655   1.567   4.201   0.349 -0.1181  0.0300  0.0636
 5487TIP3    H140656   1.519   4.170   0.426 -0.8265  2.3025  0.6102
 5487TIP3    H240657   1.500   4.232   0.289  0.5227 -0.0084 -0.6921
 5488TIP3   OH240658   4.789   2.752   2.933  0.3990 -0.5951  0.0749
 5488TIP3    H140659   4.783   2.838   2.974 -0.0461 -1.1459  1.2024
 5488TIP3    H240660   4.701   2.736   2.899  0.5730 -0.4653 -0.4496
 5489TIP3   OH240661   7.169   6.437   0.869 -0.3189 -0.0627 -0.0867
 5489TIP3    H140662   7.075   6.444   0.885 -0.8535 -1.1433 -2.3617
 5489TIP3    H240663   7.209   6.493   0.935 -2.5667  0.6818  0.7227
 5490TIP3   OH240664   7.217   5.078   2.196  0.2244  0.2564 -0.5006
 5490TIP3    H140665   7.261   4.993   2.207  0.6589  0.3157 -1.6395
 5490TIP3    H240666   7.207   5.088   2.101 -1.7311  0.5336 -0.3011
 5491TIP3   OH240667   0.936   1.745   1.501 -0.6442 -0.7211  0.4840
 5491TIP3    H140668   0.845   1.722   1.518 -1.3202  1.1823 -0.3037
 5491TIP3    H240669   0.942   1.748   1.406 -0.1659  0.5700  0.5354
 5492TIP3   OH240670   5.281   5.302   8.505 -0.1414 -0.3174  0.1997
 5492TIP3    H140671   5.350   5.250   8.547 -0.8248  0.3817  2.3363
 5492TIP3    H240672   5.218   5.238   8.472  1.6765 -0.9902 -2.2380
 5493TIP3   OH240673   1.259   5.005   9.312 -0.1727  0.0533 -0.4524
 5493TIP3    H140674   1.248   5.100   9.316 -1.3111 -0.0085 -1.6029
 5493TIP3    H240675   1.181   4.973   9.267 -0.7971 -1.6503  1.6805
 5494TIP3   OH240676   4.619   6.180   0.831  0.4441  0.2505  0.3145
 5494TIP3    H140677   4.594   6.253   0.774 -0.8123  0.7403  1.4513
 5494TIP3    H240678   4.671   6.122   0.774 -0.3698  0.9554 -1.2000
 5495TIP3   OH240679   5.237   6.029   8.798 -0.4858 -0.1103  0.5784
 5495TIP3    H140680   5.238   6.118   8.763 -1.5473 -0.3580 -0.1320
 5495TIP3    H240681   5.231   5.972   8.721  0.5121 -0.8249  1.0024
 5496TIP3   OH240682   2.084   6.627   7.904 -0.2726 -0.2839 -0.2432
 5496TIP3    H140683   2.121   6.697   7.958  0.2741 -1.5165  1.0567
 5496TIP3    H240684   2.007   6.598   7.953 -0.0016 -1.1610 -0.3238
 5497TIP3   OH240685   5.505   6.248   1.779 -0.3543  0.5256 -0.1044
 5497TIP3    H140686   5.420   6.217   1.749 -0.4799 -2.4388  2.7805
 5497TIP3    H240687   5.485   6.303   1.855  0.2670  1.1416 -0.3779
 5498TIP3   OH240688   1.043   2.539   1.243 -0.2798  0.0510  0.3395
 5498TIP3    H140689   1.025   2.447   1.224  2.4471 -1.0158  2.3850
 5498TIP3    H240690   1.025   2.549   1.336  1.3089  1.0517  0.5816
 5499TIP3   OH240691   1.821   2.127   9.497  0.1094  0.3738  0.2204
 5499TIP3    H140692   1.796   2.218   9.514  0.1849  0.1852  1.4274
 5499TIP3    H240693   1.877   2.131   9.419  0.1236  1.3535  0.2731
 5500TIP3   OH240694   5.967   2.442   0.267 -0.2477 -0.2920 -0.0508
 5500TIP3    H140695   5.974   2.396   0.351 -1.4380  0.4234  0.4814
 5500TIP3    H240696   5.874   2.466   0.261 -0.3446 -1.0051 -1.9684
 5501TIP3   OH240697   4.665   2.655   2.566 -0.2381 -0.4744 -0.8592
 5501TIP3    H140698   4.584   2.618   2.599 -0.9484  2.2654  0.7991
 5501TIP3    H240699   4.663   2.747   2.593  2.2859  0.3345 -2.9152
 5502TIP3   OH240700   0.135   4.928   8.073 -0.2223 -0.1538  0.6038
 5502TIP3    H140701   0.049   4.916   8.032 -1.4238  1.9789  2.2840
 5502TIP3    H240702   0.121   4.908   8.165  1.5946 -1.5735  0.6285
 5503TIP3   OH240703   3.919   6.128   8.228  0.3579  0.0302  0.1406
 5503TIP3    H140704   3.836   6.093   8.261  0.9411 -1.6468 -0.0706
 5503TIP3    H240705   3.957   6.174   8.302  0.9318 -2.3710  1.4445
 5504TIP3   OH240706   0.261   1.738   0.866  0.3816 -0.2454  0.3659
 5504TIP3    H140707   0.183   1.794   0.858 -0.1555 -0.7560  1.6774
 5504TIP3    H240708   0.332   1.800   0.884  0.2072  0.1920 -0.4121
 5505TIP3   OH240709   5.157   6.467   8.591  0.1213 -0.5748 -0.0101
 5505TIP3    H140710   5.112   6.435   8.670  3.1081 -0.6436  1.8445
 5505TIP3    H240711   5.174   6.559   8.609 -0.1975 -0.2903 -1.1282
 5506TIP3   OH240712   6.472   4.262   9.107 -0.4721  0.3833 -0.1943
 5506TIP3    H140713   6.495   4.348   9.074  0.9862 -0.1230 -0.5662
 5506TIP3    H240714   6.476   4.270   9.203  1.1189  0.3684 -0.2430
 5507TIP3   OH240715   7.129   1.478   9.531 -0.4298  0.6024  0.1467
 5507TIP3    H140716   7.044   1.463   9.487 -0.4038  0.7954  0.0311
 5507TIP3    H240717   7.147   1.395   9.576 -0.9437  0.7487  0.6255
 5508TIP3   OH240718   0.926   2.501   1.736 -0.8884  0.4438  0.5766
 5508TIP3    H140719   0.952   2.538   1.652 -1.6874  1.3885  0.7292
 5508TIP3    H240720   1.000   2.520   1.794  1.0956 -2.8694 -0.5259
 5509TIP3   OH240721   6.456   2.678   2.648  0.4384  0.3817  0.5965
 5509TIP3    H140722   6.377   2.722   2.617 -0.0204 -0.8810 -0.1137
 5509TIP3    H240723   6.423   2.601   2.694  1.2569 -0.4267 -0.1349
 5510TIP3   OH240724   1.043   7.327   2.230  0.1191 -1.2489  0.2356
 5510TIP3    H140725   0.997   7.411   2.239  0.9773 -0.7363 -0.0335
 5510TIP3    H240726   0.986   7.275   2.173  0.1210 -0.4300 -0.5331
 5511TIP3   OH240727   3.205   1.518   8.788 -0.4228  0.1252 -0.1351
 5511TIP3    H140728   3.286   1.550   8.748  0.6242 -0.7929  1.1788
 5511TIP3    H240729   3.181   1.585   8.852 -0.1643 -0.0510  0.1482
 5512TIP3   OH240730   6.041   6.566   1.743 -0.3136 -0.2590 -0.3913
 5512TIP3    H140731   5.949   6.573   1.767 -0.7773 -1.2395 -1.7850
 5512TIP3    H240732   6.040   6.550   1.649  1.2155 -1.7399 -0.1911
 5513TIP3   OH240733   1.273   5.903   9.318 -0.5013  0.1377 -0.2995
 5513TIP3    H140734   1.263   5.858   9.234 -0.4332 -1.2721  0.4227
 5513TIP3    H240735   1.245   5.839   9.383 -1.8716  1.6663  0.6936
 5514TIP3   OH240736   6.504   5.135   7.518 -0.4941  0.8708  0.3235
 5514TIP3    H140737   6.455   5.210   7.485  1.1143  1.1977 -1.5594
 5514TIP3    H240738   6.481   5.063   7.459  1.8874  1.2818 -1.2781
 5515TIP3   OH240739   1.615   6.104   0.976 -0.1133 -0.3044 -0.0340
 5515TIP3    H140740   1.617   6.175   1.040 -1.7741  0.0384 -0.3203
 5515TIP3    H240741   1.522   6.090   0.958  0.1967 -2.1669 -0.4221
 5516TIP3   OH240742   2.251   7.333   2.880  0.4377 -0.6509 -0.2321
 5516TIP3    H140743   2.181   7.357   2.941  1.7901 -2.3511  2.1695
 5516TIP3    H240744   2.300   7.414   2.867 -1.6827  0.4961 -1.7069
 5517TIP3   OH240745   2.338   6.609   9.196 -0.5669 -0.2705 -0.6117
 5517TIP3    H140746   2.340   6.514   9.195 -0.9333 -0.2925  0.2135
 5517TIP3    H240747   2.355   6.633   9.287 -1.9636  0.4169 -0.5066
 5518TIP3   OH240748   2.595   2.004   9.153 -0.0162  0.0636  0.9870
 5518TIP3    H140749   2.518   2.060   9.158 -1.0686 -1.1602 -0.7423
 5518TIP3    H240750   2.570   1.925   9.201 -1.0716 -1.5998 -2.0745
 5519TIP3   OH240751   6.072   6.412   1.981 -0.0766 -0.8416 -0.1081
 5519TIP3    H140752   6.054   6.456   1.898 -0.1829 -1.8787 -0.6430
 5519TIP3    H240753   6.032   6.470   2.047 -0.9105 -0.5365 -0.8568
 5520TIP3   OH240754   5.159   5.616   1.833  0.1386 -0.2818  0.0016
 5520TIP3    H140755   5.108   5.697   1.832 -1.0342 -0.9966  0.1177
 5520TIP3    H240756   5.215   5.621   1.755 -0.4856  0.2796 -0.4143
 5521TIP3   OH240757   1.958   7.263   1.111 -0.3474 -0.1738 -0.2526
 5521TIP3    H140758   1.992   7.267   1.201  0.4796  0.8639 -0.5889
 5521TIP3    H240759   1.900   7.338   1.104  1.6186  1.3314 -1.3457
 5522TIP3   OH240760   7.232   1.256   9.205 -0.2487 -0.3666  0.2366
 5522TIP3    H140761   7.296   1.207   9.257  1.4066  0.0285 -1.3430
 5522TIP3    H240762   7.279   1.335   9.177 -0.1322 -1.6569 -3.8465
 5523TIP3   OH240763   0.484   0.031   8.686  0.1391  0.1267  0.1895
 5523TIP3    H140764   0.485   0.060   8.777 -0.3353  1.3130 -0.1593
 5523TIP3    H240765   0.576   0.017   8.664  0.1515 -2.1988  1.4303
 5524TIP3   OH240766   0.713   0.299   8.595 -0.9029 -0.2344 -0.1924
 5524TIP3    H140767   0.788   0.336   8.642 -0.4242 -1.8111  0.3231
 5524TIP3    H240768   0.711   0.348   8.513  0.3362  0.2267  0.0218
 5525TIP3   OH240769   2.553   1.067   0.039  0.2589  0.0665 -0.5013
 5525TIP3    H140770   2.485   1.119  -0.005  0.1242 -0.0242 -0.4035
 5525TIP3    H240771   2.598   1.022  -0.032 -0.6377 -0.8998 -0.4967
 5526TIP3   OH240772   0.016   7.237   9.299  0.5550  0.1870  0.5922
 5526TIP3    H140773  -0.042   7.176   9.252  1.1629  0.9610 -1.2854
 5526TIP3    H240774   0.068   7.181   9.357 -0.0189 -0.8775  0.1144
 5527TIP3   OH240775   5.718   1.359   1.058  0.4785  0.2825  0.0190
 5527TIP3    H140776   5.700   1.273   1.020  3.0099  0.2316 -1.2313
 5527TIP3    H240777   5.755   1.340   1.144  1.9694  0.0100 -0.6466
 5528TIP3   OH240778   1.980   1.399   8.328 -0.1074 -0.8015  0.5873
 5528TIP3    H140779   1.997   1.480   8.280  1.3530 -0.9594  0.7822
 5528TIP3    H240780   1.976   1.332   8.260 -0.2793 -0.7145  0.5102
 5529TIP3   OH240781   6.266   4.021   2.974  0.0676 -0.0394 -0.1326
 5529TIP3    H140782   6.358   4.010   2.999 -0.6129 -0.0912  2.7120
 5529TIP3    H240783   6.248   4.113   2.988 -0.8730 -0.4573  1.7112
 5530TIP3   OH240784   1.880   5.825   6.844  0.3374 -0.2584 -0.3477
 5530TIP3    H140785   1.876   5.917   6.819  1.9451 -0.4456 -1.4461
 5530TIP3    H240786   1.800   5.787   6.807  0.1505  0.4972 -0.7408
 5531TIP3   OH240787   6.624   0.036   2.705  0.1249  0.1277  0.2768
 5531TIP3    H140788   6.597   0.102   2.769 -2.7991  0.7976 -1.4948
 5531TIP3    H240789   6.543   0.006   2.665  1.7321 -0.9996 -2.4212
 5532TIP3   OH240790   2.137   3.996   9.512  0.0347 -0.1836  0.1401
 5532TIP3    H140791   2.220   4.014   9.556  0.1989  1.7016 -0.7967
 5532TIP3    H240792   2.070   4.032   9.570  0.0018 -0.3124  0.1829
 5533TIP3   OH240793   3.037   1.546   7.859 -0.1584  0.1142 -0.2522
 5533TIP3    H140794   3.071   1.497   7.935 -2.8833  0.6756  1.4614
 5533TIP3    H240795   3.004   1.627   7.896 -2.7170 -0.1142 -1.7962
 5534TIP3   OH240796   2.623   6.504   7.514 -0.5914  0.0475 -0.5189
 5534TIP3    H140797   2.590   6.459   7.436 -1.4942  0.9290 -0.6690
 5534TIP3    H240798   2.597   6.448   7.587 -1.2616  0.0769 -0.7335
 5535TIP3   OH240799   1.922   6.713   1.221  0.7165 -0.0239 -0.3705
 5535TIP3    H140800   2.002   6.673   1.186  2.4222  0.7080  2.3587
 5535TIP3    H240801   1.919   6.800   1.181  2.5816  0.7673  1.0138
 5536TIP3   OH240802   1.129   1.991   8.948 -0.2189  0.8540 -0.1974
 5536TIP3    H140803   1.129   1.931   9.022 -0.0517  0.2659 -0.6728
 5536TIP3    H240804   1.095   1.940   8.874  0.9806  0.9927 -0.8779
 5537TIP3   OH240805   5.626   2.101   0.694 -0.0522  0.0043 -0.1308
 5537TIP3    H140806   5.617   2.179   0.640  0.9298 -0.4544 -0.9836
 5537TIP3    H240807   5.570   2.118   0.770 -0.8568  0.9794 -0.9167
 5538TIP3   OH240808   2.105   3.308   1.821 -0.0210  0.3454 -0.0183
 5538TIP3    H140809   2.146   3.233   1.865 -0.9342 -1.8641 -2.6672
 5538TIP3    H240810   2.011   3.290   1.827 -0.2738  1.5285 -0.3537
 5539TIP3   OH240811   2.328   0.496   0.322 -0.4591 -0.4978 -0.0370
 5539TIP3    H140812   2.303   0.476   0.413  2.1552  1.3037  1.1968
 5539TIP3    H240813   2.409   0.547   0.330 -0.6901  0.6101 -3.3698
 5540TIP3   OH240814   1.348   5.254   7.683 -0.3392  0.1026  0.0523
 5540TIP3    H140815   1.362   5.205   7.602 -0.6256 -0.6276  0.4335
 5540TIP3    H240816   1.262   5.293   7.673  1.0324  2.9866 -1.4764
 5541TIP3   OH240817   3.873   2.523   9.170  0.2912 -0.3722 -0.0060
 5541TIP3    H140818   3.962   2.547   9.141  0.0610  1.4040  0.6512
 5541TIP3    H240819   3.816   2.583   9.123 -0.1798  1.8958  3.1438
 5542TIP3   OH240820   2.432   2.067   7.361  0.6652  0.0802  0.8327
 5542TIP3    H140821   2.489   2.088   7.288  0.0926  0.7220  0.5530
 5542TIP3    H240822   2.430   2.147   7.414 -0.0919  0.1229  0.7530
 5543TIP3   OH240823   3.642   0.028   2.463  0.8045 -0.1251 -0.2195
 5543TIP3    H140824   3.647  -0.013   2.550 -0.1867 -1.2027 -0.6536
 5543TIP3    H240825   3.576   0.096   2.472  0.2316 -0.6659 -0.2859
 5544TIP3   OH240826   0.825   1.890   0.672 -0.1679  0.2874  0.4212
 5544TIP3    H140827   0.737   1.867   0.643 -1.1200  1.9840  1.7706
 5544TIP3    H240828   0.876   1.810   0.659 -1.5419 -0.3321 -1.6614
 5545TIP3   OH240829   4.479   2.757   8.128  0.0351  0.2078  0.1533
 5545TIP3    H140830   4.402   2.774   8.182  0.6763 -0.3061  1.2677
 5545TIP3    H240831   4.490   2.837   8.076 -0.6597  0.6797  0.7187
 5546TIP3   OH240832   5.634   5.902   0.196  0.2557  0.3794  0.4063
 5546TIP3    H140833   5.630   5.911   0.292  1.1531 -2.3157  0.8088
 5546TIP3    H240834   5.578   5.826   0.178  1.8486 -0.5309 -0.9176
 5547TIP3   OH240835   4.580   0.879   9.388  0.3801 -0.0364 -0.6470
 5547TIP3    H140836   4.616   0.905   9.303 -2.2762  1.2593 -1.5165
 5547TIP3    H240837   4.583   0.784   9.388  0.9483 -0.0348 -1.9791
 5548TIP3   OH240838   5.259   1.267   3.002 -0.4318 -0.3605 -0.4201
 5548TIP3    H140839   5.291   1.351   2.969 -1.2105 -0.3528 -1.1873
 5548TIP3    H240840   5.208   1.290   3.080  0.8521 -0.3179  0.4530
 5549TIP3   OH240841   0.925   2.188   8.222  0.5785 -0.0611 -0.1301
 5549TIP3    H140842   0.944   2.162   8.132 -1.3544 -0.5287 -0.4478
 5549TIP3    H240843   0.843   2.238   8.216  0.5726  0.1506  1.3369
 5550TIP3   OH240844   4.791   0.813   1.197 -0.0411  0.2791 -0.1859
 5550TIP3    H140845   4.750   0.734   1.231 -1.5980  1.2242  0.2536
 5550TIP3    H240846   4.868   0.826   1.253  1.0120 -1.6219 -1.1251
 5551TIP3   OH240847   1.728   6.485   9.045  0.0578 -0.6884 -0.3769
 5551TIP3    H140848   1.770   6.571   9.042  0.6552 -0.9628  0.0543
 5551TIP3    H240849   1.691   6.479   9.133 -0.5649 -0.6022 -0.6293
 5552TIP3   OH240850   3.083   4.140   2.596  0.4811  0.0881 -0.7993
 5552TIP3    H140851   3.157   4.080   2.598 -1.0776 -2.0709 -2.7984
 5552TIP3    H240852   3.121   4.222   2.564  2.1619 -0.6922 -0.9585
 5553TIP3   OH240853   1.441   3.678   8.782 -0.2733  0.8311 -0.7390
 5553TIP3    H140854   1.403   3.597   8.749  3.1850 -0.9946 -0.6804
 5553TIP3    H240855   1.419   3.743   8.715 -2.9723 -0.1044 -0.8865
 5554TIP3   OH240856   6.171   0.194   6.692  0.0360 -0.3836 -0.5377
 5554TIP3    H140857   6.113   0.138   6.744 -0.1586 -0.8461 -1.2447
 5554TIP3    H240858   6.155   0.168   6.602 -1.5667  2.1566 -1.1000
 5555TIP3   OH240859   3.394   2.894   9.328  0.0414  0.3735  0.2798
 5555TIP3    H140860   3.299   2.886   9.325 -0.1274  2.1844  0.2457
 5555TIP3    H240861   3.413   2.924   9.417  0.7764 -1.7310  0.9158
 5556TIP3   OH240862   0.573   5.581   8.232  0.1177 -0.4345 -0.6166
 5556TIP3    H140863   0.532   5.560   8.149  0.0738  0.6796 -0.8983
 5556TIP3    H240864   0.658   5.619   8.208  0.3296 -0.5967 -0.1339
 5557TIP3   OH240865   1.202   2.432   8.595 -0.2343  0.1478  0.1707
 5557TIP3    H140866   1.284   2.478   8.614  0.0003 -0.3490  0.3624
 5557TIP3    H240867   1.209   2.350   8.644 -0.8169  0.0757  0.1323
 5558TIP3   OH240868   3.773   2.282   8.646  0.1995 -0.3163 -0.5398
 5558TIP3    H140869   3.846   2.299   8.586  1.6583  0.4975  1.3770
 5558TIP3    H240870   3.777   2.188   8.663  0.7356 -0.2897 -0.5120
 5559TIP3   OH240871   3.622   2.621   7.479 -0.2608 -0.3756 -0.6380
 5559TIP3    H140872   3.701   2.661   7.442  0.4355 -0.6393  0.4985
 5559TIP3    H240873   3.607   2.543   7.426  0.5587 -0.6130 -0.5304
 5560TIP3   OH240874   6.642   0.230   0.317  0.0332 -0.0752 -0.1285
 5560TIP3    H140875   6.580   0.175   0.364  0.2268 -0.6477 -0.5209
 5560TIP3    H240876   6.685   0.282   0.384  0.8685 -1.4479  0.4223
 5561TIP3   OH240877   5.480   4.335   1.396  0.0650  0.4080  0.0170
 5561TIP3    H140878   5.557   4.391   1.396 -0.2588  1.0763 -3.7165
 5561TIP3    H240879   5.409   4.391   1.429  0.8284  0.1860  2.1890
 5562TIP3   OH240880   6.210   0.548   1.639 -0.0381  0.0035  0.8976
 5562TIP3    H140881   6.255   0.463   1.633 -0.7203 -0.5546  2.7674
 5562TIP3    H240882   6.118   0.526   1.650 -0.4525  1.0682 -0.2558
 5563TIP3   OH240883   0.871   4.268   6.639  0.1828 -0.3699 -0.3350
 5563TIP3    H140884   0.878   4.205   6.712  1.0882  0.3371  0.2118
 5563TIP3    H240885   0.811   4.335   6.671  0.3785 -0.1941 -0.3310
 5564TIP3   OH240886   2.519   6.442   8.026 -0.1953  0.4090  0.3382
 5564TIP3    H140887   2.515   6.397   8.110  0.8306  2.0401  1.3229
 5564TIP3    H240888   2.439   6.495   8.023  0.0874  0.8650  0.6259
 5565TIP3   OH240889   2.590   1.713   1.838 -0.4647 -1.1263 -0.0925
 5565TIP3    H140890   2.547   1.686   1.757  0.7009  1.5299 -1.7073
 5565TIP3    H240891   2.682   1.690   1.824  0.0273  0.8250 -0.2749
 5566TIP3   OH240892   2.206   3.453   7.741  0.0118 -0.6463  0.2037
 5566TIP3    H140893   2.177   3.502   7.664  0.8576 -2.2928 -1.2551
 5566TIP3    H240894   2.301   3.468   7.744  0.3630 -2.4183 -0.5330
 5567TIP3   OH240895   7.218   6.075   2.719 -0.4725  0.2902  0.1397
 5567TIP3    H140896   7.258   6.030   2.793 -0.2811  0.4444  0.1312
 5567TIP3    H240897   7.246   6.166   2.728  0.8619  0.0220 -0.9883
 5568TIP3   OH240898   0.980   0.821   2.248  0.3007  0.0345 -0.0558
 5568TIP3    H140899   0.969   0.833   2.343 -1.0823 -0.9793 -0.0609
 5568TIP3    H240900   0.948   0.903   2.210  0.1913  0.1720  0.3263
 5569TIP3   OH240901   2.672   0.173   3.149  0.0820 -0.3949  0.7357
 5569TIP3    H140902   2.576   0.180   3.145  0.0662  0.1776  1.9756
 5569TIP3    H240903   2.690   0.086   3.114 -1.1016 -1.5381  2.7700
 5570TIP3   OH240904   2.639   4.790   2.462  0.0061 -0.1085 -0.0764
 5570TIP3    H140905   2.642   4.827   2.374 -0.6066 -0.7867 -0.3969
 5570TIP3    H240906   2.681   4.855   2.518  0.5459  0.2557 -0.8979
 5571TIP3   OH240907   0.077   3.594   8.876 -0.1084  0.0921 -0.3521
 5571TIP3    H140908   0.023   3.612   8.799  0.1085 -0.0274 -0.5320
 5571TIP3    H240909   0.014   3.593   8.949 -0.1659  1.3328 -0.3651
 5572TIP3   OH240910   6.680   2.021   2.214 -0.4998  0.2392 -0.6483
 5572TIP3    H140911   6.696   2.088   2.281  0.6494 -1.7372  1.1910
 5572TIP3    H240912   6.680   2.069   2.131  2.1505  2.2687  0.3863
 5573TIP3   OH240913   3.161   0.492   7.496  0.1290 -0.5103 -0.4461
 5573TIP3    H140914   3.202   0.449   7.571  0.3003 -1.8763 -1.2963
 5573TIP3    H240915   3.075   0.450   7.490 -0.3135  0.3638 -0.3764
 5574TIP3   OH240916   4.934   5.872   2.743  0.1520 -0.3652 -0.1353
 5574TIP3    H140917   4.849   5.903   2.773 -0.5379 -1.6513 -0.7076
 5574TIP3    H240918   4.914   5.799   2.685  1.5572  0.4513 -1.7387
 5575TIP3   OH240919   7.165   0.066   9.258  0.2566 -0.3457 -0.1017
 5575TIP3    H140920   7.079   0.058   9.218 -1.1580 -1.0865  2.8278
 5575TIP3    H240921   7.223   0.016   9.201 -0.9807  0.8777 -2.6252
 5576TIP3   OH240922   7.374   6.265   7.936 -0.6623  0.3591 -0.5629
 5576TIP3    H140923   7.285   6.276   7.903 -0.8654  0.5929  0.0451
 5576TIP3    H240924   7.429   6.270   7.858 -1.2079 -0.2091 -0.9936
 5577TIP3   OH240925   5.924   1.974   0.003  0.3191 -0.0917  0.2457
 5577TIP3    H140926   5.940   2.065   0.028 -1.9072  0.0399  1.4563
 5577TIP3    H240927   5.998   1.926   0.038  1.5035  1.2309 -0.3688
 5578TIP3   OH240928   4.040   2.970   7.621  0.2178  0.0061 -0.2905
 5578TIP3    H140929   3.963   2.970   7.678 -0.2438  0.4508 -0.9043
 5578TIP3    H240930   4.012   3.019   7.544  1.0535 -0.0117 -0.6068
 5579TIP3   OH240931   1.716   5.133   9.555  0.6957 -0.1574  0.1068
 5579TIP3    H140932   1.716   5.205   9.491  0.0716 -0.8478 -0.6904
 5579TIP3    H240933   1.627   5.099   9.552  1.3996 -2.0511 -0.7886
 5580TIP3   OH240934   0.999   1.458   2.174 -0.2017 -0.2195  0.2139
 5580TIP3    H140935   0.975   1.548   2.196 -0.9039  0.0411 -1.4760
 5580TIP3    H240936   1.094   1.461   2.161 -0.3975  0.6402 -1.2638
 5581TIP3   OH240937   1.572   5.030   0.503  0.1528  0.0111 -0.6840
 5581TIP3    H140938   1.511   4.990   0.441  0.0884  0.1140 -0.6867
 5581TIP3    H240939   1.619   5.096   0.452 -0.0459  0.2405 -0.5743
 5582TIP3   OH240940   4.598   1.923   8.420  0.7655 -0.2953 -0.3596
 5582TIP3    H140941   4.608   1.845   8.365  0.3167 -0.0287 -0.8237
 5582TIP3    H240942   4.541   1.981   8.370  1.0203  0.2969  0.0229
 5583TIP3   OH240943   5.949   6.875   1.836  0.6035  0.1172 -0.1569
 5583TIP3    H140944   5.872   6.848   1.887  0.8113  0.3320  0.2689
 5583TIP3    H240945   5.955   6.970   1.850  1.6423 -0.0705  0.7638
 5584TIP3   OH240946   6.075   4.547   1.388  0.0211  0.4420 -0.3745
 5584TIP3    H140947   6.137   4.474   1.379  0.2268  0.7209 -1.3377
 5584TIP3    H240948   6.084   4.575   1.479 -1.3737 -1.8983  0.5732
 5585TIP3   OH240949   6.317   4.280   9.551  0.3282  0.6078 -0.2187
 5585TIP3    H140950   6.248   4.283   9.485  0.3963  0.5485 -0.2925
 5585TIP3    H240951   6.276   4.235   9.625  0.7361 -0.7700 -0.7987
 5586TIP3   OH240952   1.962   6.620   1.482  0.1271 -0.3903 -0.5470
 5586TIP3    H140953   1.915   6.548   1.524 -2.0346  2.4268  2.2974
 5586TIP3    H240954   1.924   6.625   1.394 -1.3742 -1.2573  0.0183
 5587TIP3   OH240955   6.796   1.080   0.563  0.7673 -0.3020  0.1792
 5587TIP3    H140956   6.867   1.024   0.532  1.3864 -0.2614  1.4438
 5587TIP3    H240957   6.834   1.168   0.564  0.7106 -0.2809  0.8727
 5588TIP3   OH240958   7.227   4.696   1.902  0.2763  0.1837 -0.2064
 5588TIP3    H140959   7.181   4.714   1.821  0.3260  0.7884 -0.1041
 5588TIP3    H240960   7.165   4.719   1.971 -0.0379 -1.0346 -0.0643
 5589TIP3   OH240961   5.119   4.071   0.786 -0.2207 -0.2031 -0.4820
 5589TIP3    H140962   5.211   4.049   0.772 -0.0055  0.5788 -0.3499
 5589TIP3    H240963   5.110   4.158   0.747 -0.6814  0.1111  0.3244
 5590TIP3   OH240964   2.439   6.688   7.706  0.3699 -0.7465 -0.2515
 5590TIP3    H140965   2.378   6.761   7.708  1.2098 -0.0355  0.5507
 5590TIP3    H240966   2.386   6.611   7.723 -0.2710 -0.1240  0.5960
 5591TIP3   OH240967   4.894   6.872   6.824 -0.1629  0.3142 -0.0873
 5591TIP3    H140968   4.949   6.852   6.748 -1.3879 -3.2735 -0.2178
 5591TIP3    H240969   4.816   6.914   6.788  0.6680  1.6435 -0.3768
 5592TIP3   OH240970   5.835   0.264   8.850  0.1887 -0.1492  0.5724
 5592TIP3    H140971   5.804   0.212   8.924 -3.3681 -0.9654 -1.2439
 5592TIP3    H240972   5.794   0.349   8.861  0.0438 -0.1131 -0.1779
 5593TIP3   OH240973   6.043   6.082   6.661 -0.2719  0.4595  0.1330
 5593TIP3    H140974   6.133   6.064   6.634 -0.2446  0.9857 -0.1270
 5593TIP3    H240975   6.005   5.995   6.678  0.1218  0.2078 -0.2665
 5594TIP3   OH240976   6.560   2.383   8.489  0.5096  0.1000  0.6787
 5594TIP3    H140977   6.557   2.477   8.505  0.9797  0.1696  0.3719
 5594TIP3    H240978   6.652   2.364   8.473  0.2522 -0.1856 -0.5585
 5595TIP3   OH240979   7.259   6.864   1.030 -0.1161 -0.0388 -0.8773
 5595TIP3    H140980   7.203   6.857   0.952 -0.8728  1.8723 -0.5825
 5595TIP3    H240981   7.299   6.951   1.022 -2.4792  1.5280  2.2112
 5596TIP3   OH240982   1.546   1.980   8.429  0.4450  0.4335  0.4951
 5596TIP3    H140983   1.613   1.920   8.463  0.9876  0.9696  0.3818
 5596TIP3    H240984   1.464   1.947   8.465  0.6932 -0.5852  0.1675
 5597TIP3   OH240985   0.371   3.411   0.983 -0.3049 -0.2930 -0.0008
 5597TIP3    H140986   0.425   3.382   1.057  0.8137 -0.3389 -0.8033
 5597TIP3    H240987   0.429   3.468   0.932 -0.3511 -1.8600 -1.9165
 5598TIP3   OH240988   0.258   1.412   9.056  0.2709  0.1237 -0.6660
 5598TIP3    H140989   0.313   1.349   9.102  1.1939  1.9199  0.8792
 5598TIP3    H240990   0.308   1.437   8.979 -0.1982 -1.1308 -1.4053
 5599TIP3   OH240991   2.954   2.648   8.901  0.2830 -0.0459  0.1975
 5599TIP3    H140992   3.030   2.661   8.844  0.0268 -0.7271 -0.3199
 5599TIP3    H240993   2.880   2.686   8.852  0.1536 -0.1248  0.3304
 5600TIP3   OH240994   3.266   5.290   2.349  0.1987 -0.7777 -0.4295
 5600TIP3    H140995   3.197   5.352   2.329 -0.5786 -1.9241 -1.4777
 5600TIP3    H240996   3.302   5.320   2.432  0.0528  1.2086 -1.0322
 5601TIP3   OH240997   2.131   1.535   1.207  0.6380 -0.1087  0.4278
 5601TIP3    H140998   2.089   1.453   1.232  0.2907 -0.0549  0.0198
 5601TIP3    H240999   2.218   1.530   1.246  0.7285 -0.8092  0.1494
 5602TIP3   OH241000   2.093   1.849   7.605 -0.9647  0.2125 -0.0497
 5602TIP3    H141001   2.179   1.836   7.566 -0.9205  0.6193 -0.0865
 5602TIP3    H241002   2.031   1.819   7.538 -0.8651  0.2657 -0.1653
 5603TIP3   OH241003   0.279   5.669   8.888  0.5223 -0.0014 -0.1505
 5603TIP3    H141004   0.317   5.692   8.803 -1.5702 -0.0797 -1.1865
 5603TIP3    H241005   0.288   5.574   8.893 -2.1226 -0.4454 -1.8401
 5604TIP3   OH241006   6.547   6.743   6.550 -0.2812  0.2463  0.2339
 5604TIP3    H141007   6.581   6.653   6.553  0.6026  0.5909  0.9592
 5604TIP3    H241008   6.463   6.738   6.596  0.0176 -0.1093  0.7577
 5605TIP3   OH241009   1.131   1.609   0.787  0.3184  0.0102 -0.2844
 5605TIP3    H141010   1.061   1.611   0.723  1.3772 -0.7977 -1.5093
 5605TIP3    H241011   1.131   1.519   0.820 -0.3462  0.4622  1.0448
 5606TIP3   OH241012   3.362   5.208   1.198 -0.2984  0.0621 -0.4425
 5606TIP3    H141013   3.277   5.231   1.158 -0.0392  2.3166  0.1393
 5606TIP3    H241014   3.370   5.269   1.271  1.6525 -0.4143 -0.2254
 5607TIP3   OH241015   1.824   0.757   9.265 -0.1386 -0.0430  0.3459
 5607TIP3    H141016   1.817   0.795   9.352  0.0106  0.0467  0.3217
 5607TIP3    H241017   1.876   0.678   9.277  2.8675  1.6868 -0.1176
 5608TIP3   OH241018   2.871   4.711   1.281 -0.0599 -0.0329 -0.2929
 5608TIP3    H141019   2.885   4.629   1.234 -1.3687  0.4968 -1.6920
 5608TIP3    H241020   2.956   4.755   1.278  0.3503 -0.8129 -0.5526
 5609TIP3   OH241021   6.966   2.025   7.557 -0.3378 -0.1385 -0.5649
 5609TIP3    H141022   6.961   2.101   7.498  1.7666 -0.6262 -1.4522
 5609TIP3    H241023   6.986   2.062   7.642 -0.1107  0.3767 -0.8361
 5610TIP3   OH241024   6.129   3.477   9.035  0.2319  0.0947  0.0071
 5610TIP3    H141025   6.140   3.406   8.972 -1.7546 -0.4551  0.2176
 5610TIP3    H241026   6.095   3.550   8.984 -3.3850 -0.9773  0.6137
 5611TIP3   OH241027   6.281   2.907   1.465  0.5149 -0.2767  0.5657
 5611TIP3    H141028   6.326   2.941   1.388  0.3296 -0.5908  0.3141
 5611TIP3    H241029   6.311   2.816   1.472 -1.2272 -0.9857 -0.5172
 5612TIP3   OH241030   4.255   0.673   1.520 -0.9380 -0.3195 -0.3192
 5612TIP3    H141031   4.165   0.661   1.551 -0.7952 -0.7465 -0.0668
 5612TIP3    H241032   4.249   0.661   1.425 -0.5851 -4.0264 -0.0036
 5613TIP3   OH241033   2.857   1.030   8.984 -0.3213  0.3029  0.4313
 5613TIP3    H141034   2.885   1.100   8.925 -1.1375  1.4566  1.3882
 5613TIP3    H241035   2.870   1.065   9.072  0.7219 -1.3396  0.9838
 5614TIP3   OH241036   5.219   1.516   2.116 -0.0545  0.0208 -0.2365
 5614TIP3    H141037   5.144   1.542   2.063 -1.8614 -0.0908  2.0837
 5614TIP3    H241038   5.244   1.596   2.162  0.0745 -0.3385  0.3268
 5615TIP3   OH241039   5.151   2.127   1.919 -0.4359 -0.3244  0.3452
 5615TIP3    H141040   5.184   2.217   1.928 -0.4816 -0.1919 -0.7497
 5615TIP3    H241041   5.230   2.073   1.919 -0.2560 -0.0925 -1.2024
 5616TIP3   OH241042   5.766   7.247   9.077 -0.0405  0.6147 -0.0399
 5616TIP3    H141043   5.773   7.152   9.074 -0.0660  0.6315 -1.0253
 5616TIP3    H241044   5.672   7.265   9.069 -0.0199  0.7211 -0.0535
 5617TIP3   OH241045   4.483   3.502   9.026 -0.4078  0.2964  0.0893
 5617TIP3    H141046   4.462   3.591   9.052 -1.6510  0.1510 -0.3311
 5617TIP3    H241047   4.420   3.447   9.074  2.0237 -0.6639  2.4743
 5618TIP3   OH241048   3.379   5.609   8.995  0.1806  0.3160  0.1972
 5618TIP3    H141049   3.393   5.549   9.068 -0.6681 -1.2197 -0.8460
 5618TIP3    H241050   3.341   5.555   8.926 -1.0715  2.1487 -0.6525
 5619TIP3   OH241051   6.585   6.302   0.669  0.2763  0.1159  0.5536
 5619TIP3    H141052   6.623   6.370   0.614  0.4927 -0.7710 -0.4197
 5619TIP3    H241053   6.657   6.274   0.726  0.6891 -0.5173 -0.2598
 5620TIP3   OH241054   3.915   7.276   8.963 -0.9739  0.6324  0.0070
 5620TIP3    H141055   3.989   7.252   8.907  0.1295  1.1712  1.1826
 5620TIP3    H241056   3.925   7.222   9.041 -1.6245  0.9610  0.3293
 5621TIP3   OH241057   4.215   7.198   7.383  0.1172 -0.4998 -0.4673
 5621TIP3    H141058   4.292   7.254   7.377 -0.3412  0.0443 -1.4804
 5621TIP3    H241059   4.221   7.139   7.308 -1.0260  0.3113 -1.2346
 5622TIP3   OH241060   0.987   2.786   0.486  0.1114 -0.1458  0.0419
 5622TIP3    H141061   1.032   2.868   0.507 -0.0875 -0.3568  1.4094
 5622TIP3    H241062   0.991   2.780   0.390 -0.0323  1.5526 -0.1047
 5623TIP3   OH241063   2.436   1.592   9.501  0.3639 -0.4248 -0.0879
 5623TIP3    H141064   2.519   1.624   9.537  0.8082 -1.8517  0.2615
 5623TIP3    H241065   2.369   1.638   9.550  0.9676 -0.7447  1.0680
 5624TIP3   OH241066   4.402   5.001   0.044  0.2029 -0.4841 -0.0985
 5624TIP3    H141067   4.496   4.982   0.043  0.6732  1.3682 -2.5598
 5624TIP3    H241068   4.393   5.074  -0.017 -2.6000  0.7520  1.6405
 5625TIP3   OH241069   6.567   1.739   7.533 -0.0157 -0.4019 -0.7984
 5625TIP3    H141070   6.530   1.734   7.445 -0.6578  3.7405 -0.9691
 5625TIP3    H241071   6.657   1.766   7.520 -0.1111  0.2356 -0.2166
 5626TIP3   OH241072   6.984   2.638   0.719 -0.2272 -0.3866  0.2084
 5626TIP3    H141073   7.061   2.640   0.662  0.3579 -1.1120  0.9545
 5626TIP3    H241074   6.926   2.706   0.683  1.1761  0.8786  0.2330
 5627TIP3   OH241075   7.249   1.072   0.260  0.0619  0.0219  0.0927
 5627TIP3    H141076   7.271   1.038   0.347  0.0848 -1.1209 -0.3473
 5627TIP3    H241077   7.174   1.020   0.232 -0.6799  1.1504 -0.1188
 5628TIP3   OH241078   4.692   6.555   2.862  0.1917 -0.9057  0.1472
 5628TIP3    H141079   4.768   6.576   2.916  1.2491 -1.0920 -1.2250
 5628TIP3    H241080   4.717   6.583   2.774 -2.4981  1.9588  0.1121
 5629TIP3   OH241081   4.508   7.394   9.474  0.1840  0.2426  0.2496
 5629TIP3    H141082   4.464   7.369   9.392  1.6232  1.2686 -0.8944
 5629TIP3    H241083   4.601   7.380   9.456  0.5131  0.2223  1.8338
 5630TIP3   OH241084   1.735   0.964   9.126 -0.8602 -0.3790  0.0292
 5630TIP3    H141085   1.778   0.893   9.173  1.3010  0.4515 -0.5733
 5630TIP3    H241086   1.737   0.937   9.034 -0.1767  0.3440 -0.1842
 5631TIP3   OH241087   3.002   4.216   2.939 -0.1572 -0.7088 -0.0030
 5631TIP3    H141088   3.069   4.160   2.900 -2.2429 -2.6337 -1.0472
 5631TIP3    H241089   2.944   4.238   2.867  0.1308  2.2672  0.5383
 5632TIP3   OH241090   0.050   4.593   8.336  0.0493 -0.1081  0.9675
 5632TIP3    H141091  -0.010   4.525   8.365 -0.5541  0.8069  1.9440
 5632TIP3    H241092   0.092   4.557   8.258 -1.3167 -1.0052  0.6221
 5633TIP3   OH241093   7.278   5.146   1.921 -0.7508  0.1551  0.1197
 5633TIP3    H141094   7.281   5.213   1.853  1.0941 -1.2331 -1.2557
 5633TIP3    H241095   7.336   5.180   1.990  3.0942 -1.3797 -2.0656
 5634TIP3   OH241096   3.255   4.256   7.346  0.5681  0.6952 -0.4657
 5634TIP3    H141097   3.215   4.285   7.428  0.3423  2.3202 -1.0990
 5634TIP3    H241098   3.198   4.185   7.315 -0.6124  1.5287 -0.2806
 5635TIP3   OH241099   1.655   4.032   8.192  0.2722 -0.1543  0.5703
 5635TIP3    H141100   1.597   3.957   8.179  1.3518 -1.0550  0.7888
 5635TIP3    H241101   1.712   4.006   8.264  1.4051  0.4149 -0.0975
 5636TIP3   OH241102   1.053   1.202   9.621  0.0732 -0.0013  0.5601
 5636TIP3    H141103   0.979   1.261   9.611 -0.1381 -0.2367  0.7234
 5636TIP3    H241104   1.127   1.259   9.640 -0.0938  0.2238  0.5336
 5637TIP3   OH241105   1.133   5.409   8.300 -0.3229  0.5084  0.1007
 5637TIP3    H141106   1.043   5.435   8.319 -0.0253  0.4633  1.7588
 5637TIP3    H241107   1.186   5.457   8.364  0.7858  0.1621 -0.5247
 5638TIP3   OH241108   4.369   1.729   8.068 -0.3272 -0.8393 -0.0824
 5638TIP3    H141109   4.383   1.821   8.092  3.5611 -1.6514  1.4915
 5638TIP3    H241110   4.279   1.710   8.096 -0.8158  2.1100  0.7112
 5639TIP3   OH241111   1.362   6.788   0.607 -0.0240  0.2045 -0.3024
 5639TIP3    H141112   1.418   6.843   0.553  0.5791 -0.9736 -0.9130
 5639TIP3    H241113   1.356   6.705   0.560 -2.9811  0.5256 -0.6898
 5640TIP3   OH241114   2.992   0.093   8.843 -0.2460 -0.1515  0.2083
 5640TIP3    H141115   3.080   0.123   8.817 -0.4785 -1.0714 -1.8722
 5640TIP3    H241116   2.994   0.092   8.938  1.3354  1.7652  0.2608
 5641TIP3   OH241117   0.849   1.859   0.942  0.6076  0.0797  0.2816
 5641TIP3    H141118   0.852   1.910   0.861 -2.3767 -1.1611 -0.7443
 5641TIP3    H241119   0.936   1.871   0.981  1.9026  1.3258 -2.6869
 5642TIP3   OH241120   4.987   0.713   1.696 -0.4273 -0.0623 -0.3774
 5642TIP3    H141121   4.960   0.735   1.786  0.2755 -1.5012  0.2087
 5642TIP3    H241122   5.023   0.795   1.661  0.4089  0.2261  1.0768
 5643TIP3   OH241123   4.393   1.659   9.254  0.1243 -0.1834 -0.2311
 5643TIP3    H141124   4.395   1.717   9.330  0.4998  0.0470 -0.4119
 5643TIP3    H241125   4.432   1.577   9.285  1.7385  0.4220 -0.5840
 5644TIP3   OH241126   1.843   5.633   2.350  0.0592  0.4483 -0.2757
 5644TIP3    H141127   1.894   5.558   2.381  1.9890  1.0045 -1.8449
 5644TIP3    H241128   1.851   5.629   2.254 -1.5596  1.5015 -0.4922
 5645TIP3   OH241129   1.416   2.755   9.107 -0.1925 -0.6215  0.1269
 5645TIP3    H141130   1.361   2.745   9.030 -1.3990  0.9914  0.7315
 5645TIP3    H241131   1.424   2.666   9.143 -1.5392 -1.0401 -0.5632
 5646TIP3   OH241132   1.339   3.649   7.491  0.6395  0.4153 -0.3439
 5646TIP3    H141133   1.425   3.618   7.463  0.7764 -0.3789  0.8643
 5646TIP3    H241134   1.283   3.572   7.488  0.3087  0.6301  0.1418
 5647TIP3   OH241135   4.133   6.600   9.207 -0.1448 -0.6479  0.3885
 5647TIP3    H141136   4.219   6.558   9.214  0.3452  0.2579 -0.0774
 5647TIP3    H241137   4.100   6.602   9.296  1.1186  0.6301  0.8602
 5648TIP3   OH241138   7.268   6.133   7.518 -0.6875 -0.1112 -0.5293
 5648TIP3    H141139   7.281   6.228   7.519 -1.5015  0.0024 -0.0132
 5648TIP3    H241140   7.195   6.118   7.578 -1.1825 -0.9737 -1.3242
 5649TIP3   OH241141   6.119   5.645   0.066  0.6345  0.2753 -0.6029
 5649TIP3    H141142   6.138   5.637  -0.028  1.4983 -0.7859 -0.3579
 5649TIP3    H241143   6.031   5.610   0.075  0.6682  0.0844 -0.9760
 5650TIP3   OH241144   6.181   3.152   0.020  0.4626  0.2876  0.5183
 5650TIP3    H141145   6.137   3.216  -0.035  0.5486 -0.1496 -0.0691
 5650TIP3    H241146   6.157   3.067  -0.018  0.5229 -0.0239  1.1528
 5651TIP3   OH241147   5.426   5.132   0.083  0.3669 -0.4365 -0.1252
 5651TIP3    H141148   5.498   5.185   0.118 -0.9345  0.4623  1.3506
 5651TIP3    H241149   5.434   5.048   0.129  0.4770 -0.3368  0.0416
 5652TIP3   OH241150   2.146   7.352   6.961  0.3076  0.2920 -0.1942
 5652TIP3    H141151   2.127   7.261   6.938  0.2777  0.6003 -1.4677
 5652TIP3    H241152   2.238   7.351   6.988 -0.5241 -0.6731  3.0621
 5653TIP3   OH241153   5.374   4.352   7.533  0.3026 -0.3010 -0.7045
 5653TIP3    H141154   5.337   4.363   7.445 -1.2168  0.7971  0.0207
 5653TIP3    H241155   5.402   4.440   7.558  0.7382 -0.6069 -0.0802
 5654TIP3   OH241156   1.964   2.926   8.354 -0.1400  0.3129  0.4299
 5654TIP3    H141157   1.994   3.017   8.350 -0.7630  0.4896 -0.7523
 5654TIP3    H241158   1.919   2.920   8.438 -1.0326  1.4202  0.0574
 5655TIP3   OH241159   7.021   6.214   0.988 -0.0825  0.0603  0.2564
 5655TIP3    H141160   7.055   6.281   1.048 -0.8353  2.3835 -1.7372
 5655TIP3    H241161   7.083   6.142   0.995  1.0429  1.1405  2.1968
 5656TIP3   OH241162   6.353   0.103   0.338 -0.2014 -0.1186 -0.8754
 5656TIP3    H141163   6.258   0.107   0.347 -0.2770  1.7882 -1.8440
 5656TIP3    H241164   6.386   0.162   0.406  0.2434 -0.1567 -1.0518
 5657TIP3   OH241165   3.834   0.157   8.106  0.1121 -0.2997 -0.3572
 5657TIP3    H141166   3.782   0.133   8.182  0.3087 -0.2432 -0.2046
 5657TIP3    H241167   3.866   0.245   8.125  0.8614 -0.6119 -0.1255
 5658TIP3   OH241168   4.374   6.519   1.061  0.0654  0.5595  0.3026
 5658TIP3    H141169   4.302   6.456   1.051 -0.4574  1.2110 -0.1613
 5658TIP3    H241170   4.398   6.512   1.153  0.9298 -1.2680 -0.0101
 5659TIP3   OH241171   6.378   0.967   9.198  0.6284 -0.6097 -0.1558
 5659TIP3    H141172   6.406   1.020   9.124 -0.0346 -1.2330 -0.8757
 5659TIP3    H241173   6.372   0.878   9.163  1.5689 -1.1429  0.9888
 5660TIP3   OH241174   4.137   3.061   6.564 -0.1284 -0.3873  0.0317
 5660TIP3    H141175   4.197   2.988   6.578 -0.6294 -0.4792  1.9932
 5660TIP3    H241176   4.187   3.139   6.590 -0.6621 -0.4152  1.2006
 5661TIP3   OH241177   4.461   7.322   7.914  0.1175  0.3527 -0.6614
 5661TIP3    H141178   4.473   7.395   7.852 -0.2434  0.2522 -0.8542
 5661TIP3    H241179   4.442   7.365   7.998 -0.8264  0.4833 -0.9304
 5662TIP3   OH241180   0.010   7.131   0.003  0.2043 -0.2057 -0.0508
 5662TIP3    H141181   0.028   7.053   0.056  0.7420 -0.8927 -1.1991
 5662TIP3    H241182   0.047   7.111  -0.083  0.3372  1.3166 -0.3885
 5663TIP3   OH241183   0.965   1.718   1.990  0.5709  0.2424 -0.8143
 5663TIP3    H141184   0.985   1.760   1.906 -0.7504  2.2440 -0.1955
 5663TIP3    H241185   1.048   1.720   2.038  1.2356 -0.5401 -1.8820
 5664TIP3   OH241186   5.750   4.467   1.034 -0.3656 -0.1324 -0.3391
 5664TIP3    H141187   5.676   4.409   1.053 -1.5702  1.1054 -1.1706
 5664TIP3    H241188   5.818   4.437   1.094 -1.7176 -0.9277  0.8751
 5665TIP3   OH241189   1.158   0.734   2.809  0.4325  0.1224 -0.5229
 5665TIP3    H141190   1.196   0.654   2.774  0.9559  0.0926  0.1083
 5665TIP3    H241191   1.198   0.744   2.896 -0.1136  0.7165 -0.3333
 5666TIP3   OH241192   4.826   4.084   9.185  0.1923 -0.1348  0.2782
 5666TIP3    H141193   4.751   4.109   9.239 -1.1498 -0.2914 -1.4272
 5666TIP3    H241194   4.813   3.992   9.167 -0.2812  0.2703 -1.6162
 5667TIP3   OH241195   5.824   0.933   7.290  0.4162  0.0089  0.1377
 5667TIP3    H141196   5.792   0.943   7.200  1.0036 -0.7022 -0.1598
 5667TIP3    H241197   5.768   0.991   7.342  0.1068  0.4708 -0.6917
 5668TIP3   OH241198   3.575   3.979   9.051 -0.6518 -0.1546  0.7620
 5668TIP3    H141199   3.560   4.021   8.966 -1.2308 -0.5379  0.6676
 5668TIP3    H241200   3.638   3.909   9.032  0.6053  0.8793  0.9882
 5669TIP3   OH241201   0.423   5.977   7.161 -0.1316  0.6498  0.2037
 5669TIP3    H141202   0.506   5.946   7.195 -0.3601  0.7714  0.8746
 5669TIP3    H241203   0.384   5.900   7.118 -0.0810  0.3633  0.6732
 5670TIP3   OH241204   6.465   4.788   6.834 -0.2274  0.1378  0.3289
 5670TIP3    H141205   6.417   4.705   6.829  3.1552 -1.9749 -2.6555
 5670TIP3    H241206   6.424   4.845   6.770  1.2008 -1.7822 -2.4931
 5671TIP3   OH241207   1.647   4.638   1.298  0.0498 -0.2520  0.0927
 5671TIP3    H141208   1.607   4.714   1.340  0.8916  1.6179 -2.2503
 5671TIP3    H241209   1.634   4.566   1.360 -0.7402  1.7895  2.4440
 5672TIP3   OH241210   7.318   0.738   9.078 -0.4418 -0.5590 -0.7871
 5672TIP3    H141211   7.391   0.689   9.115  0.6098  1.1353 -0.4892
 5672TIP3    H241212   7.353   0.776   8.997  0.2578  3.0186  0.9718
 5673TIP3   OH241213   4.966   5.548   0.403  0.1206  0.0832  0.0585
 5673TIP3    H141214   5.025   5.564   0.477  1.4992 -0.4502 -0.8799
 5673TIP3    H241215   4.983   5.458   0.377 -0.5401  0.1697 -0.7464
 5674TIP3   OH241216   1.045   1.667   9.405 -0.2922 -0.3527 -0.2430
 5674TIP3    H141217   1.057   1.574   9.386  0.1506 -0.0642 -1.4363
 5674TIP3    H241218   0.956   1.672   9.440  0.3162 -1.4632  1.6316
 5675TIP3   OH241219   5.111   5.888   2.462 -0.7545 -1.2674  0.3526
 5675TIP3    H141220   5.125   5.821   2.529  1.0731 -2.0270 -0.7188
 5675TIP3    H241221   5.169   5.960   2.487  0.0903 -1.6392 -0.4993
 5676TIP3   OH241222   2.773   7.350   3.046  0.1557  0.0992  0.3505
 5676TIP3    H141223   2.849   7.333   3.101  1.6797 -1.5109 -2.0713
 5676TIP3    H241224   2.759   7.269   2.998 -1.6716  1.1145 -0.9678
 5677TIP3   OH241225   0.247   3.846   6.923 -0.1112  0.0950 -0.1913
 5677TIP3    H141226   0.251   3.769   6.867 -0.6304  0.7861 -1.2108
 5677TIP3    H241227   0.204   3.913   6.869 -0.5197  0.8181  0.9895
 5678TIP3   OH241228   3.424   6.431   7.581  0.4410  0.2012 -0.1396
 5678TIP3    H141229   3.388   6.444   7.669  1.4541 -0.2653  0.3636
 5678TIP3    H241230   3.359   6.470   7.523  0.3847  1.7615  0.8989
 5679TIP3   OH241231   6.220   4.887   8.003  0.5482 -0.9163  0.3740
 5679TIP3    H141232   6.269   4.926   8.075  0.1008 -1.4286  0.9656
 5679TIP3    H241233   6.136   4.864   8.042  0.8605 -2.6322  0.0886
 5680TIP3   OH241234   6.716   7.212   9.606  0.0919 -0.6361 -0.2052
 5680TIP3    H141235   6.737   7.193   9.514  1.3973 -1.0178  0.1491
 5680TIP3    H241236   6.630   7.255   9.602 -0.1840 -1.2302 -1.5424
 5681TIP3   OH241237   1.064   6.988   2.547 -0.5206  0.3189 -0.0888
 5681TIP3    H141238   1.002   7.060   2.562  1.3372  2.3623 -1.4171
 5681TIP3    H241239   1.128   7.025   2.486  2.5025 -1.3318  1.8255
 5682TIP3   OH241240   1.728   0.336   8.553  0.8991 -0.0249 -0.2728
 5682TIP3    H141241   1.781   0.412   8.529 -0.8084  1.3716  0.1779
 5682TIP3    H241242   1.709   0.348   8.646 -0.3850 -0.3386 -0.4750
 5683TIP3   OH241243   0.229   6.008   0.377 -0.6058 -0.0096  1.0223
 5683TIP3    H141244   0.288   6.080   0.355 -1.8009  1.1353  1.4196
 5683TIP3    H241245   0.239   5.946   0.306  0.0565  0.8060  0.3794
 5684TIP3   OH241246   6.745   3.567   7.388  0.1264  0.2264  0.7976
 5684TIP3    H141247   6.757   3.481   7.428 -0.5379  0.3010  1.1736
 5684TIP3    H241248   6.773   3.629   7.455 -3.1415  0.4552  2.1265
 5685TIP3   OH241249   4.537   5.713   7.690 -0.3541  0.2362  0.1171
 5685TIP3    H141250   4.625   5.743   7.665 -0.3376 -1.2067 -1.8132
 5685TIP3    H241251   4.551   5.660   7.768  0.5567 -0.2501 -0.3543
 5686TIP3   OH241252   6.398   4.514   1.784  0.3134 -0.2601  0.3078
 5686TIP3    H141253   6.458   4.533   1.712 -0.7759  0.7760 -0.3807
 5686TIP3    H241254   6.333   4.455   1.746  0.6970 -1.1183  0.9531
 5687TIP3   OH241255   1.971   4.927   0.533 -0.0793 -0.2512  0.4319
 5687TIP3    H141256   1.938   4.916   0.444  1.0131 -0.7628  0.0620
 5687TIP3    H241257   1.894   4.919   0.589 -0.8026  0.2032 -0.4675
 5688TIP3   OH241258   2.478   3.836   1.467  0.4079 -0.2379 -0.0252
 5688TIP3    H141259   2.402   3.874   1.423  0.2021 -0.7003 -0.0764
 5688TIP3    H241260   2.445   3.754   1.505  0.3571  0.5627  1.7319
 5689TIP3   OH241261   1.369   3.871   1.716  0.1077  0.0504  0.1124
 5689TIP3    H141262   1.319   3.888   1.636 -1.0705 -1.5851  0.4389
 5689TIP3    H241263   1.457   3.848   1.686  0.2705  1.4498 -0.5598
 5690TIP3   OH241264   1.225   1.761   2.100  0.4585 -0.2164  0.6814
 5690TIP3    H141265   1.311   1.765   2.058 -0.2030  1.0691 -0.6061
 5690TIP3    H241266   1.234   1.690   2.164  1.3537 -2.7346 -1.9900
 5691TIP3   OH241267   4.619   3.005   1.876  0.4666  0.1648 -0.2192
 5691TIP3    H141268   4.628   2.915   1.906  2.1566 -1.2319 -4.1859
 5691TIP3    H241269   4.549   3.001   1.810  1.6795  1.3358 -1.6311
 5692TIP3   OH241270   0.351   4.985   0.814  0.3615  0.0116  0.0999
 5692TIP3    H141271   0.261   4.960   0.791  0.1973 -0.0190  0.7427
 5692TIP3    H241272   0.399   4.979   0.732 -0.1837 -0.1613 -0.2164
 5693TIP3   OH241273   2.861   4.082   8.432 -0.0799  0.2230  0.4744
 5693TIP3    H141274   2.885   3.990   8.444 -1.5719 -0.1536  0.8137
 5693TIP3    H241275   2.928   4.116   8.373  0.6927 -0.9920  0.6030
 5694TIP3   OH241276   0.215   6.582   0.993 -0.4699 -0.0669  0.0743
 5694TIP3    H141277   0.229   6.581   0.898  0.9395  1.5368  0.2126
 5694TIP3    H241278   0.269   6.510   1.025  0.7800  0.7096 -0.1947
 5695TIP3   OH241279   4.286   5.543   1.375  0.2269  0.1923 -0.0058
 5695TIP3    H141280   4.235   5.473   1.335  2.2805 -0.3384 -1.8623
 5695TIP3    H241281   4.334   5.500   1.446  0.5876 -0.0241 -0.3814
 5696TIP3   OH241282   0.739   4.912   9.108  0.7459  0.3838  0.1951
 5696TIP3    H141283   0.661   4.866   9.077  0.7760 -0.6937  1.6344
 5696TIP3    H241284   0.712   4.955   9.189  1.5858  0.2031  0.5799
 5697TIP3   OH241285   6.943   6.007   2.318  0.0248 -1.0542  0.8101
 5697TIP3    H141286   6.936   5.940   2.250 -1.1939 -2.6399  2.3903
 5697TIP3    H241287   6.853   6.020   2.348  0.3130  0.9125  0.9446
 5698TIP3   OH241288   7.090   2.376   8.641  0.8826  0.1583  0.3489
 5698TIP3    H141289   7.087   2.453   8.698 -1.4762  2.2579 -2.3492
 5698TIP3    H241290   7.078   2.410   8.553 -0.8303 -3.3431 -0.9566
 5699TIP3   OH241291   0.610   6.242   8.328  0.4080  1.1166 -0.0897
 5699TIP3    H141292   0.689   6.214   8.373  0.9055  2.1987 -0.2722
 5699TIP3    H241293   0.553   6.275   8.398 -0.9352 -1.8529  0.3915
 5700TIP3   OH241294   4.703   3.470   9.208  0.1638  0.2962  0.0534
 5700TIP3    H141295   4.757   3.539   9.169 -0.3634  1.4394  1.2785
 5700TIP3    H241296   4.641   3.446   9.139  0.9748  0.3494 -0.7079
 5701TIP3   OH241297   2.229   5.799   1.797  0.4745  0.2091  0.4065
 5701TIP3    H141298   2.201   5.796   1.888  0.9813 -0.5082  0.5508
 5701TIP3    H241299   2.222   5.891   1.773 -1.0505  0.1901  0.7156
 5702TIP3   OH241300   5.288   4.380   7.276  0.2132  0.6826  0.1317
 5702TIP3    H141301   5.226   4.322   7.233 -1.7515  1.8161  1.2586
 5702TIP3    H241302   5.284   4.461   7.225  1.5203  0.4810 -0.3319
 5703TIP3   OH241303   4.273   4.692   2.743  0.1506 -0.2012  0.9507
 5703TIP3    H141304   4.287   4.785   2.723  1.9046 -0.1736  2.0830
 5703TIP3    H241305   4.191   4.691   2.793 -1.0435  0.4271 -0.8717
 5704TIP3   OH241306   4.856   2.197   8.801 -0.4282  0.2525 -0.7609
 5704TIP3    H141307   4.777   2.192   8.855 -0.5032  1.9506 -0.6279
 5704TIP3    H241308   4.887   2.107   8.795 -1.8355 -0.3234 -0.0128
 5705TIP3   OH241309   7.118   6.226   2.252 -0.7137  0.3095  0.4051
 5705TIP3    H141310   7.049   6.165   2.279 -1.8915  1.4093 -0.0107
 5705TIP3    H241311   7.071   6.296   2.206  0.6869  1.1102  0.1516
 5706TIP3   OH241312   6.252   2.575   8.720  0.5056 -0.3647 -0.1329
 5706TIP3    H141313   6.172   2.555   8.769  0.4532  0.4360  0.1196
 5706TIP3    H241314   6.255   2.509   8.651 -0.5750 -0.1595 -0.3867
 5707TIP3   OH241315   7.082   3.150   9.184  0.2065  0.0536 -0.1442
 5707TIP3    H141316   7.117   3.121   9.100  0.5409  0.6650 -0.2201
 5707TIP3    H241317   6.991   3.172   9.167  0.5802  1.3013 -0.6218
 5708TIP3   OH241318   1.522   6.370   8.180  0.9949 -0.1573 -0.0932
 5708TIP3    H141319   1.596   6.310   8.167  1.6739  0.8122 -0.8377
 5708TIP3    H241320   1.548   6.450   8.136  0.3806  0.9242  1.4251
 5709TIP3   OH241321   1.470   0.056   8.639 -0.0528 -0.4431 -0.1525
 5709TIP3    H141322   1.457  -0.015   8.576 -0.8741 -1.1678  0.7962
 5709TIP3    H241323   1.563   0.052   8.662 -0.2552 -1.7694  0.5091
 5710TIP3   OH241324   0.727   3.404   8.148  0.5676  0.2821  0.0287
 5710TIP3    H141325   0.674   3.468   8.197  0.9468 -0.0800  0.9493
 5710TIP3    H241326   0.778   3.456   8.087  0.6724  0.8471  0.5856
 5711TIP3   OH241327   5.843   5.430   1.267  0.2136  0.0323 -0.5105
 5711TIP3    H141328   5.855   5.346   1.223  3.0258  1.0895 -2.0956
 5711TIP3    H241329   5.832   5.493   1.195 -2.7384  1.0142  0.6527
 5712TIP3   OH241330   3.224   3.168   8.589  0.2291  1.0608 -0.0793
 5712TIP3    H141331   3.217   3.254   8.632  1.1637  0.8095  0.6309
 5712TIP3    H241332   3.202   3.105   8.658  0.3234  0.7032 -0.3727
 5713TIP3   OH241333   3.456   6.640   9.381  0.2126  0.0810  0.5254
 5713TIP3    H141334   3.545   6.612   9.402  0.7982  2.3195  1.2689
 5713TIP3    H241335   3.443   6.721   9.431 -1.1253  1.4759 -1.8882
 5714TIP3   OH241336   7.144   5.507   7.664  0.2159 -0.4632  0.6578
 5714TIP3    H141337   7.122   5.417   7.688  1.0069 -0.7472  0.3622
 5714TIP3    H241338   7.068   5.540   7.616 -0.3120 -0.7726  1.2737
 5715TIP3   OH241339   6.878   2.338   9.186 -0.3562  0.1705  0.0617
 5715TIP3    H141340   6.790   2.366   9.160 -0.8788 -1.4260 -0.0009
 5715TIP3    H241341   6.865   2.292   9.269  0.4094 -0.1068  0.0379
 5716TIP3   OH241342   2.258   3.980   1.340  0.5451  0.6648 -0.8119
 5716TIP3    H141343   2.265   4.063   1.294  1.8384  0.4806 -0.9783
 5716TIP3    H241344   2.278   3.914   1.273 -0.0121  0.2367 -0.5717
 5717TIP3   OH241345   7.269   1.890   6.578 -0.3932 -0.7418 -0.1999
 5717TIP3    H141346   7.215   1.816   6.606  0.0372 -1.4009 -1.0856
 5717TIP3    H241347   7.306   1.863   6.494  0.6193  0.0580 -0.0293
 5718TIP3   OH241348   2.360   5.701   0.696 -0.4371  0.2261  0.0663
 5718TIP3    H141349   2.430   5.733   0.753  1.0834  1.3703 -2.3027
 5718TIP3    H241350   2.289   5.764   0.708 -0.2610  0.2867  0.8705
 5719TIP3   OH241351   7.379   0.157   1.422  0.1895  0.3177  0.3175
 5719TIP3    H141352   7.417   0.199   1.499  1.5686  0.5209 -0.4382
 5719TIP3    H241353   7.292   0.196   1.413 -0.2169 -0.0893  2.0487
 5720TIP3   OH241354   0.475   5.490   9.250  0.6515  0.2649  0.4740
 5720TIP3    H141355   0.548   5.507   9.190  0.9312 -0.6165  0.5490
 5720TIP3    H241356   0.410   5.556   9.228  0.7403 -0.0521 -0.8170
 5721TIP3   OH241357   2.761   6.623   0.055  0.0369 -0.2306  0.4786
 5721TIP3    H141358   2.779   6.544   0.105 -0.0302 -0.2565  0.4625
 5721TIP3    H241359   2.757   6.594  -0.036  0.7374 -0.0858  0.3986
 5722TIP3   OH241360   6.708   0.501   1.432  0.2017  0.3466  0.3056
 5722TIP3    H141361   6.675   0.588   1.455 -3.0983 -0.4827 -0.7209
 5722TIP3    H241362   6.746   0.512   1.345  1.5189  1.0662  0.9397
 5723TIP3   OH241363   0.887   6.691   1.791  0.2408  0.9123  0.1460
 5723TIP3    H141364   0.951   6.733   1.733  0.1707 -0.2700 -0.8293
 5723TIP3    H241365   0.844   6.626   1.736  0.1508 -0.2533  1.5219
 5724TIP3   OH241366   6.073   0.820   1.124  0.2951 -0.2517 -0.6318
 5724TIP3    H141367   6.040   0.833   1.035  0.9819 -0.3228 -0.9023
 5724TIP3    H241368   6.168   0.822   1.115  0.3712 -0.4113  0.0803
 5725TIP3   OH241369   0.470   2.130   1.281 -0.0238  0.2826  0.0639
 5725TIP3    H141370   0.431   2.216   1.297 -2.9904 -1.2600  2.1791
 5725TIP3    H241371   0.479   2.091   1.368 -1.4135 -2.5483 -0.9332
 5726TIP3   OH241372   6.946   1.598   7.097  0.6535  0.1492  0.0164
 5726TIP3    H141373   7.041   1.591   7.086  0.5035 -0.7069 -0.8440
 5726TIP3    H241374   6.931   1.692   7.113  1.8386 -0.0113  2.5049
 5727TIP3   OH241375   1.377   2.661   7.393  0.1205  0.2630  0.2228
 5727TIP3    H141376   1.443   2.700   7.336 -0.2055 -0.1496 -0.4475
 5727TIP3    H241377   1.414   2.668   7.481  0.8460  0.4684 -0.0949
 5728TIP3   OH241378   4.980   2.266   7.983 -0.8475 -0.4060  0.0775
 5728TIP3    H141379   5.006   2.354   7.955 -1.5436 -0.3052 -0.2751
 5728TIP3    H241380   5.020   2.255   8.069 -0.2396  0.0122 -0.1434
 5729TIP3   OH241381   3.948   6.701   9.042  0.5571 -0.7604  0.0839
 5729TIP3    H141382   4.014   6.643   9.079  2.5190  2.6383  2.5443
 5729TIP3    H241383   3.900   6.734   9.118 -0.7118  0.5298 -1.2169
 5730TIP3   OH241384   6.413   6.842   8.430 -0.3182 -0.2428 -0.1364
 5730TIP3    H141385   6.474   6.849   8.356  0.8574 -0.2095  0.7941
 5730TIP3    H241386   6.410   6.748   8.448  0.5798 -0.1342  0.6861
 5731TIP3   OH241387   5.923   2.747   7.105 -0.2392  0.4337 -0.1141
 5731TIP3    H141388   5.951   2.696   7.181 -0.9691 -0.9773 -0.7521
 5731TIP3    H241389   6.001   2.795   7.078  0.3901 -0.1011  0.6974
 5732TIP3   OH241390   2.496   3.740   0.968 -0.0116  0.2429  0.1344
 5732TIP3    H141391   2.420   3.761   1.022 -1.5603  0.4737 -1.9949
 5732TIP3    H241392   2.544   3.823   0.962 -1.5019  1.0741 -1.2671
 5733TIP3   OH241393   3.803   6.893   2.133 -0.5498  0.5681 -0.3832
 5733TIP3    H141394   3.822   6.925   2.046 -0.7917  0.8911 -0.3195
 5733TIP3    H241395   3.721   6.845   2.124 -1.0720  1.3900 -0.1636
 5734TIP3   OH241396   2.344   3.814   8.253  0.5274 -0.3367  0.4499
 5734TIP3    H141397   2.289   3.735   8.259  1.3127 -1.0948 -1.4720
 5734TIP3    H241398   2.306   3.864   8.181  1.9389 -0.5761 -0.5061
 5735TIP3   OH241399   1.371   4.082   9.015  0.1342 -0.3498 -0.2027
 5735TIP3    H141400   1.297   4.092   9.076 -1.1796  0.1594 -1.8139
 5735TIP3    H241401   1.411   4.169   9.013 -0.2408 -0.1799 -0.5580
 5736TIP3   OH241402   5.567   6.977   7.006 -0.1637 -0.2136  0.2453
 5736TIP3    H141403   5.528   7.026   6.933  1.3913 -0.0109 -0.4965
 5736TIP3    H241404   5.660   6.976   6.986  0.6955  1.9139  3.4605
 5737TIP3   OH241405   6.892   6.826   7.637 -0.0003 -0.0781  0.0532
 5737TIP3    H141406   6.830   6.892   7.667  0.3069 -0.6648  2.1029
 5737TIP3    H241407   6.978   6.866   7.650  0.1371 -0.0925 -0.7362
 5738TIP3   OH241408   6.770   2.001   0.964 -0.6563 -0.7806  0.5598
 5738TIP3    H141409   6.794   1.957   0.882 -1.1070 -0.5181  0.2842
 5738TIP3    H241410   6.823   2.080   0.966  0.5886 -1.6088  1.3399
 5739TIP3   OH241411   5.258   2.389   1.956 -0.3761  0.1313  0.5901
 5739TIP3    H141412   5.222   2.470   1.992  1.9427  1.9986 -0.9249
 5739TIP3    H241413   5.353   2.402   1.960  0.1314 -3.0600  1.3518
 5740TIP3   OH241414   5.350   5.811   8.100 -0.3234  0.6861 -0.0656
 5740TIP3    H141415   5.296   5.768   8.167  0.7123  1.5598  1.3783
 5740TIP3    H241416   5.388   5.738   8.050 -2.1594  0.0420 -0.6228
 5741TIP3   OH241417   4.485   1.836   9.061 -0.3866 -0.7208  0.1595
 5741TIP3    H141418   4.422   1.808   9.127 -1.8960  0.4109 -0.7138
 5741TIP3    H241419   4.558   1.872   9.111 -1.0298 -0.8164  1.2032
 5742TIP3   OH241420   4.632   0.437   9.117  0.3822  0.0337  0.1117
 5742TIP3    H141421   4.676   0.357   9.089 -1.4268 -0.8003 -0.5460
 5742TIP3    H241422   4.701   0.503   9.120  1.8410 -1.4319  0.2083
 5743TIP3   OH241423   3.353   0.134   0.485  0.7592  0.2799  0.2764
 5743TIP3    H141424   3.360   0.098   0.574  0.9271  1.1427  0.6286
 5743TIP3    H241425   3.271   0.183   0.486  0.8536  0.4437  0.0101
 5744TIP3   OH241426   5.987   7.130   8.319 -0.7385  0.2683 -0.9906
 5744TIP3    H141427   5.959   7.190   8.388  0.7927 -0.2502  0.1311
 5744TIP3    H241428   5.939   7.049   8.337  0.1504 -0.0844 -0.0769
 5745TIP3   OH241429   0.067   0.760   8.848  0.1495 -0.2457 -0.1112
 5745TIP3    H141430   0.047   0.785   8.758  1.4661  1.5725  0.0527
 5745TIP3    H241431   0.142   0.701   8.841  1.2575  1.1150 -0.1714
 5746TIP3   OH241432   6.875   4.434   1.356  0.5503 -0.1142 -0.0995
 5746TIP3    H141433   6.948   4.455   1.298  1.2531 -0.7057  0.5487
 5746TIP3    H241434   6.828   4.516   1.366  3.0982  1.2238  2.2096
 5747TIP3   OH241435   4.459   5.294   1.174  0.8168  0.3088  0.5709
 5747TIP3    H141436   4.384   5.242   1.202 -0.9072  2.7282  0.7766
 5747TIP3    H241437   4.517   5.295   1.250  0.9935 -1.3855  0.4950
 5748TIP3   OH241438   4.980   2.888   0.319  0.1099 -0.4024 -0.5189
 5748TIP3    H141439   4.998   2.839   0.238 -1.3667 -2.2128  0.1886
 5748TIP3    H241440   5.058   2.942   0.331  1.8960 -2.6287 -1.3361
 5749TIP3   OH241441   6.085   4.195   7.385  0.0067  0.6379  0.2851
 5749TIP3    H141442   6.104   4.283   7.354 -0.5381  1.2310  1.5890
 5749TIP3    H241443   5.990   4.190   7.389 -0.0402 -0.5371 -1.1824
 5750TIP3   OH241444   0.024   2.595   2.488  0.0477 -0.5915  0.4853
 5750TIP3    H141445   0.002   2.514   2.533 -0.8794  0.4250  1.9713
 5750TIP3    H241446  -0.059   2.641   2.480  0.6596  0.5310  0.3657
 5751TIP3   OH241447   2.314   5.787   7.912  1.0523 -0.2867 -0.5686
 5751TIP3    H141448   2.370   5.720   7.952 -1.4859 -2.2424 -0.0766
 5751TIP3    H241449   2.268   5.826   7.987  1.5353  1.1395 -0.9866
 5752TIP3   OH241450   6.865   1.435   9.423  0.3739  0.6223  0.1202
 5752TIP3    H141451   6.791   1.493   9.407 -0.4437 -0.1182  1.0862
 5752TIP3    H241452   6.860   1.369   9.354 -0.1915  0.2748  0.4852
 5753TIP3   OH241453   4.542   5.542   2.235  0.1500  0.0342 -0.3029
 5753TIP3    H141454   4.535   5.509   2.325  0.6217  0.7938  0.0215
 5753TIP3    H241455   4.602   5.482   2.192  0.0759 -0.2209 -0.0534
 5754TIP3   OH241456   5.243   7.069   9.281 -0.4462 -0.1478  0.1014
 5754TIP3    H141457   5.266   7.069   9.373  0.7166  0.2867 -0.1792
 5754TIP3    H241458   5.178   6.998   9.272 -1.4063  0.5286  1.4293
 5755TIP3   OH241459   6.104   5.764   0.728  0.2293  0.2373 -0.4703
 5755TIP3    H141460   6.186   5.793   0.687 -0.5840  1.6697 -1.1647
 5755TIP3    H241461   6.036   5.812   0.681 -0.9592 -0.3010  0.6514
 5756TIP3   OH241462   2.157   2.264   2.074  0.0563 -0.1094  0.3626
 5756TIP3    H141463   2.128   2.190   2.021 -2.5175 -0.5292  2.1789
 5756TIP3    H241464   2.204   2.320   2.013 -0.6635 -1.7139 -1.7838
 5757TIP3   OH241465   2.504   0.874   8.530  0.6092 -0.8777 -0.2006
 5757TIP3    H141466   2.534   0.872   8.621  0.3478 -0.3228 -0.1012
 5757TIP3    H241467   2.491   0.967   8.511  0.4516 -1.0083 -0.7355
 5758TIP3   OH241468   1.980   3.760   2.404 -0.3848  0.2790 -0.2171
 5758TIP3    H141469   1.941   3.805   2.479 -0.0672  0.0550  0.0877
 5758TIP3    H241470   2.073   3.755   2.425 -0.6766 -2.4823  0.8351
 5759TIP3   OH241471   4.071   1.240   8.665  0.2322  0.8640  0.0483
 5759TIP3    H141472   3.988   1.283   8.686 -0.0412  0.8819 -1.0316
 5759TIP3    H241473   4.125   1.254   8.743 -1.2984 -0.4920  1.4523
 5760TIP3   OH241474   3.317   2.997   2.251  0.0039 -0.3407  0.2389
 5760TIP3    H141475   3.284   2.934   2.186  0.6420 -1.0609  0.6043
 5760TIP3    H241476   3.263   2.982   2.328  0.0382 -0.3066  0.2696
 5761TIP3   OH241477   0.949   3.602   2.136 -0.0859 -0.9062 -0.4610
 5761TIP3    H141478   0.863   3.598   2.093 -0.4670 -1.2632  0.3140
 5761TIP3    H241479   0.953   3.690   2.173 -0.8256 -1.4166  0.8988
 5762TIP3   OH241480   0.191   6.905   6.752  0.1364  0.0292 -0.4323
 5762TIP3    H141481   0.244   6.984   6.746  0.9363 -0.5603 -1.4803
 5762TIP3    H241482   0.145   6.900   6.668  0.5117 -0.8961 -0.5968
 5763TIP3   OH241483   4.919   0.386   0.548 -0.0431  0.3153  0.0412
 5763TIP3    H141484   4.896   0.460   0.605 -3.9297 -1.2346  0.8334
 5763TIP3    H241485   4.950   0.425   0.468 -1.3219  2.8500  0.6842
 5764TIP3   OH241486   7.176   1.275   0.072  0.2538 -0.3991  0.1483
 5764TIP3    H141487   7.246   1.230   0.118 -0.0042 -0.1586  0.7779
 5764TIP3    H241488   7.095   1.242   0.112  0.0591  0.5242  0.5401
 5765TIP3   OH241489   3.455   5.812   8.799 -0.5290 -0.2159 -0.2922
 5765TIP3    H141490   3.406   5.767   8.869  0.1532  0.3387  0.5597
 5765TIP3    H241491   3.452   5.904   8.823  0.9136 -0.1643 -0.2342
 5766TIP3   OH241492   7.204   5.899   1.414  0.4163  0.0070  0.3914
 5766TIP3    H141493   7.194   5.861   1.501 -1.5451 -0.7302 -0.1094
 5766TIP3    H241494   7.218   5.992   1.429  2.2948 -0.4049  1.5342
 5767TIP3   OH241495   7.178   3.435   2.086  0.3990 -0.3779  0.8292
 5767TIP3    H141496   7.194   3.371   2.017 -0.3692  0.5461 -0.2314
 5767TIP3    H241497   7.180   3.520   2.042 -0.8710  0.1907  1.7931
 5768TIP3   OH241498   3.725   5.512   0.300  0.0253 -0.3264  0.3154
 5768TIP3    H141499   3.719   5.444   0.367  1.0315 -0.2719  0.4845
 5768TIP3    H241500   3.765   5.586   0.345 -4.1391  1.6982  1.0707
 5769TIP3   OH241501   1.193   2.119   0.862 -0.7264  0.8839  0.2282
 5769TIP3    H141502   1.198   2.052   0.929 -1.4378  0.9746  0.3745
 5769TIP3    H241503   1.239   2.194   0.899  1.0429  0.1492 -0.3630
 5770TIP3   OH241504   0.213   5.836   8.174  0.4228  0.0539 -0.2986
 5770TIP3    H141505   0.159   5.824   8.252 -1.6506  2.0372 -1.3209
 5770TIP3    H241506   0.199   5.757   8.122  0.4144 -0.4938  0.5092
 5771TIP3   OH241507   2.010   0.349   8.960  0.7382 -0.2716  0.5007
 5771TIP3    H141508   1.997   0.381   8.871  1.3264  0.4162  0.6463
 5771TIP3    H241509   2.105   0.353   8.973  0.6403 -0.1424  1.2319
 5772TIP3   OH241510   0.558   3.184   2.349  0.0251 -0.2074 -0.4377
 5772TIP3    H141511   0.561   3.260   2.292 -2.7121  0.3784  0.0630
 5772TIP3    H241512   0.610   3.210   2.425  0.7145  0.3993 -1.0971
 5773TIP3   OH241513   0.662   0.127   9.522 -0.0324  0.5146 -0.3335
 5773TIP3    H141514   0.707   0.080   9.592  0.5516  0.3256 -0.8283
 5773TIP3    H241515   0.676   0.074   9.444  2.1617  2.3456 -1.2898
 5774TIP3   OH241516   4.042   4.369   8.413  0.2903 -0.4071 -0.0353
 5774TIP3    H141517   4.130   4.400   8.392  0.8909  0.6721  3.4377
 5774TIP3    H241518   4.036   4.377   8.508 -3.3980 -0.9847 -0.0785
 5775TIP3   OH241519   6.408   5.541   2.473  0.0090 -0.6780 -0.8407
 5775TIP3    H141520   6.468   5.583   2.413 -1.3169  0.2979 -1.5305
 5775TIP3    H241521   6.465   5.493   2.534  1.4710  0.4058 -1.2954
 5776TIP3   OH241522   2.131   6.267   0.464 -0.4388  0.3309  0.4829
 5776TIP3    H141523   2.071   6.268   0.389 -0.6957 -0.1670  0.6699
 5776TIP3    H241524   2.165   6.177   0.465  0.3424  0.6189  0.3615
 5777TIP3   OH241525   4.532   0.151   7.751  0.0573  0.3838 -0.0954
 5777TIP3    H141526   4.589   0.123   7.680  0.7013 -0.0300  0.5662
 5777TIP3    H241527   4.591   0.186   7.817 -0.4323 -0.1335  0.6386
 5778TIP3   OH241528   1.446   6.258   1.666  0.0363 -0.2286  0.7250
 5778TIP3    H141529   1.351   6.259   1.674  0.0575  0.1899  0.9381
 5778TIP3    H241530   1.478   6.279   1.753  0.3291 -0.4574  0.6756
 5779TIP3   OH241531   1.517   5.484   7.667  0.2552 -0.7173  0.0241
 5779TIP3    H141532   1.455   5.412   7.679 -0.3949 -0.1590  0.0518
 5779TIP3    H241533   1.602   5.441   7.660 -0.2696 -1.6045 -1.3542
 5780TIP3   OH241534   0.689   2.049   7.934  0.1649 -0.1668  0.1184
 5780TIP3    H141535   0.778   2.081   7.951 -0.1514 -0.9870  3.9971
 5780TIP3    H241536   0.644   2.125   7.896  1.9465  0.9315  0.0824
 5781TIP3   OH241537   1.885   5.822   7.117  0.4119 -0.4268 -0.2139
 5781TIP3    H141538   1.872   5.740   7.164 -0.8581 -0.2906 -0.2971
 5781TIP3    H241539   1.881   5.798   7.024 -2.4340  0.0225 -0.2836
 5782TIP3   OH241540   0.657   1.006   7.591  0.0378 -0.1142  0.3119
 5782TIP3    H141541   0.722   1.003   7.661 -0.9110 -1.1776  1.1915
 5782TIP3    H241542   0.588   0.946   7.620 -0.7259 -0.0121 -1.1967
 5783TIP3   OH241543   2.062   3.629   6.360  0.3748  0.0808 -0.0132
 5783TIP3    H141544   1.971   3.600   6.364  0.4180  0.0071  0.4907
 5783TIP3    H241545   2.105   3.563   6.305  0.1921 -0.0684  0.0209
 5784TIP3   OH241546   4.647   1.441   1.664  0.3942  0.0042 -1.0863
 5784TIP3    H141547   4.739   1.414   1.668  0.6082  0.8231  1.6631
 5784TIP3    H241548   4.650   1.535   1.647  0.1462  0.2236 -0.0082
 5785TIP3   OH241549   7.045   0.433   0.169  0.7343  0.5602 -0.3758
 5785TIP3    H141550   7.006   0.346   0.174  0.8096  0.5689  0.4816
 5785TIP3    H241551   7.009   0.470   0.088 -0.2961  0.2133 -0.0941
 5786TIP3   OH241552   2.636   7.280   2.616 -0.4024 -0.2150 -0.2616
 5786TIP3    H141553   2.654   7.343   2.687  0.7009 -1.7956  0.9415
 5786TIP3    H241554   2.584   7.211   2.658 -2.3453  0.2556 -1.7715
 5787TIP3   OH241555   1.064   6.154   2.858 -0.0878 -0.2405  0.6404
 5787TIP3    H141556   1.012   6.140   2.938 -0.2161 -2.0125  0.2917
 5787TIP3    H241557   1.099   6.242   2.868 -1.3699  0.1773  1.9249
 5788TIP3   OH241558   6.346   5.888   0.012 -0.2367 -0.3707 -1.1877
 5788TIP3    H141559   6.409   5.959   0.028 -0.0946 -0.4998 -1.1758
 5788TIP3    H241560   6.376   5.816   0.068 -0.8830 -0.1487 -0.5390
 5789TIP3   OH241561   5.322   4.067   8.122  0.0120  0.1843 -0.0709
 5789TIP3    H141562   5.345   4.097   8.210  2.1457 -0.9194 -0.1766
 5789TIP3    H241563   5.399   4.017   8.093 -1.6421 -1.6652 -1.5575
 5790TIP3   OH241564   6.739   2.133   6.922 -0.1032  0.0394 -0.1471
 5790TIP3    H141565   6.753   2.054   6.975  0.6237 -0.3925 -0.9631
 5790TIP3    H241566   6.714   2.200   6.986 -0.5056 -0.7884  0.5837
 5791TIP3   OH241567   2.167   7.111   2.259 -0.1290  0.4818 -0.3919
 5791TIP3    H141568   2.147   7.126   2.352  0.9153 -2.8940  0.5283
 5791TIP3    H241569   2.082   7.095   2.219 -0.4208 -1.2417  0.7654
 5792TIP3   OH241570   6.411   1.098   8.075  0.4054 -0.2387 -0.0840
 5792TIP3    H141571   6.460   1.018   8.057  1.8221  0.4800  0.4032
 5792TIP3    H241572   6.376   1.124   7.989  0.2244 -1.1847 -0.3036
 5793TIP3   OH241573   3.187   3.117   1.331  0.5457 -0.1384  0.5209
 5793TIP3    H141574   3.195   3.202   1.374 -0.6963 -0.5561  1.6508
 5793TIP3    H241575   3.105   3.123   1.283  0.6414 -0.5753  0.3030
 5794TIP3   OH241576   3.144   4.011   0.161 -0.2267 -0.0544  0.3488
 5794TIP3    H141577   3.088   3.955   0.216  0.6796  1.0411  2.4931
 5794TIP3    H241578   3.093   4.024   0.081 -2.1374 -0.7471  1.3906
 5795TIP3   OH241579   7.150   6.298   7.808  0.3724 -0.2602 -0.4042
 5795TIP3    H141580   7.155   6.354   7.730  0.1573  1.7974  0.9893
 5795TIP3    H241581   7.060   6.266   7.808  0.3793 -0.3004 -1.0154
 5796TIP3   OH241582   0.269   3.634   9.614 -0.3378 -0.1905 -0.2241
 5796TIP3    H141583   0.260   3.543   9.587  1.4069 -0.5704  0.3701
 5796TIP3    H241584   0.272   3.631   9.709  1.4630  0.2553 -0.2273
 5797TIP3   OH241585   3.712   1.269   9.238 -1.0927 -0.5609  0.5446
 5797TIP3    H141586   3.794   1.275   9.286 -0.5273  0.5487 -0.5119
 5797TIP3    H241587   3.696   1.175   9.229  1.1543 -0.8660 -1.0027
 5798TIP3   OH241588   0.209   6.038   9.123  0.1882  0.4425 -0.5455
 5798TIP3    H141589   0.135   6.088   9.158 -0.0774 -0.4577  0.1918
 5798TIP3    H241590   0.263   6.104   9.079  0.2411  1.5148  1.0630
 5799TIP3   OH241591   3.699   1.142   0.280  0.2433 -0.1834  0.6253
 5799TIP3    H141592   3.616   1.137   0.327  0.6497  1.3247  1.5687
 5799TIP3    H241593   3.747   1.064   0.308 -0.7805 -1.0067  0.1658
 5800TIP3   OH241594   4.426   5.290   8.131 -0.0115  0.2436  0.7137
 5800TIP3    H141595   4.367   5.330   8.066  1.4585  0.2939 -0.6400
 5800TIP3    H241596   4.454   5.363   8.186 -1.1154  0.2347  1.3187
 5801TIP3   OH241597   3.941   4.983   2.071  0.1137 -0.0186 -0.4077
 5801TIP3    H141598   3.980   4.907   2.029  2.3555 -0.4320  2.1683
 5801TIP3    H241599   4.014   5.041   2.089 -1.3610  2.1382 -1.0043
 5802TIP3   OH241600   6.567   3.308   7.755 -0.2550 -0.2465  0.0181
 5802TIP3    H141601   6.562   3.279   7.664 -1.2252 -1.7385  0.5102
 5802TIP3    H241602   6.476   3.324   7.780 -0.5616 -3.6680  1.8135
 5803TIP3   OH241603   1.318   3.090   8.241  0.1814  0.1422  0.2873
 5803TIP3    H141604   1.352   3.031   8.308  0.9671  0.1505 -0.0911
 5803TIP3    H241605   1.351   3.176   8.265  0.8655  0.0724 -0.3536
 5804TIP3   OH241606   4.795   3.748   1.513  0.0233 -0.1215  0.5095
 5804TIP3    H141607   4.845   3.828   1.504 -1.6250  0.9442  0.3653
 5804TIP3    H241608   4.704   3.777   1.524 -0.7300 -1.9669 -0.3116
 5805TIP3   OH241609   3.935   6.310   2.270  0.1851 -0.6742  0.0284
 5805TIP3    H141610   3.953   6.250   2.343 -0.5595 -0.8751  0.0619
 5805TIP3    H241611   3.936   6.397   2.309 -0.0894 -0.7723  0.2567
 5806TIP3   OH241612   6.815   5.879   7.988  0.2747  0.3689  0.0896
 5806TIP3    H141613   6.734   5.875   7.938 -0.7130  1.3710  1.5532
 5806TIP3    H241614   6.877   5.921   7.929 -0.0897 -0.8368 -1.2233
 5807TIP3   OH241615   5.563   0.046   7.722  0.3439 -0.4188 -0.1362
 5807TIP3    H141616   5.539  -0.010   7.648  1.3005  0.1403 -0.8849
 5807TIP3    H241617   5.599  -0.015   7.787 -1.6049 -1.0799  0.4174
 5808TIP3   OH241618   3.693   4.604   2.017  0.1852 -1.1681 -0.6249
 5808TIP3    H141619   3.789   4.598   2.016  0.1880 -1.2763 -0.0200
 5808TIP3    H241620   3.670   4.635   1.929  0.8348 -0.3049 -0.5019
 5809TIP3   OH241621   0.835   4.612   8.009  0.1872 -0.5869  0.2202
 5809TIP3    H141622   0.878   4.607   8.094 -0.0735 -1.4993  0.3133
 5809TIP3    H241623   0.853   4.527   7.968  0.1014 -0.2463 -0.5308
 5810TIP3   OH241624   2.070   5.469   6.634  0.0209  0.4959 -1.0049
 5810TIP3    H141625   2.159   5.480   6.598 -0.0364  1.0151 -0.9852
 5810TIP3    H241626   2.013   5.508   6.569  0.0793  3.7768  0.7423
 5811TIP3   OH241627   5.370   6.905   1.637  0.1745 -0.0288  0.2038
 5811TIP3    H141628   5.427   6.889   1.711  0.4594  0.4999  0.1073
 5811TIP3    H241629   5.306   6.968   1.669 -0.0676 -0.2613  0.1772
 5812TIP3   OH241630   0.320   4.434   9.661 -0.6293  0.3673  0.1596
 5812TIP3    H141631   0.406   4.395   9.678 -1.3295 -1.1747  0.3326
 5812TIP3    H241632   0.327   4.524   9.695  1.3741  0.7987 -1.2411
 5813TIP3   OH241633   2.296   4.430   9.469  0.3671  0.2449 -0.1028
 5813TIP3    H141634   2.309   4.382   9.551 -0.9874  0.6801  0.3873
 5813TIP3    H241635   2.365   4.497   9.469 -0.8660  1.5925  1.7189
 5814TIP3   OH241636   5.392   3.991   7.330 -0.5011  0.4333  0.2277
 5814TIP3    H141637   5.443   3.913   7.353  2.6715  2.3470  0.2976
 5814TIP3    H241638   5.397   4.047   7.407 -0.4315  1.7761 -0.7090
 5815TIP3   OH241639   2.680   5.365   1.114 -0.0043 -0.1840  0.3501
 5815TIP3    H141640   2.728   5.447   1.104 -0.8296  0.4084  1.1131
 5815TIP3    H241641   2.637   5.353   1.029 -0.7350  0.7433  0.5717
 5816TIP3   OH241642   1.997   1.278   0.952 -0.0940 -0.4023 -0.4168
 5816TIP3    H141643   2.014   1.276   0.858  0.1216  1.1103 -0.4431
 5816TIP3    H241644   2.084   1.277   0.992 -0.1599 -3.7988 -0.0547
 5817TIP3   OH241645   2.474   6.871   8.015  0.0115  0.0022 -0.2913
 5817TIP3    H141646   2.536   6.826   8.073  1.3281  0.9295 -0.9162
 5817TIP3    H241647   2.519   6.875   7.931 -1.0037  0.5379 -0.8253
 5818TIP3   OH241648   6.502   4.275   1.367 -0.1599  0.3889  0.2211
 5818TIP3    H141649   6.491   4.222   1.445  0.6103  0.4024  0.3500
 5818TIP3    H241650   6.576   4.235   1.321 -0.3450  0.6241 -0.2916
 5819TIP3   OH241651   2.241   0.342   1.912  0.0439  0.6290 -0.4514
 5819TIP3    H141652   2.167   0.346   1.851 -0.4526  0.7900  0.1458
 5819TIP3    H241653   2.217   0.273   1.974 -1.7707  3.5244  2.4254
 5820TIP3   OH241654   6.652   6.616   8.136 -0.2880  0.0067  0.3601
 5820TIP3    H141655   6.604   6.535   8.117  0.4031 -0.2509 -0.3453
 5820TIP3    H241656   6.629   6.674   8.064  0.3838 -0.0886  0.0649
 5821TIP3   OH241657   5.764   1.452   7.912  0.1242 -0.0350  0.4363
 5821TIP3    H141658   5.792   1.505   7.987  2.2265 -1.6917  0.9096
 5821TIP3    H241659   5.708   1.385   7.951  2.6215 -1.9723  0.9186
 5822TIP3   OH241660   0.242   0.847   2.106  0.4367  0.1954  0.3938
 5822TIP3    H141661   0.300   0.772   2.088  0.5633  0.4517 -0.3021
 5822TIP3    H241662   0.217   0.836   2.198 -0.3484 -1.2615  0.0470
 5823TIP3   OH241663   4.086   5.202   8.958  0.0067 -0.1007 -0.2488
 5823TIP3    H141664   4.141   5.230   9.031  1.7454 -2.1126 -0.6678
 5823TIP3    H241665   4.105   5.265   8.888 -1.5502  1.7422  0.9098
 5824TIP3   OH241666   0.419   3.350   7.350 -0.5649  0.1840 -0.9595
 5824TIP3    H141667   0.511   3.341   7.328 -1.0778 -2.5405 -2.4574
 5824TIP3    H241668   0.405   3.444   7.358  2.1403  0.7132 -1.5362
 5825TIP3   OH241669   2.142   1.976   8.269  0.4647 -0.1112  0.4676
 5825TIP3    H141670   2.119   2.065   8.244  1.2093  0.5671  2.0820
 5825TIP3    H241671   2.073   1.950   8.331  0.4365 -0.5380  0.2612
 5826TIP3   OH241672   7.377   4.391   1.720  0.1747 -0.1139 -0.4297
 5826TIP3    H141673   7.408   4.455   1.655 -1.8812  1.6074  0.1635
 5826TIP3    H241674   7.454   4.372   1.774  0.6532  2.7703  0.0726
 5827TIP3   OH241675   3.486   6.162   1.763  0.6813  0.2741  0.4696
 5827TIP3    H141676   3.425   6.108   1.713  1.3613 -0.3393  0.2820
 5827TIP3    H241677   3.431   6.208   1.826  0.0323 -0.3565  0.3842
 5828TIP3   OH241678   3.333   4.436   8.248  0.6109  0.3086  0.7634
 5828TIP3    H141679   3.320   4.408   8.339  0.9958 -0.3711  0.6178
 5828TIP3    H241680   3.325   4.531   8.250 -1.0582  0.1898  1.2339
 5829TIP3   OH241681   4.669   5.263   0.142  0.2310  0.6442 -0.0202
 5829TIP3    H141682   4.683   5.170   0.124 -1.5782  0.5735 -1.3310
 5829TIP3    H241683   4.665   5.268   0.238  1.3231 -0.4409  0.1108
 5830TIP3   OH241684   3.978   3.357   2.837 -0.3428 -0.4892  0.3678
 5830TIP3    H141685   3.909   3.368   2.902 -0.7986  0.7697 -0.3054
 5830TIP3    H241686   4.007   3.446   2.816 -0.0673 -0.8694 -0.9971
 5831TIP3   OH241687   6.588   0.129   7.879  0.0631  0.1006 -0.2792
 5831TIP3    H141688   6.676   0.111   7.913  0.2373  2.3629  0.6640
 5831TIP3    H241689   6.554   0.044   7.854  2.7828 -0.7891 -1.3443
 5832TIP3   OH241690   0.425   0.492   0.252  0.0352  0.4746  0.1702
 5832TIP3    H141691   0.429   0.396   0.245 -2.6679  0.3287 -0.3445
 5832TIP3    H241692   0.423   0.509   0.346 -0.6485 -0.0712  0.2622
 5833TIP3   OH241693   0.626   0.746   1.200  0.1142  0.0790 -0.7275
 5833TIP3    H141694   0.670   0.685   1.142 -0.1321  0.2523 -1.1015
 5833TIP3    H241695   0.541   0.763   1.158  0.7321  1.7955 -1.3971
 5834TIP3   OH241696   7.245   5.749   2.905 -0.0363  0.7030 -0.1535
 5834TIP3    H141697   7.285   5.830   2.938  0.6691  0.7343 -1.0435
 5834TIP3    H241698   7.155   5.774   2.882  0.0307  1.1151  0.0327
 5835TIP3   OH241699   3.473   4.164   1.006  0.7421  0.3563 -0.3815
 5835TIP3    H141700   3.400   4.195   1.060  0.5288 -0.6729 -0.0543
 5835TIP3    H241701   3.433   4.099   0.948  1.0685  1.0690 -1.4459
 5836TIP3   OH241702   1.276   3.044   7.163  0.0144 -0.2388 -1.0903
 5836TIP3    H141703   1.209   3.049   7.095 -1.4113  0.0130  0.2810
 5836TIP3    H241704   1.284   3.133   7.196  0.9372 -0.2943 -1.1286
 5837TIP3   OH241705   0.134   4.168   1.775 -0.3109  0.5702  0.1433
 5837TIP3    H141706   0.161   4.197   1.687 -0.8897  3.1977  0.7505
 5837TIP3    H241707   0.128   4.073   1.767  1.2048  0.5710 -2.2199
 5838TIP3   OH241708   2.200   2.386   9.299  0.2914 -0.0981 -0.0825
 5838TIP3    H141709   2.273   2.434   9.261  0.4043 -0.9694 -1.0158
 5838TIP3    H241710   2.218   2.294   9.279 -0.9995 -0.3417 -0.2636
 5839TIP3   OH241711   5.812   3.248   0.307 -0.2847  0.1290 -0.3414
 5839TIP3    H141712   5.773   3.216   0.388 -1.5763  1.3584 -0.4536
 5839TIP3    H241713   5.759   3.323   0.283  2.1968  1.9754 -0.4455
 5840TIP3   OH241714   6.505   3.832   2.681  0.3192  0.3522 -0.0219
 5840TIP3    H141715   6.442   3.776   2.727  0.2853 -0.3054 -0.8452
 5840TIP3    H241716   6.545   3.885   2.750  0.4073 -0.7477  0.8037
 5841TIP3   OH241717   6.899   2.413   0.270  0.4716 -0.2737  0.3311
 5841TIP3    H141718   6.896   2.370   0.185  1.5610 -1.2329  0.7576
 5841TIP3    H241719   6.866   2.501   0.253  0.0174 -0.6665 -0.9407
 5842TIP3   OH241720   1.713   5.860   2.462 -0.1820  0.0699  0.2052
 5842TIP3    H141721   1.738   5.768   2.455 -0.6132 -0.5719  4.3462
 5842TIP3    H241722   1.791   5.908   2.434 -0.4259 -1.3322 -3.4874
 5843TIP3   OH241723   4.463   7.140   2.247 -0.0436 -0.0358  0.0826
 5843TIP3    H141724   4.555   7.119   2.260  0.5913  2.2187 -0.2153
 5843TIP3    H241725   4.416   7.082   2.306  1.6749 -0.2295  1.3469
 5844TIP3   OH241726   0.880   5.169   7.573  0.2131 -0.7733 -0.0439
 5844TIP3    H141727   0.926   5.161   7.656 -0.7097 -2.0772  0.3676
 5844TIP3    H241728   0.788   5.180   7.597  0.0564 -0.1040 -0.8868
 5845TIP3   OH241729   6.377   4.818   1.595  0.9002  0.1656  0.1136
 5845TIP3    H141730   6.449   4.814   1.532  1.5115  1.0968  0.7377
 5845TIP3    H241731   6.325   4.740   1.576  1.3009  0.2140 -1.2614
 5846TIP3   OH241732   0.063   0.608   1.948 -0.0087  0.2953  0.0936
 5846TIP3    H141733   0.073   0.633   2.040  1.0765 -1.4344  0.4966
 5846TIP3    H241734   0.141   0.644   1.905  0.1288  0.0161  0.1090
 5847TIP3   OH241735   1.986   2.487   0.102 -0.5682  0.0934  0.6803
 5847TIP3    H141736   1.902   2.525   0.074 -0.7227  0.7029  1.8944
 5847TIP3    H241737   2.038   2.483   0.022 -1.4422  0.5458  0.0638
 5848TIP3   OH241738   0.761   0.382   2.003 -0.1145  0.0634  0.1118
 5848TIP3    H141739   0.797   0.306   1.957 -0.6274  0.2038 -0.5400
 5848TIP3    H241740   0.831   0.410   2.062  0.0428 -0.9751  0.4430
 5849TIP3   OH241741   2.319   1.229   8.986 -0.1916  0.2048  0.0715
 5849TIP3    H141742   2.395   1.200   9.036 -0.1063 -0.8489 -0.6433
 5849TIP3    H241743   2.274   1.148   8.961  0.2030  0.6295 -2.2218
 5850TIP3   OH241744   4.830   4.326   6.607 -0.0069 -0.0112  0.2575
 5850TIP3    H141745   4.800   4.245   6.647  0.5208  0.0561  0.7894
 5850TIP3    H241746   4.919   4.308   6.577  0.0580  0.3217  0.2408
 5851TIP3   OH241747   0.632   0.200   8.868 -0.3810 -0.1020 -0.1599
 5851TIP3    H141748   0.645   0.273   8.930 -1.5396 -0.0090 -0.0060
 5851TIP3    H241749   0.678   0.228   8.789  0.7449 -0.0249  0.5010
 5852TIP3   OH241750   4.483   2.961   1.634 -0.3627 -0.6887 -0.0588
 5852TIP3    H141751   4.484   2.913   1.552 -1.4202 -0.3621 -0.2724
 5852TIP3    H241752   4.475   3.053   1.609  0.2100 -0.5037  0.3903
 5853TIP3   OH241753   7.118   4.128   9.389 -0.6922 -0.4060  0.6429
 5853TIP3    H141754   7.200   4.178   9.376 -1.3199  0.7113  0.8129
 5853TIP3    H241755   7.053   4.195   9.409 -1.6020 -1.3124  0.7753
 5854TIP3   OH241756   4.740   0.578   0.340 -0.1382  0.2107  0.0409
 5854TIP3    H141757   4.733   0.488   0.371  0.6940  0.4578  1.0063
 5854TIP3    H241758   4.653   0.599   0.306 -0.0112 -1.3626 -1.3726
 5855TIP3   OH241759   1.721   5.353   9.388 -0.6864 -0.4311  0.6834
 5855TIP3    H141760   1.757   5.433   9.350 -0.8483 -0.3226  0.7604
 5855TIP3    H241761   1.635   5.378   9.422 -1.3606 -0.9501 -0.5642
 5856TIP3   OH241762   5.147   3.065   6.843  0.4150  0.2423 -0.3958
 5856TIP3    H141763   5.232   3.031   6.870  0.5517  0.4408 -0.5768
 5856TIP3    H241764   5.094   3.063   6.923  0.7025  0.4671 -0.1961
 5857TIP3   OH241765   0.069   6.741   0.380  0.9793 -0.1117  0.3292
 5857TIP3    H141766   0.067   6.706   0.469  0.8910 -0.3169  0.2486
 5857TIP3    H241767   0.070   6.663   0.324 -1.4657 -0.0413  0.0794
 5858TIP3   OH241768   3.720   5.142   9.348 -0.3420  0.5196 -0.3304
 5858TIP3    H141769   3.719   5.217   9.288  1.1840  1.0625  0.3016
 5858TIP3    H241770   3.812   5.130   9.371 -0.7054 -0.7783  0.5620
 5859TIP3   OH241771   1.574   3.506   7.411  0.1775  0.1453  0.0632
 5859TIP3    H141772   1.553   3.521   7.319  0.7064 -0.3686 -0.1439
 5859TIP3    H241773   1.657   3.459   7.410 -0.6385 -1.3837  0.7379
 5860TIP3   OH241774   5.409   4.255   8.808 -0.3457 -0.7436  0.0397
 5860TIP3    H141775   5.364   4.186   8.859 -0.2253 -0.8719 -0.0275
 5860TIP3    H241776   5.490   4.214   8.779 -0.4131 -0.6693 -0.2557
 5861TIP3   OH241777   7.124   1.729   0.552 -0.0620  0.6965 -0.3512
 5861TIP3    H141778   7.143   1.811   0.598 -2.7210  0.0829  2.1389
 5861TIP3    H241779   7.193   1.669   0.580  0.5677  1.4275 -0.3211
 5862TIP3   OH241780   3.088   0.117   2.813  0.1024  0.4769  0.3486
 5862TIP3    H141781   3.123   0.146   2.729 -0.0515  0.0617  0.1397
 5862TIP3    H241782   3.029   0.187   2.840 -0.5904  0.1778 -0.3501
 5863TIP3   OH241783   1.408   1.217   0.823 -0.3520 -0.6603 -0.2180
 5863TIP3    H141784   1.503   1.205   0.827 -0.3721 -0.6097  0.7570
 5863TIP3    H241785   1.373   1.128   0.827 -0.3635 -0.6258  0.5824
 5864TIP3   OH241786   2.333   6.878   2.770 -0.0193  0.4389 -0.7197
 5864TIP3    H141787   2.288   6.929   2.837  0.6245  2.2512 -1.5933
 5864TIP3    H241788   2.274   6.804   2.753 -1.2021  1.0970  0.3029
 5865TIP3   OH241789   2.820   2.924   8.877  0.3559 -0.2707  0.0544
 5865TIP3    H141790   2.908   2.945   8.847  0.0186  0.4456 -0.4549
 5865TIP3    H241791   2.826   2.926   8.973  2.2007 -5.5435  0.3865
 5866TIP3   OH241792   7.404   6.287   2.326  0.2370 -0.6762  0.5348
 5866TIP3    H141793   7.311   6.267   2.325 -0.5374  2.4530 -0.1699
 5866TIP3    H241794   7.445   6.211   2.367 -2.2685 -3.3220 -1.4843
 5867TIP3   OH241795   1.870   5.559   9.304  0.1500 -0.0903  0.0593
 5867TIP3    H141796   1.891   5.629   9.243  1.3431  0.1153  0.6636
 5867TIP3    H241797   1.844   5.604   9.384  1.9844 -0.2737  0.8110
 5868TIP3   OH241798   5.891   5.506   0.087 -0.2047 -0.0981 -0.0305
 5868TIP3    H141799   5.839   5.556   0.024 -1.7887  0.4446  1.6137
 5868TIP3    H241800   5.860   5.416   0.079 -0.8300  0.0755  0.3512
 5869TIP3   OH241801   6.806   5.423   7.710  0.5028  0.0074  0.1969
 5869TIP3    H141802   6.736   5.361   7.735 -0.4984  1.0347 -0.0004
 5869TIP3    H241803   6.790   5.499   7.765 -0.0978  1.2583 -1.6311
 5870TIP3   OH241804   6.866   5.541   8.781 -0.1251  0.2870 -0.3929
 5870TIP3    H141805   6.930   5.612   8.787 -1.2537  1.2085  2.4281
 5870TIP3    H241806   6.812   5.565   8.705  1.9568  0.1826 -1.9939
 5871TIP3   OH241807   3.142   5.622   1.379 -0.7052  0.8678 -0.2346
 5871TIP3    H141808   3.139   5.570   1.299  1.0916  0.8508 -0.3243
 5871TIP3    H241809   3.061   5.600   1.425 -0.2354 -1.6449 -0.5015
 5872TIP3   OH241810   7.152   2.547   0.062 -0.5011  0.1976  0.0778
 5872TIP3    H141811   7.218   2.500   0.113 -0.6905 -1.6982 -1.2945
 5872TIP3    H241812   7.093   2.584   0.128  1.3202  1.0848  1.2993
 5873TIP3   OH241813   0.725   2.555   2.323  0.0452 -0.4746  0.6049
 5873TIP3    H141814   0.801   2.613   2.329  0.2549 -0.7636  0.7553
 5873TIP3    H241815   0.650   2.611   2.345 -0.0704  0.4008 -1.7774
 5874TIP3   OH241816   3.659   6.889   8.033 -0.1179 -0.0211  0.4525
 5874TIP3    H141817   3.569   6.910   8.009 -0.4958 -3.0952 -1.3666
 5874TIP3    H241818   3.653   6.857   8.123 -0.7684  0.0724  0.4477
 5875TIP3   OH241819   6.445   4.150   2.698 -0.0190  0.0902  0.0614
 5875TIP3    H141820   6.421   4.106   2.617  0.0285  2.3272 -1.2617
 5875TIP3    H241821   6.499   4.087   2.745 -1.0215 -1.6986 -1.0789
 5876TIP3   OH241822   5.252   3.454   0.044 -0.3000 -0.2701  0.5024
 5876TIP3    H141823   5.329   3.429  -0.007  0.5337  0.1018  1.5304
 5876TIP3    H241824   5.234   3.544   0.016  0.7102  0.2552  1.4874
 5877TIP3   OH241825   7.312   0.108   8.381 -0.9054  0.5357  0.0395
 5877TIP3    H141826   7.316   0.016   8.408  0.5333  0.4006 -0.5387
 5877TIP3    H241827   7.350   0.156   8.454  0.6065  0.4110 -0.6233
 5878TIP3   OH241828   4.026   5.777   0.632  0.3463  0.2153  0.1175
 5878TIP3    H141829   4.065   5.860   0.660  0.1939  0.2171  0.3296
 5878TIP3    H241830   4.014   5.728   0.714  0.5358 -0.0589 -0.0180
 5879TIP3   OH241831   7.023   3.777   9.665 -0.2237  0.1270 -0.4029
 5879TIP3    H141832   6.957   3.709   9.651 -0.8148  0.7670 -0.8274
 5879TIP3    H241833   6.986   3.855   9.623 -0.0425  0.9889  0.9537
 5880TIP3   OH241834   4.605   5.859   0.263  0.0017 -0.4624 -0.1764
 5880TIP3    H141835   4.683   5.914   0.256  0.0366 -0.5231 -0.2664
 5880TIP3    H241836   4.632   5.785   0.317 -0.1892 -0.1374  0.3675
 5881TIP3   OH241837   1.628   3.223   9.610 -0.4269  0.5986 -0.4878
 5881TIP3    H141838   1.613   3.176   9.693  0.1919  0.3902 -0.4871
 5881TIP3    H241839   1.599   3.312   9.628 -1.8968  0.1639 -0.5772
 5882TIP3   OH241840   3.221   6.658   1.794 -0.1137 -0.0518  0.2929
 5882TIP3    H141841   3.166   6.682   1.869 -0.0597  1.1854 -0.0343
 5882TIP3    H241842   3.287   6.728   1.790  0.3382 -0.5082 -0.4535
 5883TIP3   OH241843   3.594   3.344   0.991 -0.5448  0.3695 -0.3039
 5883TIP3    H141844   3.598   3.252   0.964 -1.7470  0.0465  0.5613
 5883TIP3    H241845   3.551   3.389   0.919 -1.0017  0.0430 -0.2387
 5884TIP3   OH241846   3.178   5.029   0.874  0.0926 -0.6113 -0.0928
 5884TIP3    H141847   3.118   4.970   0.919 -0.2561 -2.0112 -2.2307
 5884TIP3    H241848   3.132   5.052   0.793  0.9584  1.2443 -0.0980
 5885TIP3   OH241849   6.141   1.147   8.141 -0.8030 -0.1156  0.0983
 5885TIP3    H141850   6.229   1.121   8.115  0.0032 -1.1363  3.4130
 5885TIP3    H241851   6.099   1.065   8.167 -2.3233  0.5373 -0.1755
 5886TIP3   OH241852   1.575   1.305   6.781 -0.2071 -0.2877 -0.0591
 5886TIP3    H141853   1.519   1.282   6.707  0.4454 -0.4637 -0.5033
 5886TIP3    H241854   1.577   1.401   6.780  1.5639 -0.2969 -1.6337
 5887TIP3   OH241855   3.136   5.088   1.483 -0.0897  0.6411  0.5799
 5887TIP3    H141856   3.067   5.069   1.419 -0.1583 -2.1380  1.3514
 5887TIP3    H241857   3.157   5.180   1.468 -2.2198  0.9219 -1.3548
 5888TIP3   OH241858   5.924   5.693   6.958 -0.3616 -0.1373 -0.4868
 5888TIP3    H141859   5.976   5.666   6.882  0.4028 -0.7484  0.2326
 5888TIP3    H241860   5.916   5.788   6.948  0.6398 -0.0708 -0.7887
 5889TIP3   OH241861   1.980   2.694   1.155 -0.3594  0.2157  0.8863
 5889TIP3    H141862   2.071   2.720   1.146 -0.6846  1.0999 -0.0447
 5889TIP3    H241863   1.960   2.707   1.247  0.9448 -1.7075  1.4992
 5890TIP3   OH241864   5.060   1.957   1.673 -0.5713  0.6882  0.5055
 5890TIP3    H141865   5.017   1.881   1.633  1.1260 -0.1127  0.1386
 5890TIP3    H241866   4.994   1.992   1.734 -1.7053 -0.5237  0.0260
 5891TIP3   OH241867   3.073   6.508   8.264 -0.2268 -0.5853 -0.5209
 5891TIP3    H141868   3.009   6.480   8.199  0.0455 -1.1197 -0.5618
 5891TIP3    H241869   3.154   6.520   8.215 -0.5997  1.5217 -0.7492
 5892TIP3   OH241870   0.940   1.700   8.518  0.3444 -0.2335 -0.5183
 5892TIP3    H141871   1.027   1.728   8.547  0.7596 -1.8410 -0.1103
 5892TIP3    H241872   0.925   1.750   8.438  1.0179  1.1223  0.1608
 5893TIP3   OH241873   0.968   1.063   7.261 -0.3130  0.2133  0.3573
 5893TIP3    H141874   0.991   0.970   7.266 -0.4097  0.1761  0.1476
 5893TIP3    H241875   0.986   1.086   7.170 -1.1602  0.1681  0.1715
 5894TIP3   OH241876   1.709   2.785   1.123  0.0546 -0.2508  0.6420
 5894TIP3    H141877   1.648   2.714   1.104  0.3845 -0.2475 -0.4943
 5894TIP3    H241878   1.773   2.747   1.182  0.5007 -1.0593 -0.3282
 5895TIP3   OH241879   5.277   6.524   2.075 -0.0129 -0.0075  0.6814
 5895TIP3    H141880   5.217   6.516   2.149  0.4534 -0.5778  1.0129
 5895TIP3    H241881   5.225   6.499   1.998 -0.2714 -0.2103  0.9232
 5896TIP3   OH241882   4.586   1.425   7.385  0.1069  0.0208  0.2165
 5896TIP3    H141883   4.496   1.423   7.416  0.1941 -0.4057  0.4555
 5896TIP3    H241884   4.627   1.497   7.432  0.1792 -0.4850  0.9415
 5897TIP3   OH241885   1.563   2.297   9.486 -0.6080  0.2563 -0.3186
 5897TIP3    H141886   1.574   2.219   9.540 -0.0400 -0.5720 -1.6071
 5897TIP3    H241887   1.469   2.317   9.491 -0.5425  0.3228  1.1099
 5898TIP3   OH241888   3.830   7.196   9.551  0.2876  0.3104  0.3676
 5898TIP3    H141889   3.776   7.170   9.626  0.1225 -0.5498 -0.0370
 5898TIP3    H241890   3.771   7.250   9.498 -0.4121 -1.1063 -0.3697
 5899TIP3   OH241891   4.553   0.615   0.138 -0.3389 -0.2535 -0.4019
 5899TIP3    H141892   4.547   0.528   0.098 -1.2187 -0.6027  0.4401
 5899TIP3    H241893   4.635   0.652   0.104  0.8919 -2.0396  0.4322
 5900TIP3   OH241894   4.305   2.471   8.603  0.1864 -0.2129  0.0801
 5900TIP3    H141895   4.292   2.423   8.685  1.8165  0.1865  0.5945
 5900TIP3    H241896   4.311   2.403   8.536 -1.8560 -0.5227  0.1346
 5901TIP3   OH241897   0.969   2.667   2.254  0.0705 -0.4189  0.1938
 5901TIP3    H141898   1.037   2.601   2.241  1.0120  0.5389  0.1080
 5901TIP3    H241899   1.003   2.724   2.323 -0.0395  0.8172 -0.7170
 5902TIP3   OH241900   0.452   1.449   8.724 -0.5671 -0.0612 -0.1711
 5902TIP3    H141901   0.417   1.522   8.776 -2.4613 -0.1779 -1.1703
 5902TIP3    H241902   0.453   1.483   8.634 -0.4222 -0.9160 -0.4983
 5903TIP3   OH241903   1.620   2.458   3.067 -0.3647 -0.9048 -0.2422
 5903TIP3    H141904   1.594   2.421   2.983 -0.0965 -2.3961  0.2962
 5903TIP3    H241905   1.709   2.424   3.082 -0.8297 -1.5933  1.1439
 5904TIP3   OH241906   0.546   1.575   2.058 -0.1528 -0.1626  0.2037
 5904TIP3    H141907   0.624   1.585   2.112  1.1148  0.7341 -1.6777
 5904TIP3    H241908   0.546   1.482   2.034  0.6066 -0.0746 -0.1595
 5905TIP3   OH241909   2.668   4.734   0.845  0.1644  0.1827  0.1595
 5905TIP3    H141910   2.744   4.783   0.815 -0.3527  0.8573 -0.0770
 5905TIP3    H241911   2.703   4.649   0.872  1.0115  0.5214  0.1577
 5906TIP3   OH241912   5.151   6.845   8.198  0.2528  0.5314 -0.5344
 5906TIP3    H141913   5.175   6.754   8.184  1.5261  0.5534  1.2068
 5906TIP3    H241914   5.109   6.872   8.116 -1.3370 -1.9681 -0.6203
 5907TIP3   OH241915   1.063   1.200   8.063  0.0706  0.8949  0.5762
 5907TIP3    H141916   1.076   1.122   8.116 -0.2202  0.9143  0.6734
 5907TIP3    H241917   1.081   1.171   7.973 -1.2756  0.4037  0.4514
 5908TIP3   OH241918   0.233   0.036   7.200  0.5107  0.2918 -0.3643
 5908TIP3    H141919   0.316   0.011   7.158  1.5628 -1.2211  2.3619
 5908TIP3    H241920   0.176   0.059   7.127  2.5919 -0.8786 -2.5237
 5909TIP3   OH241921   0.101   0.580   9.192 -0.0941 -0.1637 -0.0597
 5909TIP3    H141922   0.165   0.571   9.262 -1.4482 -0.5381  1.1707
 5909TIP3    H241923   0.054   0.497   9.191 -1.6691  0.6746  0.2261
 5910TIP3   OH241924   6.530   0.952   7.087  0.3334 -0.0161 -0.5108
 5910TIP3    H141925   6.619   0.934   7.055  1.1076  2.1291  0.2057
 5910TIP3    H241926   6.537   1.040   7.126 -1.9343 -0.1270  0.2572
 5911TIP3   OH241927   1.139   5.555   8.045  0.0596  0.0791  0.5347
 5911TIP3    H141928   1.126   5.478   8.100 -0.3755 -0.6191 -0.5171
 5911TIP3    H241929   1.159   5.520   7.958 -2.2604  1.0582 -0.5091
 5912TIP3   OH241930   1.571   5.909   7.131  0.2345 -0.9681  0.0871
 5912TIP3    H141931   1.528   5.985   7.170 -0.4104 -0.9312 -0.6660
 5912TIP3    H241932   1.615   5.944   7.053 -1.1358 -1.5409 -1.0047
 5913TIP3   OH241933   4.375   4.363   0.966  0.2974  0.0195  0.3370
 5913TIP3    H141934   4.433   4.412   0.908  0.2621 -1.3223 -0.8830
 5913TIP3    H241935   4.375   4.274   0.931 -1.2812 -0.3798  1.2358
 5914TIP3   OH241936   3.313   6.501   7.839  0.0031  0.3474 -0.0082
 5914TIP3    H141937   3.241   6.560   7.817  0.0507  0.9247  1.3199
 5914TIP3    H241938   3.284   6.454   7.917 -0.1334 -1.6161 -1.1656
 5915TIP3   OH241939   2.091   1.078   8.914 -0.3418 -0.4075 -0.6747
 5915TIP3    H141940   2.128   0.990   8.903 -1.6524 -1.2174  0.8848
 5915TIP3    H241941   2.010   1.076   8.862 -0.2614 -0.0508 -0.8125
 5916TIP3   OH241942   4.285   1.554   8.298 -0.1182 -0.4036  0.2974
 5916TIP3    H141943   4.299   1.549   8.393  0.8573  0.0690  0.1921
 5916TIP3    H241944   4.213   1.616   8.288 -1.1782 -1.5260  0.7869
 5917TIP3   OH241945   3.958   3.033   2.586 -0.3177 -0.4757 -0.4065
 5917TIP3    H141946   4.054   3.035   2.587 -0.2937  0.3959  2.4132
 5917TIP3    H241947   3.936   2.948   2.624 -0.7234 -1.2539 -2.2922
 5918TIP3   OH241948   7.219   1.348   8.554  0.1685  0.0637 -0.0812
 5918TIP3    H141949   7.207   1.439   8.582  0.7503  0.1348 -0.0527
 5918TIP3    H241950   7.148   1.333   8.491  0.1198  0.5632 -0.1510
 5919TIP3   OH241951   2.393   1.605   1.281  0.2496 -0.4941 -0.3269
 5919TIP3    H141952   2.438   1.528   1.317 -0.2323  0.7503  3.2937
 5919TIP3    H241953   2.401   1.672   1.349 -3.2697  1.2276 -1.3803
 5920TIP3   OH241954   5.257   6.005   1.091  0.0930 -0.1380 -0.2528
 5920TIP3    H141955   5.303   6.089   1.097 -0.7944  0.2478  1.9829
 5920TIP3    H241956   5.311   5.944   1.140  0.4044 -0.7578 -1.3269
 5921TIP3   OH241957   2.733   5.034   1.963 -0.5715 -0.2706  0.5205
 5921TIP3    H141958   2.815   4.990   1.986  0.6117  1.5605  0.0830
 5921TIP3    H241959   2.701   4.987   1.886  0.8030 -0.2142 -0.1120
 5922TIP3   OH241960   6.122   4.824   1.838  0.0688  0.0796  0.1818
 5922TIP3    H141961   6.168   4.801   1.919 -0.5115  0.8189  0.7284
 5922TIP3    H241962   6.067   4.898   1.862 -1.6107 -0.9242 -0.3849
 5923TIP3   OH241963   0.412   1.468   9.491 -0.4457  0.2248  0.1729
 5923TIP3    H141964   0.435   1.385   9.450 -1.1827 -1.5255  2.9736
 5923TIP3    H241965   0.494   1.518   9.492  0.2574 -0.8599 -0.7236
 5924TIP3   OH241966   3.059   1.116   8.218  0.0054 -0.2453 -0.0159
 5924TIP3    H141967   3.138   1.156   8.183  1.7338 -1.4778  2.1646
 5924TIP3    H241968   3.043   1.041   8.162 -0.0808  0.4410 -0.9222
 5925TIP3   OH241969   5.858   1.747   0.203 -0.0033 -0.2522 -0.3505
 5925TIP3    H141970   5.819   1.676   0.152 -0.2169  0.2139 -0.8474
 5925TIP3    H241971   5.946   1.756   0.167  0.2982 -0.7874  0.2460
 5926TIP3   OH241972   3.822   2.009   9.007  0.1807  0.6211 -0.3284
 5926TIP3    H141973   3.828   2.085   9.064  0.1129 -0.1083  0.6845
 5926TIP3    H241974   3.897   1.955   9.032  0.3628  0.4548 -1.1959
 5927TIP3   OH241975   6.071   1.612   8.392  0.3586  0.2498 -0.2935
 5927TIP3    H141976   6.116   1.696   8.390  0.3266  0.4163  2.1904
 5927TIP3    H241977   6.138   1.549   8.418 -0.3836  0.2351  1.8317
 5928TIP3   OH241978   4.684   0.625   2.930  0.2691  0.4346 -0.2619
 5928TIP3    H141979   4.607   0.569   2.932  1.0584 -0.6922  1.4910
 5928TIP3    H241980   4.746   0.580   2.873  0.9189 -0.5998  1.1791
 5929TIP3   OH241981   2.600   0.176   0.812  0.0499  0.1755 -0.3736
 5929TIP3    H141982   2.570   0.229   0.886 -1.3822  0.7600 -1.3214
 5929TIP3    H241983   2.523   0.168   0.755  0.7841 -1.2433 -1.2462
 5930TIP3   OH241984   0.581   6.034   0.809 -0.2433 -0.3036 -0.5255
 5930TIP3    H141985   0.650   6.009   0.870  0.0030 -2.2174 -1.4952
 5930TIP3    H241986   0.500   6.031   0.861  0.4172  3.0832  0.9070
 5931TIP3   OH241987   0.195   7.348   8.720 -0.5616  0.1885 -0.1437
 5931TIP3    H141988   0.178   7.441   8.705  0.6253  0.4378 -0.0631
 5931TIP3    H241989   0.272   7.329   8.667  0.8448 -0.0710  1.8994
 5932TIP3   OH241990   2.082   5.617   0.993 -0.0249 -0.0090  0.1839
 5932TIP3    H141991   2.175   5.607   0.973  0.1714 -1.3292  1.6158
 5932TIP3    H241992   2.058   5.537   1.039 -2.5662 -0.9796 -2.5264
 5933TIP3   OH241993   6.148   0.371   1.121  0.3688 -0.0618  0.4452
 5933TIP3    H141994   6.193   0.448   1.088  0.9979 -0.7495 -0.3500
 5933TIP3    H241995   6.187   0.298   1.074 -0.3796 -0.8515  1.0039
 5934TIP3   OH241996   2.671   0.597   8.864  0.5529  0.0374  0.2400
 5934TIP3    H141997   2.745   0.657   8.876  0.0311  1.0650 -1.4066
 5934TIP3    H241998   2.688   0.555   8.780  0.1723 -1.1187  0.7103
 5935TIP3   OH241999   6.126   7.091   1.044 -0.2571 -0.0894  0.3329
 5935TIP3    H142000   6.159   7.179   1.062  1.5253 -0.5396 -0.5251
 5935TIP3    H242001   6.085   7.098   0.958  1.9889 -0.5442 -0.8565
 5936TIP3   OH242002   0.945   3.309   0.185 -0.3107  0.0969 -0.1343
 5936TIP3    H142003   1.020   3.298   0.244 -0.3212  1.6883  0.2158
 5936TIP3    H242004   0.968   3.383   0.130 -2.3562  1.8869  1.2547
 5937TIP3   OH242005   3.643   6.265   2.747  0.0132 -0.0349 -0.0235
 5937TIP3    H142006   3.605   6.187   2.787 -0.4038 -0.7783 -1.7805
 5937TIP3    H242007   3.568   6.319   2.722  0.2910  0.8300  0.9342
 5938TIP3   OH242008   2.307   5.004   7.201 -0.3129  0.1488  0.0314
 5938TIP3    H142009   2.249   4.972   7.270  0.5323 -0.6872  0.3745
 5938TIP3    H242010   2.369   5.061   7.246  0.4510 -0.6662  0.0295
 5939TIP3   OH242011   6.349   5.868   1.782  0.2525 -0.1096 -0.8281
 5939TIP3    H142012   6.336   5.928   1.708 -1.4924  0.2649 -0.2569
 5939TIP3    H242013   6.299   5.790   1.758  0.3176 -0.2892 -0.3761
 5940TIP3   OH242014   6.740   2.387   2.004  0.2848  0.5147 -0.4153
 5940TIP3    H142015   6.807   2.385   2.072  0.6521  2.5644 -0.6433
 5940TIP3    H242016   6.784   2.353   1.926  0.3353 -0.3599 -0.0087
 5941TIP3   OH242017   5.278   2.253   7.782  0.1242  0.3379 -0.0600
 5941TIP3    H142018   5.341   2.251   7.854 -0.2676  1.2254  0.3127
 5941TIP3    H242019   5.244   2.163   7.778  1.8424 -0.3281 -0.6725
 5942TIP3   OH242020   3.983   5.153   9.406 -0.4060  0.1326  0.2693
 5942TIP3    H142021   4.049   5.208   9.365  0.7960 -1.3059  0.1845
 5942TIP3    H242022   4.026   5.068   9.416 -3.0789 -1.7071 -2.3227
 5943TIP3   OH242023   1.426   2.245   0.891  0.0289  0.0303  0.3269
 5943TIP3    H142024   1.439   2.151   0.897 -1.7539 -0.2463  0.4657
 5943TIP3    H242025   1.511   2.283   0.915  1.0350 -1.5333 -0.6343
 5944TIP3   OH242026   5.544   6.640   0.743  0.1700  0.5704  0.1392
 5944TIP3    H142027   5.497   6.652   0.825  0.9939  1.1481  0.5473
 5944TIP3    H242028   5.543   6.546   0.728 -1.6502  0.6224 -0.2064
 5945TIP3   OH242029   0.547   6.046   0.316  0.2851 -0.8416 -0.1871
 5945TIP3    H142030   0.537   6.072   0.408  1.0095 -2.2773  0.3391
 5945TIP3    H242031   0.642   6.044   0.303  0.1905  0.8009 -1.4459
 5946TIP3   OH242032   6.781   6.161   8.542  0.0988  0.3304  0.0413
 5946TIP3    H142033   6.767   6.256   8.538 -1.4201  0.2587  2.2058
 5946TIP3    H242034   6.786   6.141   8.636  0.7980 -1.6948 -0.3703
 5947TIP3   OH242035   5.457   6.142   6.990  0.2827  0.1964 -0.3197
 5947TIP3    H142036   5.428   6.054   7.014 -0.5878  0.6650  0.4124
 5947TIP3    H242037   5.385   6.178   6.940 -0.1991  1.1683  1.0154
 5948TIP3   OH242038   2.418   2.975   7.891 -0.1051  0.4376  0.3162
 5948TIP3    H142039   2.495   2.938   7.933  0.2926 -0.0733 -0.8442
 5948TIP3    H242040   2.365   2.899   7.867 -0.8896  0.7755  0.9320
 5949TIP3   OH242041   1.737   5.091   8.046  0.1525  0.4145 -0.4519
 5949TIP3    H142042   1.755   5.056   7.959 -0.0840 -0.5481 -0.1375
 5949TIP3    H242043   1.777   5.027   8.106 -1.3921 -0.0163  0.1727
 5950TIP3   OH242044   1.240   0.653   0.935 -0.0060  0.1462 -0.0268
 5950TIP3    H142045   1.198   0.616   0.858  1.4066  2.2346 -1.9224
 5950TIP3    H242046   1.332   0.627   0.928  0.8994  3.1510 -1.0620
 5951TIP3   OH242047   6.280   6.259   8.895 -0.0861 -0.0303  0.3104
 5951TIP3    H142048   6.233   6.181   8.926 -1.2422  0.3790 -0.3425
 5951TIP3    H242049   6.296   6.310   8.975  0.7379 -0.9535  0.7488
 5952TIP3   OH242050   4.967   5.660   8.833 -0.2774  0.2915  0.4231
 5952TIP3    H142051   5.011   5.637   8.915  1.0396 -0.7126 -0.5292
 5952TIP3    H242052   4.984   5.585   8.775 -0.2686  1.4479 -1.1093
 5953TIP3   OH242053   6.814   0.820   2.064  0.3909 -0.0489 -0.4760
 5953TIP3    H142054   6.794   0.887   1.998  0.6685  0.5340  0.0163
 5953TIP3    H242055   6.730   0.804   2.108  0.3797  0.1836 -0.4113
 5954TIP3   OH242056   4.397   2.172   9.082  0.4113 -0.4563  0.0583
 5954TIP3    H142057   4.374   2.093   9.033  2.1581 -0.0328 -1.5186
 5954TIP3    H242058   4.444   2.227   9.020  0.8082  1.0722  1.6292
 5955TIP3   OH242059   0.915   6.600   1.191 -0.1497 -0.0854 -0.4328
 5955TIP3    H142060   0.868   6.665   1.139 -0.6906 -0.0692  0.0675
 5955TIP3    H242061   0.862   6.590   1.271 -0.7642 -2.0290 -1.0116
 5956TIP3   OH242062   7.103   5.567   7.965 -0.3664  0.2370  0.3585
 5956TIP3    H142063   7.132   5.651   8.002  2.1466 -0.6895  0.7215
 5956TIP3    H242064   7.134   5.570   7.874 -0.3990 -0.2391  0.3326
 5957TIP3   OH242065   7.246   0.512   6.511 -0.0385 -0.3362  0.4807
 5957TIP3    H142066   7.214   0.601   6.497  0.5343 -0.3266 -0.8784
 5957TIP3    H242067   7.269   0.509   6.604 -0.7360  0.6989  0.7059
 5958TIP3   OH242068   5.743   2.654   9.271 -0.4291 -0.4654 -0.4581
 5958TIP3    H142069   5.804   2.705   9.324 -2.0620  0.5661  0.5446
 5958TIP3    H242070   5.725   2.576   9.323 -1.3602  0.1299  0.1480
 5959TIP3   OH242071   3.221   2.927   7.761 -0.2157 -0.3224 -0.5199
 5959TIP3    H142072   3.168   2.985   7.817  0.3213 -0.9795  0.7145
 5959TIP3    H242073   3.193   2.948   7.672 -1.8579  0.0354  0.0349
 5960TIP3   OH242074   3.367   3.834   0.482  0.0485 -0.2992  0.4227
 5960TIP3    H142075   3.282   3.798   0.509  0.2317 -1.0386  0.0441
 5960TIP3    H242076   3.406   3.765   0.429 -0.0197  0.8514 -1.2165
 5961TIP3   OH242077   1.118   4.813   0.750 -0.5531  0.0900  0.0244
 5961TIP3    H142078   1.157   4.783   0.667  0.2597 -1.1560  0.8138
 5961TIP3    H242079   1.190   4.858   0.795 -0.5404 -0.5523  0.6752
 5962TIP3   OH242080   3.758   5.539   8.574  0.1134  0.2236  0.5435
 5962TIP3    H142081   3.808   5.620   8.590  0.1836 -0.0693  1.8654
 5962TIP3    H242082   3.667   5.566   8.580  0.0559  0.7208 -1.6875
 5963TIP3   OH242083   3.398   4.352   9.280  0.6425 -0.4209 -0.3122
 5963TIP3    H142084   3.322   4.396   9.241  0.9426  0.0363 -0.3926
 5963TIP3    H242085   3.360   4.290   9.341  0.2121  0.3744  0.2560
 5964TIP3   OH242086   5.176   1.494   9.615  0.0403 -0.3480  0.2305
 5964TIP3    H142087   5.217   1.471   9.699 -0.5395 -0.2607  0.5439
 5964TIP3    H242088   5.235   1.457   9.549  0.4916 -0.4392  0.6734
 5965TIP3   OH242089   1.625   5.220   8.394  0.0747 -0.6281  0.1665
 5965TIP3    H142090   1.715   5.255   8.389 -0.3908  0.4650 -1.3085
 5965TIP3    H242091   1.634   5.137   8.440  1.9141 -0.7410 -0.3187
 5966TIP3   OH242092   5.112   3.090   8.103 -0.4399  0.2904  0.5011
 5966TIP3    H142093   5.186   3.140   8.068 -1.0502  0.5618 -0.4474
 5966TIP3    H242094   5.082   3.141   8.178 -0.8398  1.1937 -0.2515
 5967TIP3   OH242095   1.507   0.711   6.984  0.5684  0.0179  0.1767
 5967TIP3    H142096   1.415   0.708   6.957  0.9211  0.4519 -1.1732
 5967TIP3    H242097   1.522   0.802   7.010  0.8209  0.1566 -0.4321
 5968TIP3   OH242098   5.082   3.065   9.604 -0.3471  0.1007 -0.4266
 5968TIP3    H142099   5.165   3.103   9.635 -1.1936  2.5113 -0.8679
 5968TIP3    H242100   5.072   2.985   9.655  1.2414  0.8256  1.1546
 5969TIP3   OH242101   6.081   6.259   1.108  0.1976 -0.1561 -0.2842
 5969TIP3    H142102   6.152   6.315   1.140  0.0558 -0.4577  0.5814
 5969TIP3    H242103   6.086   6.266   1.013  1.2616 -0.0064 -0.2295
 5970TIP3   OH242104   5.503   2.743   1.876 -0.4661  0.5027  0.2794
 5970TIP3    H142105   5.453   2.694   1.811 -0.4601 -1.3543  1.6141
 5970TIP3    H242106   5.591   2.749   1.840 -1.2718  2.8026 -1.5615
 5971TIP3   OH242107   5.160   2.149   8.653 -0.2556 -0.1241  0.5052
 5971TIP3    H142108   5.069   2.122   8.667  0.2402 -1.4610  1.4714
 5971TIP3    H242109   5.208   2.066   8.646  0.6489  0.5434 -1.9258
 5972TIP3   OH242110   5.019   1.626   9.428  0.3841  0.0535 -0.5371
 5972TIP3    H142111   5.034   1.710   9.472  0.8819  1.0430 -2.4979
 5972TIP3    H242112   5.102   1.579   9.436  0.5236  0.2932 -0.5793
 5973TIP3   OH242113   0.551   3.724   8.716 -0.1541  0.5218  0.6147
 5973TIP3    H142114   0.518   3.634   8.715 -0.7303  0.6751 -1.9514
 5973TIP3    H242115   0.608   3.729   8.639  1.0847  1.9696  1.5610
 5974TIP3   OH242116   7.366   4.051   2.294  0.4483  0.0416  0.0176
 5974TIP3    H142117   7.392   3.996   2.368 -0.0901  0.0424  0.2105
 5974TIP3    H242118   7.283   4.089   2.320  0.4625  0.3800 -0.4163
 5975TIP3   OH242119   6.601   6.485   0.982 -0.4010 -0.2945  0.0324
 5975TIP3    H142120   6.567   6.419   1.042 -1.1982  0.3624  0.3121
 5975TIP3    H242121   6.593   6.568   1.030  1.2665 -0.0622 -0.0175
 5976TIP3   OH242122   5.487   7.362   8.130 -0.1113  0.0612 -0.6757
 5976TIP3    H142123   5.431   7.335   8.204 -0.1280  1.9743  0.0604
 5976TIP3    H242124   5.429   7.413   8.074  0.3408  0.0912 -1.1164
 5977TIP3   OH242125   2.527   4.439   8.695  0.7205 -0.5393  0.7486
 5977TIP3    H142126   2.557   4.460   8.606 -2.5998  0.4366 -0.3004
 5977TIP3    H242127   2.472   4.362   8.684  1.5969 -1.4391  2.3084
 5978TIP3   OH242128   7.103   1.070   0.815  0.6301  0.6421 -0.2967
 5978TIP3    H142129   7.192   1.101   0.830  0.8371  0.1534 -0.4756
 5978TIP3    H242130   7.107   0.976   0.835  0.5048  0.3129 -1.7189
 5979TIP3   OH242131   0.667   5.019   1.063 -0.0639 -0.3103 -0.6649
 5979TIP3    H142132   0.602   5.088   1.049  1.0731  0.6530 -1.4340
 5979TIP3    H242133   0.739   5.042   1.004  1.1172 -1.1493  0.4038
 5980TIP3   OH242134   1.751   5.313   1.368  0.2804  0.5267  0.7007
 5980TIP3    H142135   1.773   5.349   1.455  1.3185 -0.0863  0.7125
 5980TIP3    H242136   1.688   5.243   1.386  1.4466 -0.4565  1.1191
 5981TIP3   OH242137   0.571   2.190   7.252  0.2023 -0.0917 -0.3864
 5981TIP3    H142138   0.626   2.261   7.287 -0.5450  1.7075 -2.6220
 5981TIP3    H242139   0.595   2.184   7.160 -0.3560 -2.2507 -0.4438
 5982TIP3   OH242140   7.185   0.812   2.867 -0.2282  0.4097 -0.3473
 5982TIP3    H142141   7.274   0.780   2.855  0.5509  2.2851  0.1742
 5982TIP3    H242142   7.172   0.811   2.962 -1.8619 -2.5289 -0.4604
 5983TIP3   OH242143   6.691   4.576   7.619 -0.3405  0.2077  0.0252
 5983TIP3    H142144   6.665   4.666   7.601  0.1338  0.2521 -0.4346
 5983TIP3    H242145   6.741   4.549   7.543  0.5632 -0.0340  0.6841
 5984TIP3   OH242146   3.328   0.547   9.259 -0.1991 -0.1087  0.6285
 5984TIP3    H142147   3.422   0.565   9.262 -0.0060 -1.0843  0.7702
 5984TIP3    H242148   3.308   0.510   9.345 -0.5951 -0.4604  0.3863
 5985TIP3   OH242149   1.488   3.860   8.111 -0.1362 -0.2288 -0.3631
 5985TIP3    H142150   1.394   3.866   8.128 -0.1431 -0.6984 -0.2144
 5985TIP3    H242151   1.499   3.773   8.071  0.1113  0.1715 -1.1822
 5986TIP3   OH242152   1.030   0.138   1.636 -0.3018  0.8776 -0.2373
 5986TIP3    H142153   0.971   0.202   1.677 -0.8065  0.4649 -0.3058
 5986TIP3    H242154   0.973   0.088   1.577 -0.0956 -0.2289  0.4768
 5987TIP3   OH242155   0.942   7.120   0.864 -0.0946 -0.0694 -0.3999
 5987TIP3    H142156   0.895   7.183   0.810 -0.5373 -0.8810 -0.9869
 5987TIP3    H242157   0.944   7.040   0.812  0.0586 -0.6781  0.5106
 5988TIP3   OH242158   0.529   5.705   6.598  0.5795  0.1422 -0.5642
 5988TIP3    H142159   0.520   5.610   6.598 -1.1268  0.2697 -0.6232
 5988TIP3    H242160   0.455   5.736   6.546  0.1758  1.5755  0.7960
 5989TIP3   OH242161   5.969   0.120   1.983  0.0098 -0.2789 -0.0587
 5989TIP3    H142162   5.989   0.197   2.036  1.0982 -0.4839 -0.1484
 5989TIP3    H242163   5.950   0.155   1.896 -2.5693  0.1246  0.6060
 5990TIP3   OH242164   2.873   2.007   1.415 -0.3734  0.1361 -0.4694
 5990TIP3    H142165   2.901   2.058   1.492  1.8666 -3.3016  1.2138
 5990TIP3    H242166   2.799   1.956   1.447 -0.9228  0.3865 -1.3329
 5991TIP3   OH242167   0.818   4.287   9.417 -0.3418 -0.3260  0.2881
 5991TIP3    H142168   0.902   4.259   9.382 -0.9382 -0.4416 -1.1131
 5991TIP3    H242169   0.769   4.206   9.432 -0.3503 -0.2422  0.7503
 5992TIP3   OH242170   0.617   3.303   8.539  0.3929 -0.1218 -0.0088
 5992TIP3    H142171   0.527   3.283   8.562  0.6926 -1.2693  0.1900
 5992TIP3    H242172   0.642   3.236   8.476  1.4871 -0.5524  0.8401
 5993TIP3   OH242173   0.101   2.263   8.461  0.3390  0.7181  0.0735
 5993TIP3    H142174   0.063   2.207   8.393 -0.6951  0.8526  0.5251
 5993TIP3    H242175   0.168   2.208   8.503 -0.0519  0.1297 -0.0679
 5994TIP3   OH242176   6.667   2.991   8.394  0.5212 -0.2201  0.6444
 5994TIP3    H142177   6.588   2.988   8.447 -0.5456 -0.0597 -0.8671
 5994TIP3    H242178   6.651   2.928   8.324  1.1136  0.8434 -0.4794
 5995TIP3   OH242179   4.707   1.278   0.061 -0.2947  0.4071 -0.1083
 5995TIP3    H142180   4.683   1.366   0.031  3.0032  0.3860 -3.6306
 5995TIP3    H242181   4.655   1.219   0.006  0.0120  0.2301 -0.2114
 5996TIP3   OH242182   1.419   4.853   7.685  0.3733  0.3419 -0.2588
 5996TIP3    H142183   1.476   4.894   7.620  0.6459 -0.2830 -0.4215
 5996TIP3    H242184   1.438   4.898   7.767 -0.4153  1.5724 -0.7169
 5997TIP3   OH242185   6.952   4.666   7.272 -0.3991  0.1826 -0.1144
 5997TIP3    H142186   6.957   4.719   7.351 -2.7907 -1.7715  1.5053
 5997TIP3    H242187   6.875   4.700   7.226 -1.8411 -1.5737  0.8460
 5998TIP3   OH242188   4.656   5.253   2.430  0.3433  0.2570 -0.0837
 5998TIP3    H142189   4.601   5.276   2.505  0.6270  0.4682  0.0640
 5998TIP3    H242190   4.739   5.298   2.446  0.4952  0.0994 -0.3990
 5999TIP3   OH242191   6.365   1.776   0.861 -0.0816 -0.2776  0.3505
 5999TIP3    H142192   6.274   1.759   0.838 -0.4912  0.1127  1.5943
 5999TIP3    H242193   6.413   1.762   0.780 -1.3738  0.5594 -0.6063
 6000TIP3   OH242194   2.557   3.627   0.157 -0.1002 -0.6124  0.2469
 6000TIP3    H142195   2.582   3.678   0.080 -3.3055 -1.4247 -1.5242
 6000TIP3    H242196   2.461   3.623   0.153 -0.2717 -2.3625  3.2226
 6001TIP3   OH242197   5.930   5.054   1.983  0.0118 -0.3392 -0.0791
 6001TIP3    H142198   5.936   5.005   2.065  2.8620  2.4633  1.6411
 6001TIP3    H242199   5.923   5.145   2.010  0.5048  0.6601 -2.9604
 6002TIP3   OH242200   0.663   2.168   9.498  0.0069  0.2664  0.0698
 6002TIP3    H142201   0.598   2.216   9.550  1.2301  2.1283 -0.0250
 6002TIP3    H242202   0.743   2.170   9.552  0.3539 -0.8430 -0.3754
 6003TIP3   OH242203   6.220   5.938   0.293  0.2378 -0.3341 -0.3395
 6003TIP3    H142204   6.272   5.870   0.250  2.2752  1.4237 -0.8458
 6003TIP3    H242205   6.216   6.009   0.229 -1.3681  0.2623  0.3697
 6004TIP3   OH242206   0.120   1.664   1.198 -0.0422 -0.3958  0.1360
 6004TIP3    H142207   0.055   1.675   1.128 -0.0871 -0.9820  0.0843
 6004TIP3    H242208   0.101   1.736   1.258  0.7209  0.8146 -1.0076
 6005TIP3   OH242209   1.869   3.976   0.128 -0.2261 -0.7626  0.1704
 6005TIP3    H142210   1.911   4.057   0.098 -2.8083  0.7926  0.4129
 6005TIP3    H242211   1.920   3.906   0.089  1.0641  1.0277 -1.5265
 6006TIP3   OH242212   4.941   1.826   2.493 -0.0429  0.3540 -0.0420
 6006TIP3    H142213   4.974   1.738   2.473  0.1297  0.5327 -0.5647
 6006TIP3    H242214   5.020   1.878   2.509 -0.0321  0.8922 -1.7400
 6007TIP3   OH242215   4.862   6.920   1.936  0.5407  0.1515 -0.3208
 6007TIP3    H142216   4.906   6.915   1.852  2.2099  0.8847  0.4611
 6007TIP3    H242217   4.907   6.855   1.990 -0.6677 -0.4839 -0.0427
 6008TIP3   OH242218   3.479   0.788   9.419 -0.0518 -0.0393  0.5226
 6008TIP3    H142219   3.546   0.749   9.363 -1.2639 -0.6563 -0.5615
 6008TIP3    H242220   3.506   0.766   9.508 -0.7205 -3.5469 -0.0265
 6009TIP3   OH242221   4.466   5.135   2.774  0.1382 -0.2378 -0.3009
 6009TIP3    H142222   4.421   5.138   2.859  0.7385  0.2881  0.0145
 6009TIP3    H242223   4.547   5.185   2.789  0.6771 -0.9007 -0.9352
 6010TIP3   OH242224   2.821   4.138   1.545  0.0287  0.0933  0.1303
 6010TIP3    H142225   2.888   4.205   1.535  0.7374 -0.5449  0.5352
 6010TIP3    H242226   2.791   4.148   1.635  3.8416 -3.4158  2.1249
 6011TIP3   OH242227   0.564   4.186   8.021  0.0306 -0.1784  0.1308
 6011TIP3    H142228   0.474   4.156   8.011  0.2136 -0.9078  0.5694
 6011TIP3    H242229   0.611   4.146   7.948  0.0988 -0.2221  0.1979
 6012TIP3   OH242230   1.866   4.880   0.280 -0.1306  0.4769 -0.2808
 6012TIP3    H142231   1.794   4.931   0.244  0.0748  0.6953 -0.3895
 6012TIP3    H242232   1.834   4.791   0.284 -0.3977  0.5710 -0.3506
 6013TIP3   OH242233   3.713   0.068   8.337 -0.4170  0.2055  0.2137
 6013TIP3    H142234   3.793   0.090   8.385  0.4802 -0.7199 -0.8207
 6013TIP3    H242235   3.690  -0.020   8.368 -0.3272 -0.0369 -0.4066
 6014TIP3   OH242236   4.329   5.150   0.592 -0.0210 -0.2354  0.5197
 6014TIP3    H142237   4.321   5.137   0.498  0.6321 -1.0295  0.5688
 6014TIP3    H242238   4.310   5.243   0.604  1.6110  0.2876 -0.6143
 6015TIP3   OH242239   5.302   5.109   9.131 -0.0220  0.1273  0.2834
 6015TIP3    H142240   5.259   5.028   9.102  2.0815 -0.9348 -0.0950
 6015TIP3    H242241   5.296   5.167   9.056  0.6422 -0.6350 -0.3844
 6016TIP3   OH242242   6.653   1.055   1.855 -0.5422 -0.1968 -0.4719
 6016TIP3    H142243   6.728   1.004   1.824 -1.1903 -0.6708 -1.3246
 6016TIP3    H242244   6.690   1.139   1.882  0.5975 -1.1965  1.2548
 6017TIP3   OH242245   3.419   4.036   0.076  0.5360 -0.2907  0.2214
 6017TIP3    H142246   3.328   4.018   0.100 -0.0892  0.1933 -1.6090
 6017TIP3    H242247   3.439   4.120   0.117  1.0572 -1.5089  2.7083
 6018TIP3   OH242248   7.034   6.863   2.514  0.2025  0.3021  0.6186
 6018TIP3    H142249   6.977   6.869   2.591 -0.1851  0.6782  0.3093
 6018TIP3    H242250   7.122   6.850   2.550 -0.3796 -3.5031  1.0936
 6019TIP3   OH242251   5.086   0.628   2.404 -0.0570 -0.1821  0.4304
 6019TIP3    H142252   5.026   0.578   2.348  2.1604  0.2519 -2.6228
 6019TIP3    H242253   5.107   0.569   2.476 -1.6010 -1.5609 -0.1873
 6020TIP3   OH242254   7.096   6.994   1.444  0.3560 -0.4392  0.2540
 6020TIP3    H142255   7.122   7.085   1.431  0.6026 -0.3306  1.4147
 6020TIP3    H242256   7.178   6.946   1.442  0.2909 -0.5516  0.2985
 6021TIP3   OH242257   5.924   0.563   1.616  0.5198 -0.4567  0.6384
 6021TIP3    H142258   5.941   0.602   1.530 -0.7054 -0.0568  0.5574
 6021TIP3    H242259   5.905   0.471   1.597 -3.5775  0.3383 -0.0806
 6022TIP3   OH242260   3.267   2.626   1.837  0.9898 -0.5718  0.4635
 6022TIP3    H142261   3.353   2.610   1.798  0.9429  0.2168  0.0285
 6022TIP3    H242262   3.259   2.721   1.840 -1.2398 -0.5091 -2.6223
 6023TIP3   OH242263   6.847   0.457   1.662 -0.3326  0.0543  0.1634
 6023TIP3    H142264   6.813   0.470   1.574  0.2844 -0.2868 -0.1268
 6023TIP3    H242265   6.940   0.478   1.656 -0.5918  1.5782  1.0931
 6024TIP3   OH242266   2.492   0.258   2.648 -0.0838  0.3635 -0.3121
 6024TIP3    H142267   2.552   0.279   2.720  0.3597  0.8513 -0.8151
 6024TIP3    H242268   2.466   0.343   2.613 -2.2900  0.2356  0.8517
 6025TIP3   OH242269   4.525   6.484   1.907  0.7342  0.3836  0.3363
 6025TIP3    H142270   4.547   6.510   1.996  1.7014  1.3145 -0.1512
 6025TIP3    H242271   4.577   6.541   1.851  2.2643 -1.9622 -0.8301
 6026TIP3   OH242272   3.994   1.882   7.857  0.1152  0.0059  0.5169
 6026TIP3    H142273   3.911   1.845   7.888 -0.1053  0.2630  0.2379
 6026TIP3    H242274   4.050   1.805   7.844 -0.5977 -0.3401 -0.8375
 6027TIP3   OH242275   2.429   4.759   0.215 -0.0761 -0.0933 -0.0043
 6027TIP3    H142276   2.414   4.732   0.125  0.9492 -0.3686 -0.1120
 6027TIP3    H242277   2.456   4.851   0.208  0.9441 -0.3876 -0.0823
 6028TIP3   OH242278   7.361   4.802   2.146  0.2153 -0.1945  0.4817
 6028TIP3    H142279   7.319   4.752   2.077  1.8285  0.7560 -1.2677
 6028TIP3    H242280   7.400   4.736   2.203 -0.7233 -0.9746  0.2589
 6029TIP3   OH242281   1.932   6.112   9.271  0.0140  0.4306 -0.8424
 6029TIP3    H142282   1.880   6.166   9.211  0.6744  0.1283 -1.7059
 6029TIP3    H242283   1.979   6.175   9.325  0.8078  0.7447 -1.8663
 6030TIP3   OH242284   4.755   4.855   7.663  0.2993 -0.1230 -0.1519
 6030TIP3    H142285   4.731   4.934   7.615 -0.4011  0.3666  0.9577
 6030TIP3    H242286   4.847   4.867   7.685 -0.5131  2.0113  2.8127
 6031TIP3   OH242287   6.533   2.437   1.654  0.2032  0.7202  0.0278
 6031TIP3    H142288   6.571   2.495   1.588 -0.8010  0.3844 -0.8778
 6031TIP3    H242289   6.525   2.353   1.610  0.1085  0.3235  0.7943
 6032TIP3   OH242290   7.287   7.234   8.400  0.2877 -0.2145  0.2434
 6032TIP3    H142291   7.219   7.231   8.333  0.1382  1.4622  0.2712
 6032TIP3    H242292   7.330   7.149   8.395 -0.8520 -0.7605 -0.7782
 6033TIP3   OH242293   3.063   5.138   2.153  0.4114  0.1248 -0.1510
 6033TIP3    H142294   3.085   5.211   2.211 -1.5695 -0.5142  1.5483
 6033TIP3    H242295   3.035   5.179   2.071  2.7207  1.0781 -0.5179
 6034TIP3   OH242296   2.310   7.097   7.400  0.5262 -0.0730 -0.4945
 6034TIP3    H142297   2.378   7.128   7.460  0.3991  0.7459 -0.7642
 6034TIP3    H242298   2.357   7.077   7.319  0.2083  2.7337 -1.4954
 6035TIP3   OH242299   3.238   0.165   7.438 -0.8066  0.0060 -0.0955
 6035TIP3    H142300   3.160   0.214   7.413 -1.2010 -0.4240  0.2711
 6035TIP3    H242301   3.299   0.177   7.365 -1.7005 -0.7182 -0.9735
 6036TIP3   OH242302   5.398   1.819   8.196 -0.1067  0.4606 -0.2088
 6036TIP3    H142303   5.451   1.883   8.242 -1.6435  2.4780 -1.1197
 6036TIP3    H242304   5.314   1.819   8.242 -0.1226 -0.9640 -0.1912
 6037TIP3   OH242305   4.876   3.416   7.467  0.4459  0.0765 -0.4314
 6037TIP3    H142306   4.961   3.441   7.431 -0.2093  1.4732 -1.0955
 6037TIP3    H242307   4.820   3.404   7.391 -0.1138 -0.2121  0.0189
 6038TIP3   OH242308   3.257   2.134   1.687  0.0467 -0.3161  0.1710
 6038TIP3    H142309   3.237   2.119   1.595  3.0287  2.2659 -1.0759
 6038TIP3    H242310   3.204   2.210   1.712 -0.9692 -1.1818  0.7388
 6039TIP3   OH242311   5.370   4.742   7.338  0.9233 -0.0824 -0.4893
 6039TIP3    H142312   5.448   4.778   7.380  0.4950  1.6747 -1.1026
 6039TIP3    H242313   5.340   4.812   7.280 -0.9343 -0.8349 -0.4949
 6040TIP3   OH242314   0.704   2.749   1.715 -0.3352  0.5619 -0.0859
 6040TIP3    H142315   0.743   2.834   1.735 -0.0276  0.2419  0.7085
 6040TIP3    H242316   0.742   2.689   1.779 -0.1635 -0.2882 -0.9590
 6041TIP3   OH242317   4.172   0.463   0.524 -0.7526  0.4308  0.2534
 6041TIP3    H142318   4.209   0.447   0.437 -1.9007  0.6272 -0.2923
 6041TIP3    H242319   4.243   0.505   0.573  0.8512 -2.0731  0.3087
 6042TIP3   OH242320   5.722   3.258   0.869  0.0433  0.5055  0.0908
 6042TIP3    H142321   5.758   3.283   0.783 -0.1987  0.5390 -0.0024
 6042TIP3    H242322   5.756   3.324   0.929 -0.7465  1.1932 -0.1895
 6043TIP3   OH242323   7.308   2.722   2.180  0.6472  0.2337  0.0871
 6043TIP3    H142324   7.266   2.641   2.150  0.2961  0.2577  0.5091
 6043TIP3    H242325   7.270   2.739   2.266 -0.5025  1.7232 -0.6673
 6044TIP3   OH242326   2.895   0.521   8.428 -0.4268  0.1397  0.5945
 6044TIP3    H142327   2.831   0.589   8.406 -0.6326  0.2778  1.5778
 6044TIP3    H242328   2.842   0.446   8.455 -0.1835 -0.0479  0.5523
 6045TIP3   OH242329   0.119   2.677   1.592  0.4422  0.0294  0.0961
 6045TIP3    H142330   0.171   2.683   1.672 -1.8057 -1.7797  1.8464
 6045TIP3    H242331   0.149   2.749   1.538  1.8794  1.5114  2.6856
 6046TIP3   OH242332   0.312   4.228   7.733  0.2546 -0.1154  0.3222
 6046TIP3    H142333   0.277   4.314   7.711 -0.4935  0.0345  1.9226
 6046TIP3    H242334   0.393   4.221   7.684  0.2634  1.4570  0.0736
 6047TIP3   OH242335   2.133   5.923   8.947  0.0979 -0.4093 -0.7419
 6047TIP3    H142336   2.200   5.935   9.013 -0.3742  0.6281 -0.4404
 6047TIP3    H242337   2.099   6.011   8.930 -0.0258 -0.6930 -2.1145
 6048TIP3   OH242338   5.466   2.699   0.231  0.2399  0.3274 -0.2269
 6048TIP3    H142339   5.443   2.758   0.159 -3.2098  0.7717  1.0108
 6048TIP3    H242340   5.382   2.661   0.258  1.9552 -3.1919  0.7763
 6049TIP3   OH242341   1.614   0.631   7.397  0.2918 -0.5684  0.1335
 6049TIP3    H142342   1.619   0.705   7.337 -1.1745 -1.1074 -0.7072
 6049TIP3    H242343   1.665   0.562   7.354  1.1583 -0.2581  0.6326
 6050TIP3   OH242344   2.829   5.654   8.224  0.9301 -0.4709  0.0939
 6050TIP3    H142345   2.879   5.692   8.296 -0.0491  0.2970  0.3870
 6050TIP3    H242346   2.793   5.729   8.177  1.9965 -0.9361 -1.5506
 6051TIP3   OH242347   6.062   6.690   7.378 -0.1586 -0.1956  0.0724
 6051TIP3    H142348   6.091   6.726   7.461  0.4480  2.0488 -1.0431
 6051TIP3    H242349   6.077   6.595   7.387  2.0613  0.2245  1.6794
 6052TIP3   OH242350   4.774   2.895   8.430 -0.3446  0.1540  0.0314
 6052TIP3    H142351   4.769   2.985   8.463  0.3473 -0.0788  0.8070
 6052TIP3    H242352   4.806   2.844   8.505  0.9026 -0.4489 -0.8694
 6053TIP3   OH242353   2.384   0.469   0.914  0.2885 -0.6615 -0.2430
 6053TIP3    H142354   2.435   0.520   0.852 -0.9242 -0.4640 -1.1254
 6053TIP3    H242355   2.349   0.533   0.975  0.1234 -0.6424 -0.3566
 6054TIP3   OH242356   3.577   6.127   9.601 -0.1390 -0.2593 -0.2517
 6054TIP3    H142357   3.582   6.031   9.608 -0.8380 -0.2621  0.3587
 6054TIP3    H242358   3.517   6.152   9.671  0.5880  0.6902  0.0460
 6055TIP3   OH242359   3.255   6.027   8.416 -0.0413  0.3467 -0.5384
 6055TIP3    H142360   3.345   5.996   8.429  0.9712  2.4888 -1.9077
 6055TIP3    H242361   3.251   6.049   8.323 -1.3393  2.2174 -0.0915
 6056TIP3   OH242362   5.767   7.312   6.761  0.1555 -0.1083 -0.8501
 6056TIP3    H142363   5.751   7.229   6.715 -2.3459  0.2086 -0.7198
 6056TIP3    H242364   5.819   7.287   6.837  0.0263 -1.4553 -1.1678
 6057TIP3   OH242365   4.549   6.289   2.871 -0.1201 -0.6536 -0.1590
 6057TIP3    H142366   4.616   6.259   2.932  1.2783  0.3667 -1.1183
 6057TIP3    H242367   4.548   6.384   2.880 -0.7578 -0.5813 -0.8468
 6058TIP3   OH242368   2.506   5.094   7.962 -0.2499 -0.0395  0.4120
 6058TIP3    H142369   2.516   5.188   7.952  0.5986 -0.1319  0.3220
 6058TIP3    H242370   2.459   5.083   8.045  1.5380  0.4097  1.5437
 6059TIP3   OH242371   0.708   2.205   0.564 -0.1849 -0.0055 -0.3266
 6059TIP3    H142372   0.753   2.130   0.603 -0.1390  1.3539  2.4036
 6059TIP3    H242373   0.723   2.195   0.470  2.4049 -1.7621  0.1673
 6060TIP3   OH242374   6.955   1.776   0.325 -0.1218 -0.3110 -0.2879
 6060TIP3    H142375   6.998   1.752   0.407 -0.5210  2.3110  0.7831
 6060TIP3    H242376   6.949   1.693   0.276 -0.7829 -2.2022  2.7168
 6061TIP3   OH242377   7.116   1.839   7.708 -0.5622  0.0381  0.6277
 6061TIP3    H142378   7.026   1.816   7.731 -0.6964  0.7489  0.8276
 6061TIP3    H242379   7.111   1.928   7.676  0.1188  0.2047  0.9633
 6062TIP3   OH242380   5.514   6.864   1.928  0.4196  0.2268  0.5343
 6062TIP3    H142381   5.529   6.955   1.955 -0.1247  0.4371  0.1620
 6062TIP3    H242382   5.593   6.818   1.954  1.8470  1.3038 -1.5554
 6063TIP3   OH242383   0.537   2.030   0.145 -0.5499 -0.2938  0.0040
 6063TIP3    H142384   0.574   2.090   0.210  0.6751 -0.7365 -0.2589
 6063TIP3    H242385   0.468   2.081   0.102 -0.6372  0.3710  0.8889
 6064TIP3   OH242386   0.050   3.055   9.020 -0.1306 -0.2661 -0.0306
 6064TIP3    H142387   0.001   3.071   9.100  0.8820  0.2241  0.5070
 6064TIP3    H242388   0.027   3.129   8.962 -0.2232 -0.1760  0.1223
 6065TIP3   OH242389   0.604   3.599   0.956  0.3645 -0.1975 -0.1307
 6065TIP3    H142390   0.692   3.599   0.921  0.5144  0.1618  0.2406
 6065TIP3    H242391   0.594   3.684   0.998  0.6009 -1.0067  1.6944
 6066TIP3   OH242392   4.328   0.423   8.449 -0.4878 -0.2889 -0.0765
 6066TIP3    H142393   4.401   0.460   8.498 -1.3726  2.9447 -0.9900
 6066TIP3    H242394   4.251   0.440   8.504 -0.9835 -0.4476 -0.7069
 6067TIP3   OH242395   7.109   2.166   2.170  0.1477  0.2043 -0.7154
 6067TIP3    H142396   7.156   2.238   2.129 -1.8848  1.9162 -0.2251
 6067TIP3    H242397   7.041   2.208   2.223 -1.0210 -2.0704 -0.2449
 6068TIP3   OH242398   1.367   5.297   8.484 -0.1176  0.4283  0.2465
 6068TIP3    H142399   1.375   5.246   8.565  0.6892  2.5092  1.5729
 6068TIP3    H242400   1.443   5.272   8.432  1.1889  1.3939  1.6017
 6069TIP3   OH242401   1.837   4.613   7.863  0.2668  0.3449 -0.2084
 6069TIP3    H142402   1.757   4.627   7.813  1.4616  2.8535 -1.6086
 6069TIP3    H242403   1.907   4.619   7.799  1.6487 -4.3252  0.5048
 6070TIP3   OH242404   3.711   5.142   8.223  0.4053 -0.2260 -0.4923
 6070TIP3    H142405   3.676   5.061   8.187 -0.2968 -0.7271  1.1924
 6070TIP3    H242406   3.777   5.113   8.286  0.6439  0.5422 -0.3830
 6071TIP3   OH242407   3.339   0.877   1.689 -0.0214 -0.6436 -0.1968
 6071TIP3    H142408   3.360   0.880   1.782 -0.0706  1.4347 -0.1942
 6071TIP3    H242409   3.303   0.790   1.674  1.2046 -1.4622  1.4439
 6072TIP3   OH242410   5.175   6.355   9.492 -0.3528 -0.1311  0.9270
 6072TIP3    H142411   5.197   6.320   9.578 -0.3358  0.7024  1.2673
 6072TIP3    H242412   5.168   6.278   9.436 -1.6414 -0.7969  1.9406
 6073TIP3   OH242413   6.526   3.053   2.440 -0.4231 -0.0127  0.1466
 6073TIP3    H142414   6.449   3.057   2.496 -0.7763 -0.8897 -0.2663
 6073TIP3    H242415   6.494   3.023   2.355  0.4326 -0.9376  0.1207
 6074TIP3   OH242416   4.016   6.059   1.372  0.1315 -0.0786 -0.0737
 6074TIP3    H142417   3.922   6.040   1.363  0.0227  1.0681 -2.1907
 6074TIP3    H242418   4.058   5.996   1.313  0.5866  0.1114  0.0471
 6075TIP3   OH242419   3.162   3.479   7.582 -0.1427  0.0405 -0.6282
 6075TIP3    H142420   3.154   3.574   7.588 -0.8865 -0.0465 -0.1245
 6075TIP3    H242421   3.238   3.458   7.637 -0.5360  0.2658  0.0167
 6076TIP3   OH242422   6.887   0.186   9.035  0.1212 -0.0325  0.2019
 6076TIP3    H142423   6.905   0.108   9.088 -0.5061  0.4497  1.1736
 6076TIP3    H242424   6.966   0.239   9.043 -0.3007  0.4622  1.4856
 6077TIP3   OH242425   2.228   6.766   1.526  0.0459  0.6376 -0.2036
 6077TIP3    H142426   2.188   6.848   1.498 -1.8161  0.0607  0.5875
 6077TIP3    H242427   2.163   6.699   1.505  1.0391 -0.5086  0.2253
 6078TIP3   OH242428   5.663   3.644   7.639  0.1768  0.0385  0.5594
 6078TIP3    H142429   5.737   3.702   7.655  2.1447 -1.9686 -0.7668
 6078TIP3    H242430   5.610   3.649   7.719  1.1641  2.2824  1.1380
 6079TIP3   OH242431   4.478   4.287   8.583  0.5831  0.5312 -0.3047
 6079TIP3    H142432   4.567   4.309   8.557  1.0427 -0.5167  0.3183
 6079TIP3    H242433   4.448   4.225   8.516  1.3088 -1.1723  0.8576
 6080TIP3   OH242434   2.507   4.038   2.556 -0.3341  0.5000  0.6572
 6080TIP3    H142435   2.438   4.092   2.519  0.8527  0.9082 -1.0648
 6080TIP3    H242436   2.572   4.030   2.486  1.8644  0.9969  2.5162
 6081TIP3   OH242437   7.139   2.971   1.293 -0.5962 -0.1289  0.0057
 6081TIP3    H142438   7.186   2.949   1.213  0.4390 -2.2504  1.1172
 6081TIP3    H242439   7.047   2.970   1.268 -0.3910 -2.3776 -0.8777
 6082TIP3   OH242440   1.975   4.328   2.488  0.2963 -0.5057 -0.0875
 6082TIP3    H142441   1.909   4.321   2.419  0.8167  2.3221 -0.9886
 6082TIP3    H242442   2.035   4.396   2.457  1.2682 -0.0298  2.5979
 6083TIP3   OH242443   0.374   6.605   8.869 -0.6057 -0.6497  0.2719
 6083TIP3    H142444   0.465   6.586   8.848 -0.2215  0.8484  0.4555
 6083TIP3    H242445   0.363   6.578   8.960 -0.0262  0.1478  0.5873
 6084TIP3   OH242446   1.835   1.869   8.203  0.8275 -0.7285  0.2822
 6084TIP3    H142447   1.856   1.907   8.118  1.2823 -0.3278  0.5672
 6084TIP3    H242448   1.820   1.945   8.260 -0.4575 -0.9904  0.3264
 6085TIP3   OH242449   2.235   1.278   1.047  0.5385 -0.0132  0.6389
 6085TIP3    H142450   2.284   1.360   1.046  1.3329 -0.4605  1.2956
 6085TIP3    H242451   2.296   1.214   1.084 -0.6751 -0.5000  1.8752
 6086TIP3   OH242452   6.894   6.769   0.962 -0.0597  0.0966 -0.4703
 6086TIP3    H142453   6.869   6.760   1.054  2.3526  0.4757  0.2847
 6086TIP3    H242454   6.883   6.681   0.926 -0.8954 -0.0877  0.2035
 6087TIP3   OH242455   6.761   2.743   7.348 -0.6339 -0.0141 -0.1331
 6087TIP3    H142456   6.808   2.780   7.424 -2.2774 -1.9390  1.9646
 6087TIP3    H242457   6.831   2.708   7.293  0.5727 -0.8202  1.7770
 6088TIP3   OH242458   7.351   6.302   8.958  0.0087  0.2676 -0.5974
 6088TIP3    H142459   7.439   6.306   8.921 -0.0100  0.7432 -0.5986
 6088TIP3    H242460   7.361   6.251   9.039  0.4481  1.0361 -0.1503
 6089TIP3   OH242461   3.327   2.084   8.309 -0.1600  0.0930 -0.1734
 6089TIP3    H142462   3.275   2.164   8.307  0.5806  0.7216  2.6106
 6089TIP3    H242463   3.265   2.014   8.287 -1.2131  1.2149 -0.8781
 6090TIP3   OH242464   2.718   4.567   2.152 -0.4340  0.4444  0.9640
 6090TIP3    H142465   2.638   4.568   2.099  0.4723  1.0925 -0.4505
 6090TIP3    H242466   2.691   4.527   2.235 -1.8837 -0.7059 -0.0040
 6091TIP3   OH242467   0.851   6.105   3.021 -0.2374  0.4033  0.2493
 6091TIP3    H142468   0.782   6.068   3.076 -0.0153 -0.5630 -0.1080
 6091TIP3    H242469   0.804   6.141   2.945 -0.2578 -1.5107 -0.6848
 6092TIP3   OH242470   3.387   7.347   0.265 -0.5073  0.2325  0.0449
 6092TIP3    H142471   3.443   7.276   0.296 -0.1228  0.5485  0.0845
 6092TIP3    H242472   3.374   7.403   0.342 -0.7579  0.2389  0.0000
 6093TIP3   OH242473   4.798   4.045   0.779 -0.7700 -0.0121  0.1846
 6093TIP3    H142474   4.802   4.069   0.687 -1.0007  0.5232  0.3083
 6093TIP3    H242475   4.819   4.126   0.826  0.0040 -0.4413  0.5938
 6094TIP3   OH242476   3.855   3.297   0.438  0.1049 -0.0648  0.0820
 6094TIP3    H142477   3.810   3.222   0.475 -1.1671  0.3186 -0.6454
 6094TIP3    H242478   3.807   3.318   0.358  0.6758  1.2707  0.0575
 6095TIP3   OH242479   7.113   4.048   7.754 -0.2694 -0.5377  0.1787
 6095TIP3    H142480   7.037   4.000   7.789 -0.9967 -0.0984 -0.7802
 6095TIP3    H242481   7.092   4.140   7.767 -0.0892 -0.4011 -0.4965
 6096TIP3   OH242482   6.431   1.817   1.567 -0.7147  0.5685 -0.7596
 6096TIP3    H142483   6.441   1.755   1.639 -2.7412 -0.1756 -1.0766
 6096TIP3    H242484   6.405   1.899   1.609  0.7174  0.8903 -0.4519
 6097TIP3   OH242485   2.808   5.515   9.321 -0.1657  0.1422  0.0420
 6097TIP3    H142486   2.842   5.459   9.252  0.4229  0.1745  0.2959
 6097TIP3    H242487   2.734   5.466   9.358 -1.0622  0.5206 -1.1923
 6098TIP3   OH242488   0.029   6.260   1.010 -0.3341 -0.0681 -0.0742
 6098TIP3    H142489   0.118   6.255   1.045 -0.5879  0.9989  0.7930
 6098TIP3    H242490   0.039   6.302   0.925 -0.1493  1.6895  0.7696
 6099TIP3   OH242491   1.968   0.537   9.277  0.1849 -0.4213  0.1138
 6099TIP3    H142492   1.979   0.445   9.301  1.4624  0.0374  1.4092
 6099TIP3    H242493   2.000   0.543   9.187 -0.3230 -1.3168 -0.1319
 6100TIP3   OH242494   2.785   6.448   0.283 -0.2678  0.1841  0.0186
 6100TIP3    H142495   2.763   6.357   0.263 -2.0437  0.5203  0.2963
 6100TIP3    H242496   2.708   6.482   0.326  1.2929  1.1514  2.2012
 6101TIP3   OH242497   2.693   3.111   7.310 -0.6127 -0.3004 -0.6042
 6101TIP3    H142498   2.762   3.153   7.259 -1.1844 -0.1520 -1.2786
 6101TIP3    H242499   2.718   3.125   7.401 -0.4805  0.9934 -0.8188
 6102TIP3   OH242500   0.989   3.924   0.781  0.8162 -0.3309  0.2785
 6102TIP3    H142501   0.965   3.949   0.870 -0.9750 -1.1230  0.0610
 6102TIP3    H242502   0.931   3.975   0.725  0.6460 -1.1793 -0.3473
 6103TIP3   OH242503   0.677   1.578   1.126 -0.7749 -0.2464 -0.5066
 6103TIP3    H142504   0.697   1.484   1.125  0.4223 -0.0157  0.2191
 6103TIP3    H242505   0.652   1.598   1.036  0.5716 -0.9382 -1.0612
 6104TIP3   OH242506   1.012   4.142   9.591  0.4727 -0.3736  0.0648
 6104TIP3    H142507   1.016   4.056   9.549  1.9486 -0.8942  1.1736
 6104TIP3    H242508   1.057   4.200   9.530 -1.1493 -0.1919 -1.0245
 6105TIP3   OH242509   7.237   1.613   0.067 -0.2797 -0.2427  0.0995
 6105TIP3    H142510   7.206   1.549   0.003 -0.8608 -0.5762  0.7013
 6105TIP3    H242511   7.293   1.563   0.127  0.1981  0.0514 -0.0907
 6106TIP3   OH242512   6.831   1.142   1.489  0.6966 -0.1649  0.6215
 6106TIP3    H142513   6.896   1.140   1.559 -0.0085  0.4204  1.3150
 6106TIP3    H242514   6.871   1.197   1.421  0.5966  0.9191  1.4016
 6107TIP3   OH242515   2.091   0.971   2.275 -0.1373  0.2157  0.0828
 6107TIP3    H142516   2.149   0.973   2.200 -1.3492 -2.3921 -1.0827
 6107TIP3    H242517   2.149   0.972   2.351  1.1991  1.2215 -0.9192
 6108TIP3   OH242518   7.102   2.425   8.183 -0.2274 -0.3270  0.1016
 6108TIP3    H142519   7.055   2.392   8.260 -1.0295  2.5338  0.9654
 6108TIP3    H242520   7.153   2.498   8.216  0.9618 -0.2573 -1.7760
 6109TIP3   OH242521   5.012   2.534   9.198 -0.0934  0.5575  0.6378
 6109TIP3    H142522   5.021   2.448   9.156 -1.1320  0.1427  1.2102
 6109TIP3    H242523   5.076   2.589   9.154 -0.7694  0.0066 -1.1217
 6110TIP3   OH242524   6.960   2.967   8.980  0.0174  0.7152 -0.9141
 6110TIP3    H142525   6.937   3.059   8.968 -2.5044  0.2271 -0.3762
 6110TIP3    H242526   6.945   2.950   9.073 -0.1870 -0.3803 -1.1336
 6111TIP3   OH242527   1.021   1.347   0.840 -0.2814 -0.2582  0.3054
 6111TIP3    H142528   0.952   1.407   0.869  0.1148  0.3766 -0.0210
 6111TIP3    H242529   0.991   1.260   0.866 -1.3660 -0.0323 -0.1203
 6112TIP3   OH242530   5.044   1.196   9.418 -0.3118 -0.0669 -0.2577
 6112TIP3    H142531   4.993   1.177   9.340  0.9025 -0.7255 -0.9132
 6112TIP3    H242532   5.092   1.276   9.397 -0.5384  0.1659  0.0975
 6113TIP3   OH242533   6.970   4.334   8.036  0.4888 -1.0744 -0.0052
 6113TIP3    H142534   7.012   4.276   8.100  0.2801  0.9570  2.0878
 6113TIP3    H242535   6.923   4.274   7.978  2.3041 -3.1359  0.4876
 6114TIP3   OH242536   0.300   6.935   0.321  0.0632 -0.4056 -0.3620
 6114TIP3    H142537   0.231   6.977   0.271  1.2985  1.3460 -0.6779
 6114TIP3    H242538   0.270   6.845   0.334 -0.9291 -0.5188 -3.0131
 6115TIP3   OH242539   2.690   0.946   7.737 -0.6348 -0.2797 -0.3280
 6115TIP3    H142540   2.731   0.925   7.653 -0.3750 -0.4999 -0.1475
 6115TIP3    H242541   2.596   0.940   7.720 -0.6676  1.6653 -1.1267
 6116TIP3   OH242542   2.130   3.052   3.092  0.5318  0.0881  0.2202
 6116TIP3    H142543   2.095   3.024   3.007  0.5734  0.1736  0.1752
 6116TIP3    H242544   2.101   2.983   3.153  0.7003 -0.0942  0.0950
 6117TIP3   OH242545   4.101   1.751   9.140  0.1571  0.8275  0.4002
 6117TIP3    H142546   4.104   1.757   9.044 -0.1498  0.0655  0.3386
 6117TIP3    H242547   4.122   1.660   9.159  0.8262  1.1184  1.0988
 6118TIP3   OH242548   1.652   5.047   0.194  0.1820  0.1643  0.2899
 6118TIP3    H142549   1.707   5.108   0.243  1.5453  0.2762 -1.2877
 6118TIP3    H242550   1.655   5.079   0.104  0.3763 -1.8243 -0.4600
 6119TIP3   OH242551   5.456   2.112   1.818  0.1253  0.7217  0.0286
 6119TIP3    H142552   5.440   2.066   1.901  0.9648 -0.2766 -0.3377
 6119TIP3    H242553   5.405   2.064   1.754  1.2329  0.0919 -0.4092
 6120TIP3   OH242554   3.844   6.792   9.274  0.3156  0.0611 -0.0137
 6120TIP3    H142555   3.790   6.863   9.239  0.4837  0.2889  0.1789
 6120TIP3    H242556   3.883   6.829   9.353 -1.2448 -0.9286  1.2882
 6121TIP3   OH242557   5.183   0.259   0.414  0.2986  0.0815  0.4538
 6121TIP3    H142558   5.182   0.310   0.495  1.4905 -0.0515  0.5745
 6121TIP3    H242559   5.249   0.303   0.360  0.7399 -0.8293  0.2352
 6122TIP3   OH242560   4.300   3.296   6.604  0.3870 -0.2542  0.0656
 6122TIP3    H142561   4.356   3.328   6.675 -0.9533 -0.4496  1.2485
 6122TIP3    H242562   4.297   3.369   6.542  2.7284 -0.5866 -0.5573
 6123TIP3   OH242563   0.750   4.210   7.650  0.1483 -0.2413  0.3563
 6123TIP3    H142564   0.733   4.139   7.713  0.2783 -0.3362  0.2864
 6123TIP3    H242565   0.667   4.222   7.605 -0.0287  0.0284  0.7502
 6124TIP3   OH242566   4.349   4.109   9.619 -0.2604 -0.0802  0.4864
 6124TIP3    H142567   4.274   4.098   9.561 -0.5362  1.2977  0.5406
 6124TIP3    H242568   4.347   4.202   9.642  1.2434 -0.1082  0.7879
 6125TIP3   OH242569   5.403   4.415   1.738 -0.0854  0.0354  0.3125
 6125TIP3    H142570   5.352   4.450   1.812  1.2213  0.2702  1.1289
 6125TIP3    H242571   5.399   4.320   1.749 -2.4319 -0.1036 -1.0879
 6126TIP3   OH242572   7.089   4.418   1.992 -0.1285  0.2853  0.0704
 6126TIP3    H142573   6.996   4.435   2.007 -0.2805 -0.2229 -0.2726
 6126TIP3    H242574   7.131   4.434   2.076 -0.4974  0.7264  0.1711
 6127TIP3   OH242575   5.195   4.809   2.263  0.4659  0.0534  0.0407
 6127TIP3    H142576   5.121   4.770   2.309  1.3003 -1.9190 -0.1823
 6127TIP3    H242577   5.248   4.849   2.332 -0.6457  1.2766  0.2243
 6128TIP3   OH242578   0.551   6.753   9.356 -0.0697  0.0711 -0.7478
 6128TIP3    H142579   0.484   6.806   9.399  1.3717  0.7338  0.8078
 6128TIP3    H242580   0.618   6.817   9.330  0.6855 -0.7413 -0.8256
 6129TIP3   OH242581   4.214   4.977   6.566 -0.6850  0.1066 -0.4030
 6129TIP3    H142582   4.150   5.040   6.532 -2.0211 -0.7661  0.3918
 6129TIP3    H242583   4.295   4.996   6.518 -2.1264 -0.2901 -3.1914
 6130TIP3   OH242584   5.051   7.005   8.888 -0.2650 -0.0496 -0.0631
 6130TIP3    H142585   5.013   7.010   8.800 -0.9094  0.0024  0.2079
 6130TIP3    H242586   5.056   6.911   8.905 -1.1113 -0.0540  0.2375
 6131TIP3   OH242587   0.196   7.014   2.203 -0.0432 -0.3354 -0.1375
 6131TIP3    H142588   0.280   7.053   2.225  0.4877 -0.7358 -1.3503
 6131TIP3    H242589   0.193   6.933   2.254 -0.5065  0.5277  1.2650
 6132TIP3   OH242590   5.338   7.099   8.888 -0.5755  0.4563 -0.0395
 6132TIP3    H142591   5.379   7.030   8.940 -2.8165  0.3703  1.7683
 6132TIP3    H242592   5.272   7.054   8.835 -1.1116  1.0248  0.1246
 6133TIP3   OH242593   1.837   6.578   2.091 -0.2951 -0.2396 -0.2908
 6133TIP3    H142594   1.901   6.649   2.096 -0.1860 -0.4010  0.9869
 6133TIP3    H242595   1.753   6.619   2.112 -0.2375 -0.4638  0.4175
 6134TIP3   OH242596   3.774   4.025   7.828  0.4902 -0.0044  0.1806
 6134TIP3    H142597   3.865   4.046   7.847  0.8475 -0.0473 -1.4024
 6134TIP3    H242598   3.772   3.930   7.819  0.4763  0.0618 -0.6153
 6135TIP3   OH242599   1.794   4.847   2.804  0.0436  0.2738  0.0684
 6135TIP3    H142600   1.731   4.914   2.776  0.4335  0.3770 -0.5734
 6135TIP3    H242601   1.841   4.823   2.725  1.1244  0.5160  0.6241
 6136TIP3   OH242602   6.073   3.855   2.855  0.1619  0.0577  0.3080
 6136TIP3    H142603   6.155   3.889   2.891  0.8194 -0.2083 -0.8687
 6136TIP3    H242604   6.033   3.807   2.927  0.8032  0.5964  1.0424
 6137TIP3   OH242605   0.285   7.334   9.574 -0.0434 -0.3001  0.4129
 6137TIP3    H142606   0.227   7.260   9.558  0.2345 -0.1894 -1.2209
 6137TIP3    H242607   0.278   7.389   9.496  1.7888  0.0259  0.4227
 6138TIP3   OH242608   0.385   1.047   7.922  0.0610 -0.2226 -0.9583
 6138TIP3    H142609   0.403   1.111   7.853  1.2680  0.0587 -0.3966
 6138TIP3    H242610   0.440   1.073   7.995  1.2076 -2.3671 -0.9813
 6139TIP3   OH242611   5.786   1.915   1.350 -0.1759  0.1529 -0.2582
 6139TIP3    H142612   5.766   1.974   1.277  0.7652  0.8455  0.0221
 6139TIP3    H242613   5.853   1.857   1.315 -2.2535 -1.9109 -1.0746
 6140TIP3   OH242614   1.871   7.259   2.749  0.3582  0.1959 -0.3969
 6140TIP3    H142615   1.870   7.163   2.755  0.8823  0.2422  0.7775
 6140TIP3    H242616   1.803   7.288   2.809  1.1016  0.5729  0.2902
 6141TIP3   OH242617   1.793   6.810   9.558  0.4711 -0.8101  0.5427
 6141TIP3    H142618   1.714   6.848   9.596 -0.1544 -1.7396  0.2007
 6141TIP3    H242619   1.787   6.717   9.579  1.8474 -0.7850  1.1470
 6142TIP3   OH242620   1.611   2.766   2.285  0.5597 -0.4644 -0.2248
 6142TIP3    H142621   1.524   2.765   2.324  0.8101 -0.3224  0.3414
 6142TIP3    H242622   1.612   2.845   2.230  0.9720  0.6216  1.2646
 6143TIP3   OH242623   2.883   1.687   1.784 -0.2344  0.0513  0.4757
 6143TIP3    H142624   2.969   1.670   1.823  0.2796  1.1318 -0.1587
 6143TIP3    H242625   2.868   1.780   1.798 -1.3086 -0.1143  0.5480
 6144TIP3   OH242626   6.849   1.042   7.851  0.1206  0.2284  0.2518
 6144TIP3    H142627   6.927   1.097   7.857 -0.4241  1.1345 -0.7132
 6144TIP3    H242628   6.834   1.013   7.941 -0.2823  2.6813  1.0581
 6145TIP3   OH242629   3.808   5.987   1.767  0.5781 -0.1350  0.3213
 6145TIP3    H142630   3.865   5.956   1.837  1.2985  2.3856  0.9840
 6145TIP3    H242631   3.719   5.973   1.801  0.8470 -1.6404  0.4379
 6146TIP3   OH242632   2.943   2.187   9.211  0.2186 -0.0074 -0.3117
 6146TIP3    H142633   2.982   2.274   9.200 -1.4466  0.9326  0.8577
 6146TIP3    H242634   2.930   2.178   9.306 -0.7127 -1.0446 -0.5160
 6147TIP3   OH242635   2.568   0.391   2.889  0.3201  0.1392 -0.0594
 6147TIP3    H142636   2.499   0.365   2.950 -0.6338  1.6977 -0.4167
 6147TIP3    H242637   2.543   0.479   2.861  1.1610 -0.2125 -2.0724
 6148TIP3   OH242638   2.800   2.513   8.248  0.3742 -0.1164  0.4667
 6148TIP3    H142639   2.820   2.567   8.172 -1.1266  0.8633  0.7142
 6148TIP3    H242640   2.769   2.575   8.314 -2.6432 -1.2882  0.3347
 6149TIP3   OH242641   3.673   3.658   8.724  0.2163 -0.5621 -0.4826
 6149TIP3    H142642   3.709   3.734   8.769  0.6142 -1.3724  0.6208
 6149TIP3    H242643   3.596   3.634   8.776  0.8982 -1.7380  0.0062
 6150TIP3   OH242644   3.470   3.004   8.019 -0.1963  0.1512  0.2882
 6150TIP3    H142645   3.508   2.974   8.102  2.4372  0.4978 -0.7002
 6150TIP3    H242646   3.446   2.923   7.974 -0.2279 -0.1093  0.7573
 6151TIP3   OH242647   7.397   7.390   1.723 -0.1438 -0.9310  0.1859
 6151TIP3    H142648   7.429   7.339   1.797  1.0774  0.1004  0.3883
 6151TIP3    H242649   7.320   7.437   1.757  1.8114  1.4750  1.6287
 6152TIP3   OH242650   4.189   2.345   9.140 -0.2088 -0.0189 -0.4600
 6152TIP3    H142651   4.159   2.335   9.230  1.9835 -0.5337  0.2714
 6152TIP3    H242652   4.250   2.272   9.126  1.1661  1.2677 -1.6008
 6153TIP3   OH242653   2.351   5.372   0.746 -0.6572  0.4651  0.2195
 6153TIP3    H142654   2.315   5.284   0.759 -0.6400  0.5045  0.5521
 6153TIP3    H242655   2.436   5.369   0.790  0.5499 -0.1501 -1.9843
 6154TIP3   OH242656   2.353   2.902   0.858  0.1927 -0.1635 -0.6370
 6154TIP3    H142657   2.315   2.959   0.790 -0.1390 -0.0484 -0.3594
 6154TIP3    H242658   2.445   2.894   0.834 -0.0344 -0.5679 -1.4129
 6155TIP3   OH242659   0.971   0.309   7.484 -0.4480 -0.1887  0.7527
 6155TIP3    H142660   0.944   0.319   7.575 -1.6952 -0.7014  0.4585
 6155TIP3    H242661   0.889   0.308   7.434  0.2666  2.0597 -0.6029
 6156TIP3   OH242662   3.616   4.845   0.633 -0.1320  0.4163  0.0885
 6156TIP3    H142663   3.538   4.891   0.603  0.0210  0.2455 -0.6062
 6156TIP3    H242664   3.684   4.871   0.571 -0.2626 -1.4713 -0.9217
 6157TIP3   OH242665   7.332   3.577   8.645 -0.1598  0.4900  0.6304
 6157TIP3    H142666   7.319   3.482   8.648  0.9032  0.3121  0.0132
 6157TIP3    H242667   7.244   3.613   8.657 -0.6520 -0.5702  0.3749
 6158TIP3   OH242668   6.437   4.672   9.630 -0.2590 -0.3339  0.3519
 6158TIP3    H142669   6.412   4.705   9.544  0.7485 -2.0435 -0.6511
 6158TIP3    H242670   6.497   4.738   9.665 -2.1394  1.3210  0.6367
 6159TIP3   OH242671   2.133   6.275   8.588 -0.1216  0.1169 -0.2662
 6159TIP3    H142672   2.133   6.367   8.615  0.9052  0.5259 -1.5622
 6159TIP3    H242673   2.225   6.253   8.578 -0.3440 -1.1777  0.3449
 6160TIP3   OH242674   6.618   1.778   0.988 -0.2970  0.1790  0.4094
 6160TIP3    H142675   6.539   1.819   0.952 -1.4094  0.0930  2.5998
 6160TIP3    H242676   6.677   1.851   1.006 -0.5836  0.4162  0.3956
 6161TIP3   OH242677   1.153   5.133   0.014 -0.0181 -0.0020  0.4050
 6161TIP3    H142678   1.183   5.171   0.096 -0.2013  0.7707  0.1192
 6161TIP3    H242679   1.101   5.057   0.040  2.7492 -1.8498  0.8952
 6162TIP3   OH242680   3.584   3.282   1.835  0.0757  0.6785 -0.0244
 6162TIP3    H142681   3.679   3.284   1.819 -0.0308  2.5456 -0.7152
 6162TIP3    H242682   3.566   3.365   1.880 -1.2694  0.4406 -0.0803
 6163TIP3   OH242683   2.416   3.906   0.693  0.2581  0.3149 -0.6419
 6163TIP3    H142684   2.408   3.998   0.716  2.2821  0.3261  0.2362
 6163TIP3    H242685   2.349   3.862   0.745 -0.4257  1.2299 -0.7347
 6164TIP3   OH242686   2.208   3.969   1.626 -0.0540 -0.8215  0.1734
 6164TIP3    H142687   2.215   3.980   1.532 -0.6738  0.1170  0.2263
 6164TIP3    H242688   2.220   3.875   1.641  1.9953 -0.7435 -0.6488
 6165TIP3   OH242689   5.157   2.624   0.228  0.3899 -0.2552  0.4949
 6165TIP3    H142690   5.110   2.559   0.175 -1.3322  0.8666  0.5331
 6165TIP3    H242691   5.141   2.598   0.318 -0.0415  0.0085  0.5027
 6166TIP3   OH242692   6.207   4.720   7.410  0.3221 -0.0691  0.2028
 6166TIP3    H142693   6.167   4.771   7.480  1.0126 -0.4811  0.9050
 6166TIP3    H242694   6.176   4.762   7.330 -0.8518  0.1183  0.7389
 6167TIP3   OH242695   4.229   0.079   1.604 -0.0519  0.0548 -0.3086
 6167TIP3    H142696   4.138   0.092   1.576 -0.1014 -0.6440 -0.4851
 6167TIP3    H242697   4.226   0.002   1.660  0.2462  0.7332  0.6767
 6168TIP3   OH242698   4.834   4.576   8.552  0.0029  0.4434 -0.0490
 6168TIP3    H142699   4.884   4.511   8.602  0.7277  1.1442  0.1420
 6168TIP3    H242700   4.804   4.639   8.618  0.7114  1.2061 -0.4358
 6169TIP3   OH242701   3.848   6.681   7.688 -0.4418 -0.0182 -0.3323
 6169TIP3    H142702   3.863   6.754   7.748  0.3858 -0.9781  0.6837
 6169TIP3    H242703   3.815   6.721   7.608  2.1208  1.7158 -0.6395
 6170TIP3   OH242704   3.902   6.162   7.192 -0.0503 -0.1514 -0.3380
 6170TIP3    H142705   3.858   6.149   7.108  0.3048  0.5074 -0.6336
 6170TIP3    H242706   3.969   6.229   7.174 -1.1010  1.2936  0.8378
 6171TIP3   OH242707   3.266   6.255   0.184 -0.0623 -0.4420 -0.2333
 6171TIP3    H142708   3.315   6.277   0.263  0.2364  0.5097 -0.6558
 6171TIP3    H242709   3.295   6.320   0.120  0.3302 -1.7041 -1.3757
 6172TIP3   OH242710   4.118   6.037   8.612 -0.2070 -0.2775 -0.4081
 6172TIP3    H142711   4.161   5.985   8.544 -0.0454 -0.0133 -0.5109
 6172TIP3    H242712   4.175   6.031   8.688 -0.4743 -0.7149 -0.2377
 6173TIP3   OH242713   2.343   5.992   9.111  0.4115 -0.0946  0.4860
 6173TIP3    H142714   2.368   5.947   9.192  0.2854 -0.0588  0.5451
 6173TIP3    H242715   2.426   6.007   9.066  0.5083  0.1291  0.7377
 6174TIP3   OH242716   5.915   0.613   0.530 -0.0398  0.0849 -0.1831
 6174TIP3    H142717   5.857   0.539   0.551  1.6465 -1.1905  0.2323
 6174TIP3    H242718   5.856   0.687   0.517 -1.6149 -0.5239  2.7217
 6175TIP3   OH242719   2.268   7.350   7.260  0.2491  0.1335 -0.0199
 6175TIP3    H142720   2.289   7.413   7.329  0.2245  1.0178 -0.8047
 6175TIP3    H242721   2.319   7.272   7.282 -0.5764  0.0015  1.5921
 6176TIP3   OH242722   6.164   1.995   1.521 -0.1781 -0.1889 -1.0841
 6176TIP3    H142723   6.086   2.038   1.486  0.1897  1.0183 -0.4704
 6176TIP3    H242724   6.180   2.038   1.605 -0.0500 -1.8637 -0.2048
 6177TIP3   OH242725   0.110   0.178   8.607  0.0782  0.7171 -0.4208
 6177TIP3    H142726   0.130   0.229   8.685 -4.2001  3.5696 -0.8468
 6177TIP3    H242727   0.133   0.235   8.534 -1.2182  0.5150 -1.0249
 6178TIP3   OH242728   3.596   4.078   1.571  0.3929 -0.0493  0.2484
 6178TIP3    H142729   3.562   4.056   1.658  0.0581  1.5207  0.5417
 6178TIP3    H242730   3.520   4.078   1.514  0.2854  0.8710  0.3738
 6179TIP3   OH242731   5.226   3.603   3.054 -0.4957  0.3997 -0.5090
 6179TIP3    H142732   5.196   3.519   3.019 -1.4376  0.5890 -0.1894
 6179TIP3    H242733   5.257   3.651   2.977 -0.8777  0.1359 -0.8347
 6180TIP3   OH242734   2.875   0.649   7.732  0.1584  0.1677  0.0133
 6180TIP3    H142735   2.848   0.557   7.722 -0.6697  0.4730 -0.6452
 6180TIP3    H242736   2.885   0.681   7.642  0.8135  0.6241  0.2411
 6181TIP3   OH242737   2.980   1.849   2.929  0.2053 -0.2979  0.0727
 6181TIP3    H142738   2.997   1.890   3.014  0.2027 -1.4429  0.6550
 6181TIP3    H242739   2.885   1.837   2.927  0.4515 -3.8914  1.7591
 6182TIP3   OH242740   1.645   5.627   7.020 -0.0882 -0.5710 -0.3066
 6182TIP3    H142741   1.654   5.661   6.931  0.6207 -2.6116 -1.0934
 6182TIP3    H242742   1.636   5.704   7.075  0.1028  0.7783 -2.0747
 6183TIP3   OH242743   3.397   6.359   0.414  0.4682 -0.2804  0.0878
 6183TIP3    H142744   3.473   6.374   0.470  0.7681 -0.4476 -0.2750
 6183TIP3    H242745   3.336   6.311   0.470 -0.4296  2.0341  1.2184
 6184TIP3   OH242746   1.551   7.026   0.161  0.0991 -0.3631  0.6400
 6184TIP3    H142747   1.644   7.005   0.151  0.1316 -0.5080  1.1963
 6184TIP3    H242748   1.521   7.047   0.072  1.2335  2.1618  0.8018
 6185TIP3   OH242749   0.102   4.259   0.021  0.4321  0.1294  0.2381
 6185TIP3    H142750   0.068   4.240  -0.066  0.5408 -0.8376  0.3936
 6185TIP3    H242751   0.176   4.317   0.006 -0.5587  1.3233 -0.1838
 6186TIP3   OH242752   5.479   4.362   6.687  0.3448  0.7905  0.4414
 6186TIP3    H142753   5.504   4.435   6.629 -1.6553  0.2680 -1.1938
 6186TIP3    H242754   5.554   4.302   6.682  0.1820  0.6670 -1.8676
 6187TIP3   OH242755   3.419   7.158   8.428 -0.1635  0.4172 -0.0869
 6187TIP3    H142756   3.379   7.224   8.372 -0.0320  0.4390 -0.1574
 6187TIP3    H242757   3.512   7.162   8.406 -0.0036  0.9089  0.6291
 6188TIP3   OH242758   6.842   6.950   8.851  0.0631  0.4236  0.0069
 6188TIP3    H142759   6.891   6.978   8.928  2.0169 -2.1449 -0.1907
 6188TIP3    H242760   6.903   6.960   8.778  0.0183 -1.8891 -0.4032
 6189TIP3   OH242761   4.796   1.733   8.719 -0.1371 -0.1944  0.4548
 6189TIP3    H142762   4.742   1.736   8.798 -0.2596  0.9243  0.3494
 6189TIP3    H242763   4.880   1.699   8.749 -0.7989 -1.7218  0.6666
 6190TIP3   OH242764   6.997   2.382   7.090 -0.3283  0.6937 -0.1760
 6190TIP3    H142765   7.017   2.467   7.128 -1.2201  0.6035  0.5122
 6190TIP3    H242766   7.001   2.397   6.995 -1.2647  1.7116 -0.0751
 6191TIP3   OH242767   5.289   1.765   1.876 -0.6122 -0.0697 -0.1444
 6191TIP3    H142768   5.202   1.729   1.857 -1.4895  0.8523  1.8391
 6191TIP3    H242769   5.308   1.821   1.801 -2.6304  1.2171  0.2008
 6192TIP3   OH242770   6.814   0.791   6.774 -0.1747  0.2013 -0.0371
 6192TIP3    H142771   6.725   0.817   6.750 -0.0375  0.3533 -0.3852
 6192TIP3    H242772   6.853   0.761   6.692  0.0723  0.0659  0.1291
 6193TIP3   OH242773   4.565   7.081   9.175 -0.0114  0.0699  0.2771
 6193TIP3    H142774   4.544   7.174   9.168 -2.1177 -0.4717 -2.2619
 6193TIP3    H242775   4.493   7.043   9.224  1.0218 -0.2187  1.6211
 6194TIP3   OH242776   1.980   2.674   9.405  0.2121  0.3938  1.0720
 6194TIP3    H142777   1.917   2.614   9.446  1.8831 -0.6112  2.3328
 6194TIP3    H242778   1.939   2.760   9.414 -1.5943 -0.3507  0.5648
 6195TIP3   OH242779   5.467   6.942   2.356 -0.7922 -0.6475  0.4518
 6195TIP3    H142780   5.431   6.922   2.443  1.4923 -1.1335  1.3734
 6195TIP3    H242781   5.454   6.862   2.306 -0.1754 -1.1550  1.0766
 6196TIP3   OH242782   0.128   1.159   0.380  0.1846  0.2206  0.4890
 6196TIP3    H142783   0.073   1.227   0.418 -0.3210  0.2383 -0.2549
 6196TIP3    H242784   0.142   1.096   0.452 -3.0226 -1.1690  0.0479
 6197TIP3   OH242785   3.891   7.123   7.516  0.3173 -0.0596  0.3633
 6197TIP3    H142786   3.881   7.095   7.425 -2.1071  0.6329  0.3396
 6197TIP3    H242787   3.967   7.181   7.515 -0.0563  0.4552 -1.3668
 6198TIP3   OH242788   6.757   4.013   1.897  0.1250 -0.0348 -0.1907
 6198TIP3    H142789   6.689   4.048   1.840  1.7192  1.9989 -0.9775
 6198TIP3    H242790   6.834   4.006   1.840  0.8018 -1.5618  0.8415
 6199TIP3   OH242791   4.379   5.077   7.820 -0.2960 -0.1566 -0.0952
 6199TIP3    H142792   4.356   5.104   7.731  0.4556  1.6780  0.2307
 6199TIP3    H242793   4.299   5.089   7.871 -0.7648 -1.3367 -0.5254
 6200TIP3   OH242794   2.776   1.405   1.256 -0.2713  0.1841  0.1576
 6200TIP3    H142795   2.849   1.462   1.278 -0.1911  0.9583 -1.8476
 6200TIP3    H242796   2.806   1.356   1.179 -1.6924  0.2446 -0.4783
 6201TIP3   OH242797   5.555   3.858   9.595 -0.0972 -0.7737  0.3056
 6201TIP3    H142798   5.597   3.935   9.556 -1.0774 -0.1313  0.4775
 6201TIP3    H242799   5.625   3.793   9.601  0.3878 -0.4368 -1.2818
 6202TIP3   OH242800   2.235   0.491   7.835 -0.1026  0.0018 -0.7022
 6202TIP3    H142801   2.177   0.508   7.910 -0.7344 -0.0351 -1.1685
 6202TIP3    H242802   2.273   0.576   7.814 -2.3045  0.6956 -2.2521
 6203TIP3   OH242803   5.697   1.784   1.795 -0.0582  0.0949  0.1704
 6203TIP3    H142804   5.651   1.763   1.713  2.2482 -0.4829 -1.0705
 6203TIP3    H242805   5.654   1.729   1.861 -1.0051 -0.5764 -0.9523
 6204TIP3   OH242806   1.195   3.005   0.307 -0.7081 -0.0848  0.2297
 6204TIP3    H142807   1.116   3.014   0.253 -1.6135 -0.8305  1.3822
 6204TIP3    H242808   1.229   3.094   0.315 -1.8165  0.3529  0.2616
 6205TIP3   OH242809   1.945   3.495   1.590 -0.1288  0.4701 -0.2355
 6205TIP3    H142810   1.882   3.530   1.527  0.4491  2.2748  0.1172
 6205TIP3    H242811   1.891   3.458   1.660 -0.9134  2.8153  0.5118
 6206TIP3   OH242812   1.792   2.930   8.562  0.1824  0.1521 -0.3299
 6206TIP3    H142813   1.768   3.020   8.537 -1.0420 -0.1736 -0.3739
 6206TIP3    H242814   1.726   2.905   8.627  0.2045 -0.8942 -0.6985
 6207TIP3   OH242815   1.757   4.578   7.569  0.0744  0.0689  0.5861
 6207TIP3    H142816   1.773   4.632   7.491 -0.0303  0.5316  0.8805
 6207TIP3    H242817   1.784   4.490   7.543 -0.7852  0.0365 -0.2676
 6208TIP3   OH242818   4.895   4.750   2.113 -0.1181 -0.2922  0.2389
 6208TIP3    H142819   4.918   4.699   2.191 -1.9248 -1.4057  0.1044
 6208TIP3    H242820   4.847   4.825   2.146 -1.7454 -1.2689  0.2020
 6209TIP3   OH242821   0.261   4.068   2.795 -0.2306  0.2477  0.6535
 6209TIP3    H142822   0.281   4.098   2.706 -2.3778 -0.0055  0.0346
 6209TIP3    H242823   0.346   4.064   2.838  0.9781 -0.3362 -1.6036
 6210TIP3   OH242824   7.114   0.824   8.877 -0.0907  0.2692  0.1447
 6210TIP3    H142825   7.139   0.916   8.885 -0.3297  0.2494  1.2635
 6210TIP3    H242826   7.103   0.794   8.967 -1.9463 -0.3356 -0.2366
 6211TIP3   OH242827   3.831   4.748   7.109 -0.1342 -0.1518 -0.0956
 6211TIP3    H142828   3.834   4.834   7.067 -0.6869  0.2496  0.6624
 6211TIP3    H242829   3.896   4.696   7.061 -0.8993  0.2040 -1.6012
 6212TIP3   OH242830   3.784   3.448   8.299 -0.0684 -0.4062 -0.5211
 6212TIP3    H142831   3.704   3.411   8.262 -1.0724  0.6291  0.5542
 6212TIP3    H242832   3.847   3.376   8.295 -1.1662 -1.3784 -0.9721
 6213TIP3   OH242833   3.110   5.178   7.440  0.6495  0.5037 -0.3181
 6213TIP3    H142834   3.185   5.209   7.489  1.2638  0.1520 -1.0238
 6213TIP3    H242835   3.133   5.089   7.414 -1.1522 -0.6878  1.8482
 6214TIP3   OH242836   3.395   0.778   7.723  0.2643  0.1403 -0.2269
 6214TIP3    H142837   3.432   0.732   7.648 -0.0043 -1.4110  0.5517
 6214TIP3    H242838   3.301   0.761   7.717 -0.1970  2.6046 -1.2264
 6215TIP3   OH242839   0.075   7.355   1.120  0.3053  0.4395 -0.7174
 6215TIP3    H142840   0.022   7.435   1.117  0.3165  0.4255 -1.3401
 6215TIP3    H242841   0.164   7.386   1.138  0.2575  0.5411 -0.6535
 6216TIP3   OH242842   2.772   0.217   7.218  0.6068 -1.0424 -0.1592
 6216TIP3    H142843   2.752   0.124   7.223  0.8351 -1.2116 -1.7848
 6216TIP3    H242844   2.783   0.234   7.124  0.8079  0.5687  0.1286
 6217TIP3   OH242845   2.589   5.390   7.736 -0.1710  0.3902 -0.1032
 6217TIP3    H142846   2.549   5.439   7.808  0.2825  0.0516  0.3871
 6217TIP3    H242847   2.683   5.405   7.746 -0.0117 -0.6853  0.1423
 6218TIP3   OH242848   2.423   4.662   8.208  1.1717 -0.7457  0.2384
 6218TIP3    H142849   2.357   4.616   8.157  1.5345 -1.0971  0.0826
 6218TIP3    H242850   2.398   4.647   8.300 -2.1393  3.5821  0.3514
 6219TIP3   OH242851   3.063   6.693   2.063 -0.0458  0.0772 -0.0116
 6219TIP3    H142852   2.973   6.707   2.033 -0.6681 -0.6196  1.3941
 6219TIP3    H242853   3.061   6.606   2.105  1.6242 -0.5567 -1.1359
 6220TIP3   OH242854   6.772   6.925   1.912  0.4359  0.5807  0.2736
 6220TIP3    H142855   6.767   6.836   1.876 -1.1024  1.1601 -1.0821
 6220TIP3    H242856   6.801   6.913   2.002 -1.4583 -1.4681  0.6892
 6221TIP3   OH242857   6.111   6.631   0.938  0.0162  0.6885 -0.4120
 6221TIP3    H142858   6.178   6.681   0.892  0.5393  0.3844  0.0079
 6221TIP3    H242859   6.031   6.645   0.887 -0.2637  3.3079  0.5697
 6222TIP3   OH242860   5.369   0.695   9.459  0.8767 -0.2232  0.8726
 6222TIP3    H142861   5.311   0.762   9.423  0.4734 -0.6548  0.7173
 6222TIP3    H242862   5.321   0.613   9.449  0.9553 -0.4139  1.9578
 6223TIP3   OH242863   3.538   6.021   2.813 -0.5620  0.0004 -0.4526
 6223TIP3    H142864   3.444   6.036   2.802 -1.0584 -1.5794  1.1627
 6223TIP3    H242865   3.556   5.943   2.760 -0.0647  0.4978 -1.0315
 6224TIP3   OH242866   7.058   3.362   6.784 -0.4026  0.0140 -0.3820
 6224TIP3    H142867   7.071   3.275   6.747  0.0404  0.1414 -0.5410
 6224TIP3    H242868   7.062   3.421   6.708  1.5477  0.3830 -0.0640
 6225TIP3   OH242869   4.401   0.653   0.482 -1.0823  0.0879  0.2854
 6225TIP3    H142870   4.389   0.575   0.428 -2.4677  1.0160 -0.8403
 6225TIP3    H242871   4.441   0.621   0.562 -0.7858 -1.6375 -0.5018
 6226TIP3   OH242872   4.500   7.370   2.615  0.3774 -0.3580  0.5276
 6226TIP3    H142873   4.415   7.400   2.646 -0.6939 -2.3574 -0.2660
 6226TIP3    H242874   4.542   7.448   2.580 -0.3330  1.0249  2.6168
 6227TIP3   OH242875   5.812   4.931   9.433  0.2518 -0.1938  0.4511
 6227TIP3    H142876   5.767   5.001   9.386  1.6171  0.3001 -0.1778
 6227TIP3    H242877   5.753   4.856   9.428 -0.8911  0.6854  0.4547
 6228TIP3   OH242878   2.051   6.678   8.510 -0.6830 -0.6047 -0.2177
 6228TIP3    H142879   1.998   6.757   8.495 -0.7592 -0.7163 -0.5416
 6228TIP3    H242880   2.140   6.712   8.521 -0.9543 -0.3291  1.3110
 6229TIP3   OH242881   5.508   3.445   9.618 -0.4352  0.3909  0.6125
 6229TIP3    H142882   5.529   3.418   9.707 -0.5633 -0.5154  0.3745
 6229TIP3    H242883   5.571   3.515   9.599  0.5381 -0.3895  0.9023
 6230TIP3   OH242884   2.783   3.764   2.562 -0.0145  0.1201  0.0233
 6230TIP3    H142885   2.813   3.845   2.602  0.7282 -0.0053 -0.2533
 6230TIP3    H242886   2.729   3.722   2.629 -0.0006  0.6108  0.3431
 6231TIP3   OH242887   6.024   3.478   0.038 -0.2342 -0.0945  0.0077
 6231TIP3    H142888   6.023   3.571   0.060 -0.2752  0.0097 -0.4270
 6231TIP3    H242889   5.980   3.435   0.112  0.0466  0.1994  0.3427
 6232TIP3   OH242890   4.650   0.132   0.724  0.2403  0.4913 -0.2690
 6232TIP3    H142891   4.705   0.074   0.778 -0.9895 -0.3493  0.1128
 6232TIP3    H242892   4.686   0.124   0.636  1.1921  0.5409  0.0967
 6233TIP3   OH242893   5.072   6.323   8.801  1.1352 -0.5254 -0.9426
 6233TIP3    H142894   5.026   6.381   8.862  3.2185  1.0359 -0.7217
 6233TIP3    H242895   5.004   6.267   8.765 -0.4566 -0.2139  1.3848
 6234TIP3   OH242896   3.019   7.393   7.428  0.1272  0.5332  0.4969
 6234TIP3    H142897   2.990   7.336   7.499  1.8174 -1.1402 -0.0860
 6234TIP3    H242898   3.105   7.424   7.457  0.9587 -0.3867 -0.8852
 6235TIP3   OH242899   1.854   1.897   2.162  0.0450  0.0133  0.4048
 6235TIP3    H142900   1.903   1.917   2.082  2.6102  1.3675  2.1774
 6235TIP3    H242901   1.897   1.819   2.198 -2.0988 -1.5556 -0.2386
 6236TIP3   OH242902   1.388   7.071   8.377 -0.5457 -0.4965  0.0589
 6236TIP3    H142903   1.329   7.056   8.451  0.3076 -0.0549  0.8557
 6236TIP3    H242904   1.376   7.163   8.355 -0.0622 -0.3674  0.3174
 6237TIP3   OH242905   2.151   2.301   1.377 -0.8825 -0.2804  0.1944
 6237TIP3    H142906   2.066   2.338   1.353 -1.4909 -1.5499  0.2612
 6237TIP3    H242907   2.180   2.255   1.298  0.6473  1.6277 -0.4381
 6238TIP3   OH242908   3.104   0.103   9.281  0.5763  0.4854  0.2146
 6238TIP3    H142909   3.137   0.169   9.220 -1.7118  0.3012 -1.3360
 6238TIP3    H242910   3.112   0.020   9.234  1.7637 -0.1518  1.4620
 6239TIP3   OH242911   0.262   7.161   9.160 -0.7013  0.2069  0.0796
 6239TIP3    H142912   0.327   7.183   9.226 -1.4046  0.5046  0.6814
 6239TIP3    H242913   0.178   7.177   9.202 -1.1619  1.1247 -1.1230
 6240TIP3   OH242914   1.659   3.847   0.007  0.4244  0.3293  0.1828
 6240TIP3    H142915   1.593   3.831   0.074  1.2215 -0.1396  0.8880
 6240TIP3    H242916   1.724   3.903   0.051  2.0289 -1.6742  0.5450
 6241TIP3   OH242917   2.874   4.542   0.829  0.0454 -1.1010 -0.6193
 6241TIP3    H142918   2.859   4.469   0.889 -1.9914 -0.2813 -0.0551
 6241TIP3    H242919   2.861   4.503   0.742 -1.9826 -1.2860 -0.2948
 6242TIP3   OH242920   4.134   5.669   8.714  0.2627 -0.1675  0.6711
 6242TIP3    H142921   4.138   5.718   8.796  2.8882  2.8886 -1.0791
 6242TIP3    H242922   4.045   5.685   8.681 -0.5359 -0.7422  2.4227
 6243TIP3   OH242923   3.395   4.293   1.720 -0.4556 -0.3997 -0.4240
 6243TIP3    H142924   3.339   4.369   1.736 -1.0863 -1.0348  0.5192
 6243TIP3    H242925   3.432   4.273   1.806 -1.5523 -2.1071 -0.3148
 6244TIP3   OH242926   0.924   0.217   9.141 -0.0114  0.6308 -0.1121
 6244TIP3    H142927   0.982   0.284   9.177 -1.1851  1.4824  0.2682
 6244TIP3    H242928   0.847   0.219   9.197  0.0295 -1.2511  0.0574
 6245TIP3   OH242929   3.045   3.233   8.142  0.1257 -0.2873 -0.0283
 6245TIP3    H142930   3.039   3.199   8.231 -0.7754 -0.5768 -0.1937
 6245TIP3    H242931   2.970   3.292   8.134  0.3450 -0.0724 -0.5210
 6246TIP3   OH242932   5.494   3.741   7.461  0.6683  0.1141 -0.2721
 6246TIP3    H142933   5.541   3.689   7.526  0.9078 -0.0658 -0.5806
 6246TIP3    H242934   5.479   3.680   7.388 -0.0700  0.1640 -0.1682
 6247TIP3   OH242935   3.361   4.628   0.507 -0.0905 -0.1335 -0.4199
 6247TIP3    H142936   3.326   4.678   0.434 -1.5220  0.5643  0.7033
 6247TIP3    H242937   3.306   4.651   0.582  1.8571 -0.1392  1.1107
 6248TIP3   OH242938   3.195   4.073   1.368  0.4522 -0.2246 -0.1165
 6248TIP3    H142939   3.190   4.141   1.435 -0.0451  0.9449 -1.3081
 6248TIP3    H242940   3.162   3.994   1.411  0.5452  0.4009  1.1283
 6249TIP3   OH242941   7.388   6.995   8.843 -0.1271  0.0208  0.3792
 6249TIP3    H142942   7.376   7.069   8.784 -0.4869 -0.9308 -0.7556
 6249TIP3    H242943   7.482   6.978   8.841 -0.1156  0.1027  0.2195
 6250TIP3   OH242944   0.352   0.482   7.431  0.2249  0.4531  0.1218
 6250TIP3    H142945   0.387   0.471   7.342 -1.9242  0.8892 -0.8377
 6250TIP3    H242946   0.328   0.394   7.459 -0.9961  0.5298 -0.6024
 6251TIP3   OH242947   6.567   1.391   0.384  0.3300  0.3261 -0.2877
 6251TIP3    H142948   6.576   1.437   0.467  1.2873 -1.1337  0.4736
 6251TIP3    H242949   6.627   1.316   0.391 -0.4709 -0.5293 -1.8039
 6252TIP3   OH242950   5.758   4.865   1.537  0.2990 -0.3252  0.0087
 6252TIP3    H142951   5.854   4.863   1.529  0.2368 -0.4346 -0.7852
 6252TIP3    H242952   5.726   4.861   1.447 -0.4550 -0.0851  0.2570
 6253TIP3   OH242953   0.289   3.369   0.650  0.1716 -0.3015 -0.5621
 6253TIP3    H142954   0.263   3.307   0.718 -1.7258 -0.0632 -0.9892
 6253TIP3    H242955   0.336   3.316   0.586  0.4019 -0.8851  0.0802
 6254TIP3   OH242956   5.907   0.977   0.295  0.1552  0.2808 -0.2498
 6254TIP3    H142957   5.911   0.955   0.388  1.8988 -1.2982 -0.6441
 6254TIP3    H242958   5.866   1.063   0.293  0.1009  0.3702  1.9786
 6255TIP3   OH242959   1.574   0.360   8.293  0.0011 -0.0026  0.6005
 6255TIP3    H142960   1.538   0.271   8.291 -2.3029  0.8453 -0.6094
 6255TIP3    H242961   1.652   0.354   8.347  0.3078 -2.8932  0.0097
 6256TIP3   OH242962   3.485   1.928   0.526 -0.2002 -0.5149 -0.1807
 6256TIP3    H142963   3.509   1.965   0.441  0.7689 -1.5061 -0.3786
 6256TIP3    H242964   3.495   1.833   0.513  0.3884 -0.6483  1.1579
 6257TIP3   OH242965   3.877   3.002   9.480 -0.0005 -0.3819 -0.2808
 6257TIP3    H142966   3.826   2.921   9.486 -1.2794  0.4420  0.3550
 6257TIP3    H242967   3.846   3.043   9.399  0.7111 -0.5633 -0.6506
 6258TIP3   OH242968   3.206   0.207   8.689 -0.0926  0.4258 -0.0919
 6258TIP3    H142969   3.300   0.219   8.699 -0.2604  1.1732  0.6875
 6258TIP3    H242970   3.176   0.286   8.645 -0.4850  0.6084  0.4911
 6259TIP3   OH242971   0.399   6.231   0.207 -0.9285  0.0090 -0.3688
 6259TIP3    H142972   0.385   6.216   0.114 -1.4916 -1.4713 -0.0662
 6259TIP3    H242973   0.454   6.158   0.235  0.1397  1.0216  0.2563
 6260TIP3   OH242974   3.812   6.728   0.753  0.1283 -0.4264 -0.6866
 6260TIP3    H142975   3.833   6.812   0.714 -0.5465  0.4462  0.7366
 6260TIP3    H242976   3.731   6.700   0.710 -0.2204  0.1695 -0.4177
 6261TIP3   OH242977   5.509   1.829   0.933 -0.7540 -0.2144 -0.3294
 6261TIP3    H142978   5.561   1.748   0.932 -0.0313  0.1858  1.1493
 6261TIP3    H242979   5.499   1.849   1.026  0.1825  2.0910 -0.6526
 6262TIP3   OH242980   5.518   4.303   1.997 -0.0510  0.1122  0.5507
 6262TIP3    H142981   5.459   4.379   1.998  0.1188  0.2772  2.7897
 6262TIP3    H242982   5.590   4.331   1.940 -1.0738  0.7251 -0.5006
 6263TIP3   OH242983   2.802   4.975   9.593 -0.1612 -0.0683  0.1139
 6263TIP3    H142984   2.829   4.904   9.650  1.1237  2.1522  2.4721
 6263TIP3    H242985   2.767   5.041   9.652  1.6264  2.5393 -1.5215
 6264TIP3   OH242986   6.406   6.841   1.474  0.0181  0.4224 -0.2814
 6264TIP3    H142987   6.498   6.814   1.469 -0.4473 -1.1192 -1.2516
 6264TIP3    H242988   6.379   6.817   1.563  0.5310  0.8872  0.0118
 6265TIP3   OH242989   4.318   5.086   1.557  0.3441 -0.1454  0.2680
 6265TIP3    H142990   4.386   5.068   1.622 -0.5586  1.5132  1.7713
 6265TIP3    H242991   4.295   5.178   1.571 -1.5072 -0.3725 -0.8869
 6266TIP3   OH242992   5.809   7.218   2.305  0.1671 -0.1289  0.0531
 6266TIP3    H142993   5.804   7.218   2.400 -1.4282  0.8832  0.0074
 6266TIP3    H242994   5.794   7.127   2.280 -0.6583 -0.1837  0.7255
 6267TIP3   OH242995   6.962   2.586   1.158 -0.3273  0.4028  0.8396
 6267TIP3    H142996   7.054   2.595   1.181  0.1399 -0.1740 -0.6460
 6267TIP3    H242997   6.941   2.494   1.178 -1.2244  1.0648  3.2029
 6268TIP3   OH242998   6.688   2.936   1.266  0.4995 -0.7393  0.6062
 6268TIP3    H142999   6.770   2.906   1.229  0.1222 -0.9533 -0.0757
 6268TIP3    H243000   6.632   2.858   1.267  0.5717 -0.8084  1.8762
 6269TIP3   OH243001   3.574   5.982   0.276 -0.0907  0.0505  0.1751
 6269TIP3    H143002   3.580   5.943   0.188  1.9317 -1.8356  1.0520
 6269TIP3    H243003   3.500   5.939   0.316 -0.1854 -0.0921 -0.1463
 6270TIP3   OH243004   4.994   3.805   0.696  0.0427  0.0638  0.2898
 6270TIP3    H143005   4.898   3.801   0.691  0.1187 -1.6967 -0.1864
 6270TIP3    H243006   5.023   3.806   0.605  0.5103  0.0860  0.4374
 6271TIP3   OH243007   2.411   1.888   1.981  0.5943  0.1790 -0.1676
 6271TIP3    H143008   2.489   1.842   1.949 -0.6499 -3.1171  1.0495
 6271TIP3    H243009   2.343   1.866   1.917 -0.0175  0.4174  0.3933
 6272TIP3   OH243010   6.079   6.794   1.521  0.5390  0.0204  0.4303
 6272TIP3    H143011   6.069   6.874   1.470  1.1671  0.5583  1.1400
 6272TIP3    H243012   6.079   6.724   1.455 -1.7607  0.4239 -0.0824
 6273TIP3   OH243013   0.020   6.717   0.701  0.0978 -0.2601 -0.1232
 6273TIP3    H143014   0.098   6.683   0.745 -0.5211 -1.0330  0.4130
 6273TIP3    H243015   0.040   6.810   0.686  0.2156  0.1654  2.1628
 6274TIP3   OH243016   4.666   0.284   9.429 -0.3287  0.5096 -0.6842
 6274TIP3    H143017   4.600   0.257   9.365  0.7716 -1.7853 -0.9482
 6274TIP3    H243018   4.747   0.244   9.398  0.3185 -0.3711  1.9124
 6275TIP3   OH243019   2.485   5.084   1.756  0.0467  0.3788  0.0497
 6275TIP3    H143020   2.427   5.009   1.765  1.9202 -1.3777 -1.4310
 6275TIP3    H243021   2.500   5.114   1.846  1.0013 -2.4948  0.9717
 6276TIP3   OH243022   6.931   1.013   1.878 -0.0663 -0.3085 -0.4629
 6276TIP3    H143023   6.984   0.934   1.888 -1.3283 -1.3315 -1.4669
 6276TIP3    H243024   6.947   1.041   1.788  0.8433  0.9769  0.0633
 6277TIP3   OH243025   6.787   0.574   7.551  0.1781  0.4580  0.0107
 6277TIP3    H143026   6.779   0.524   7.632  0.2746 -0.8571 -0.7614
 6277TIP3    H243027   6.820   0.511   7.487 -0.2058  1.3838 -1.1368
 6278TIP3   OH243028   0.315   5.881   1.144  0.0318  0.0244 -0.1267
 6278TIP3    H143029   0.324   5.907   1.052 -0.5529  0.8497  0.0362
 6278TIP3    H243030   0.404   5.870   1.176  0.2401 -0.1531 -0.7590
 6279TIP3   OH243031   7.179   6.121   9.337  0.5835 -0.1767  0.1514
 6279TIP3    H143032   7.216   6.054   9.395 -0.0396 -0.0605  0.7041
 6279TIP3    H243033   7.099   6.149   9.382  1.2539  1.5367  0.3460
 6280TIP3   OH243034   7.118   3.158   7.298  0.5877  0.4058  0.1873
 6280TIP3    H143035   7.071   3.241   7.297 -1.6030 -0.7672  0.5863
 6280TIP3    H243036   7.135   3.140   7.205 -0.2402  0.5950 -0.0076
 6281TIP3   OH243037   3.055   1.145   7.897 -0.1739 -0.2762  0.0167
 6281TIP3    H143038   3.096   1.122   7.813 -1.0651  0.5329 -0.6761
 6281TIP3    H243039   3.109   1.217   7.931 -0.9072  0.7236 -0.8471
 6282TIP3   OH243040   3.101   0.385   6.643 -0.0401 -0.4871  0.2240
 6282TIP3    H143041   3.183   0.409   6.601  0.4379  0.8151  1.7858
 6282TIP3    H243042   3.124   0.314   6.703  0.0070 -0.0107  0.7836
 6283TIP3   OH243043   6.663   6.103   1.789  0.1689  0.7018 -0.3115
 6283TIP3    H143044   6.710   6.119   1.707  0.0149 -0.9586 -0.7752
 6283TIP3    H243045   6.716   6.143   1.857  1.0610  0.8420 -1.0772
 6284TIP3   OH243046   0.305   5.505   6.431  0.6713 -0.1512 -0.2859
 6284TIP3    H143047   0.340   5.500   6.342  3.2097 -0.6535  0.6467
 6284TIP3    H243048   0.353   5.438   6.479 -0.7508  0.0059  1.4512
 6285TIP3   OH243049   7.216   2.631   1.256  0.2517 -0.3989  0.3302
 6285TIP3    H143050   7.249   2.566   1.317  0.1841 -0.8274 -0.0816
 6285TIP3    H243051   7.277   2.704   1.262  0.8585 -0.8832  0.1095
 6286TIP3   OH243052   3.202   4.953   2.605 -0.5493  0.5237  0.1224
 6286TIP3    H143053   3.160   4.928   2.523 -2.5932 -0.1717  1.3115
 6286TIP3    H243054   3.144   5.018   2.643  0.3475  0.8082  1.0594
 6287TIP3   OH243055   7.370   5.406   8.642 -0.9305  0.9325  0.1963
 6287TIP3    H143056   7.346   5.348   8.570  0.3404  2.2921 -1.4187
 6287TIP3    H243057   7.319   5.486   8.626 -0.5190  1.3029  0.7053
 6288TIP3   OH243058   5.767   6.709   8.031  0.1589 -0.0773  0.2604
 6288TIP3    H143059   5.858   6.682   8.019 -0.3019 -1.9002  0.6160
 6288TIP3    H243060   5.768   6.804   8.017  1.8169 -0.2904 -1.4098
 6289TIP3   OH243061   1.009   5.556   2.779  0.2899  0.2050  0.8721
 6289TIP3    H143062   0.922   5.531   2.748  0.2839 -0.2299  1.2230
 6289TIP3    H243063   0.996   5.642   2.820 -0.1203 -0.1677  1.5493
 6290TIP3   OH243064   3.296   3.308   2.577 -0.1729  0.0052  0.3757
 6290TIP3    H143065   3.386   3.339   2.575 -0.1667 -0.0384 -1.0376
 6290TIP3    H243066   3.269   3.308   2.485 -1.3983 -0.6013  0.7203
 6291TIP3   OH243067   6.333   6.629   7.834 -0.6367 -0.1685  0.3652
 6291TIP3    H143068   6.258   6.582   7.798 -2.6540  3.1041 -0.1639
 6291TIP3    H243069   6.327   6.616   7.928 -1.5811 -0.3589  0.2871
 6292TIP3   OH243070   6.015   2.726   8.465 -0.2497  0.1006 -0.7463
 6292TIP3    H143071   5.982   2.683   8.544  0.1170  0.1151 -0.5871
 6292TIP3    H243072   5.939   2.728   8.406 -0.3853 -0.3814 -0.5915
 6293TIP3   OH243073   1.395   0.588   2.242  0.4969 -0.2401 -0.2481
 6293TIP3    H143074   1.365   0.528   2.174  0.7942 -0.0484 -0.5523
 6293TIP3    H243075   1.442   0.532   2.304 -1.6575 -0.7879  0.9971
 6294TIP3   OH243076   6.273   5.003   0.492  0.3679  0.0835  0.5291
 6294TIP3    H143077   6.326   5.079   0.470 -0.2663  0.5698  0.6349
 6294TIP3    H243078   6.292   4.940   0.423 -0.3295  0.9609 -0.5107
 6295TIP3   OH243079   3.869   3.863   9.408  0.0145 -0.3357 -0.3812
 6295TIP3    H143080   3.943   3.804   9.396 -1.4186 -2.0800 -1.0334
 6295TIP3    H243081   3.795   3.817   9.370 -1.1074  2.1193 -1.3746
 6296TIP3   OH243082   0.693   1.638   1.597  0.2452  0.5742  0.1699
 6296TIP3    H143083   0.633   1.644   1.522 -0.4929  0.1076  0.7107
 6296TIP3    H243084   0.651   1.576   1.656  1.0940  0.5250  0.7281
 6297TIP3   OH243085   1.468   7.408   1.836  0.3008  0.2024  0.2520
 6297TIP3    H143086   1.557   7.384   1.810 -0.3813 -2.3772  0.0461
 6297TIP3    H243087   1.459   7.375   1.925 -0.1991  1.1858  0.5747
 6298TIP3   OH243088   0.993   1.415   7.632 -0.1997  0.2921 -0.3136
 6298TIP3    H143089   1.003   1.424   7.537  0.2802  0.3420 -0.2614
 6298TIP3    H243090   0.942   1.335   7.644  1.6889 -1.0295 -0.5463
 6299TIP3   OH243091   0.594   3.779   8.026  0.0893 -0.0627 -0.0416
 6299TIP3    H143092   0.586   3.700   8.080  1.2359 -0.4432 -0.4073
 6299TIP3    H243093   0.665   3.829   8.066  0.3470  0.0826 -0.6718
 6300TIP3   OH243094   5.410   1.343   2.061  0.0984 -0.0120  0.0117
 6300TIP3    H143095   5.338   1.280   2.066 -1.5208  1.7153 -0.0093
 6300TIP3    H243096   5.370   1.426   2.089  1.6983  1.3224 -1.4386
 6301TIP3   OH243097   2.744   2.733   0.897 -0.0946 -0.4646  0.1794
 6301TIP3    H143098   2.829   2.703   0.864 -0.5548 -2.0259  0.3265
 6301TIP3    H243099   2.720   2.668   0.963 -2.0757 -0.9140 -0.9072
 6302TIP3   OH243100   3.485   4.865   8.535 -0.0271  0.9077 -0.4692
 6302TIP3    H143101   3.485   4.822   8.621  0.1340  2.5766  0.4040
 6302TIP3    H243102   3.557   4.928   8.540 -0.2977  1.3417 -1.6929
 6303TIP3   OH243103   7.104   6.843   0.785  0.1392 -0.3678 -0.1238
 6303TIP3    H143104   7.081   6.869   0.696  0.6914 -2.1112 -0.8185
 6303TIP3    H243105   7.021   6.816   0.824 -0.6500  3.1782  0.9843
 6304TIP3   OH243106   6.412   5.432   7.526  0.0209  0.4511  0.0878
 6304TIP3    H143107   6.466   5.508   7.547 -0.9139  1.1542  0.0135
 6304TIP3    H243108   6.412   5.428   7.430  1.8365 -0.9695  0.0860
 6305TIP3   OH243109   2.417   5.494   9.558  0.0037 -0.5788 -0.0044
 6305TIP3    H143110   2.478   5.538   9.618  1.5917 -1.1694 -1.1132
 6305TIP3    H243111   2.332   5.535   9.576  0.9884  1.3444  0.5660
 6306TIP3   OH243112   1.881   1.477   9.000  0.0645  0.1005 -0.1015
 6306TIP3    H143113   1.932   1.494   9.079 -1.8973  1.8792  0.8801
 6306TIP3    H243114   1.869   1.382   8.999  1.4970 -0.1298  0.7829
 6307TIP3   OH243115   6.943   4.558   7.853 -0.4970  0.2305  0.0023
 6307TIP3    H143116   6.956   4.495   7.924 -1.8132 -0.5419 -0.4064
 6307TIP3    H243117   6.871   4.521   7.801  1.6001 -0.1913 -2.8230
 6308TIP3   OH243118   2.281   1.281   7.783 -0.2847  0.0336 -0.0546
 6308TIP3    H143119   2.232   1.232   7.850  0.1713  0.5976  0.7011
 6308TIP3    H243120   2.215   1.300   7.716 -1.3037  1.3743  1.2561
 6309TIP3   OH243121   0.014   0.752   6.229 -0.4298  0.5441 -0.5113
 6309TIP3    H143122  -0.031   0.808   6.292 -1.0487  0.3181 -0.7494
 6309TIP3    H243123  -0.040   0.674   6.223  0.5342 -0.1824 -0.0291
 6310TIP3   OH243124   0.810   7.069   7.632  0.0166 -0.3243 -0.0355
 6310TIP3    H143125   0.897   7.047   7.598  0.5762  1.0168  0.4432
 6310TIP3    H243126   0.777   6.988   7.669  0.5153 -1.1720 -1.3643
 6311TIP3   OH243127   6.218   6.590   8.480 -0.6839 -0.1581 -0.5937
 6311TIP3    H143128   6.145   6.650   8.471  1.0531  2.5078  1.5494
 6311TIP3    H243129   6.208   6.551   8.567  0.0501 -0.3305 -0.5786
 6312TIP3   OH243130   4.558   7.075   7.832  0.8832 -0.2365  0.1066
 6312TIP3    H143131   4.527   7.080   7.741 -2.6318 -0.4956  1.1531
 6312TIP3    H243132   4.541   7.162   7.868  1.1186 -0.4861  0.8269
 6313TIP3   OH243133   3.532   4.194   7.250  0.2650  0.5716  0.2858
 6313TIP3    H143134   3.550   4.112   7.204 -1.0044  0.6150 -0.3412
 6313TIP3    H243135   3.444   4.182   7.286 -0.1650  1.8548 -0.2915
 6314TIP3   OH243136   6.194   3.095   2.235 -0.4067 -0.8508 -0.5296
 6314TIP3    H143137   6.197   3.012   2.187  0.9272 -0.8501 -0.4949
 6314TIP3    H243138   6.201   3.071   2.327 -1.1120 -0.7476 -0.4413
 6315TIP3   OH243139   5.578   1.693   0.274  0.2112  0.5061  0.0117
 6315TIP3    H143140   5.663   1.672   0.235  0.3169  2.0241 -0.6782
 6315TIP3    H243141   5.597   1.761   0.338 -0.2634 -0.4478  1.2099
 6316TIP3   OH243142   1.279   3.246   0.193 -0.2175  0.1166  0.2174
 6316TIP3    H143143   1.266   3.276   0.103 -0.2588 -0.8354 -0.1095
 6316TIP3    H243144   1.272   3.325   0.246 -1.1469  0.5589 -0.5297
 6317TIP3   OH243145   5.373   3.171   9.370 -0.0422 -0.4822 -0.5349
 6317TIP3    H143146   5.451   3.127   9.337  0.2938 -0.3903  0.1150
 6317TIP3    H243147   5.358   3.132   9.456 -1.2373 -1.1314 -1.0119
 6318TIP3   OH243148   3.165   1.110   1.806  0.4705  0.5215  0.1092
 6318TIP3    H143149   3.215   1.185   1.838  1.3482  0.0916 -0.2214
 6318TIP3    H243150   3.214   1.034   1.837  1.4078  0.0739 -2.2174
 6319TIP3   OH243151   0.360   1.880   0.315  0.0752 -0.0067  0.5327
 6319TIP3    H143152   0.430   1.907   0.256  0.7285  0.5889  1.5423
 6319TIP3    H243153   0.307   1.959   0.327  1.6871  0.8112  3.0802
 6320TIP3   OH243154   2.670   1.863   1.567  0.5250  0.2078  0.0320
 6320TIP3    H143155   2.714   1.786   1.530 -2.2554 -0.6010 -2.0080
 6320TIP3    H243156   2.577   1.849   1.546 -0.2347  3.6494  0.5076
 6321TIP3   OH243157   2.646   5.326   0.026 -0.2404  0.0114 -0.2383
 6321TIP3    H143158   2.711   5.396   0.033  0.4691 -0.4186 -1.9483
 6321TIP3    H243159   2.575   5.353   0.084  0.5064  1.5900 -0.0088
 6322TIP3   OH243160   0.453   0.218   0.326 -0.5842 -0.8938  0.1461
 6322TIP3    H143161   0.385   0.211   0.393 -0.9836 -1.4544 -0.2994
 6322TIP3    H243162   0.445   0.137   0.276 -0.1792 -0.5594 -0.4749
 6323TIP3   OH243163   2.391   7.407   0.362 -0.5087 -0.4771 -0.0470
 6323TIP3    H143164   2.467   7.378   0.311 -1.4370 -1.9736 -0.6257
 6323TIP3    H243165   2.328   7.437   0.297 -0.4693  0.7269  0.4320
 6324TIP3   OH243166   0.070   3.628   0.486 -0.0178  0.1439 -0.1338
 6324TIP3    H143167  -0.011   3.679   0.477 -0.1068  0.7748  2.9724
 6324TIP3    H243168   0.058   3.580   0.568  2.2230 -0.7965 -0.2999
 6325TIP3   OH243169   0.552   1.608   1.377 -0.9285 -0.4992 -0.2427
 6325TIP3    H143170   0.610   1.586   1.303 -2.3897 -1.3972 -1.1718
 6325TIP3    H243171   0.488   1.669   1.340 -0.2130  1.0313  0.9514
 6326TIP3   OH243172   1.547   0.579   1.577  0.6542 -0.3833  0.3048
 6326TIP3    H143173   1.565   0.631   1.656  1.5977 -0.3840  0.1062
 6326TIP3    H243174   1.461   0.541   1.592 -0.6733  2.2225 -0.0678
 6327TIP3   OH243175   1.877   4.313   8.579  0.0464 -0.3287 -0.4427
 6327TIP3    H143176   1.901   4.220   8.575 -0.3381 -0.5996  1.9218
 6327TIP3    H243177   1.794   4.318   8.532  0.0245 -1.2058 -0.5226
 6328TIP3   OH243178   0.819   2.873   9.156  0.1832  0.0226  0.4287
 6328TIP3    H143179   0.788   2.790   9.192 -1.4023  0.0702 -0.7377
 6328TIP3    H243180   0.863   2.916   9.230  0.8102 -1.7189  1.1132
 6329TIP3   OH243181   5.940   4.346   9.436 -0.6082  0.5958 -0.5966
 6329TIP3    H143182   6.009   4.322   9.375 -2.0154 -0.7004 -1.7694
 6329TIP3    H243183   5.972   4.425   9.479  1.6625 -0.0577 -0.9459
 6330TIP3   OH243184   0.695   1.035   1.759  0.2175 -0.2940  0.0757
 6330TIP3    H143185   0.606   1.067   1.749 -0.3361 -2.0147 -0.9495
 6330TIP3    H243186   0.747   1.088   1.699 -0.4991 -0.6669 -0.8854
 6331TIP3   OH243187   6.469   6.114   0.832  0.1409  0.1840  0.5602
 6331TIP3    H143188   6.534   6.049   0.803 -0.9724 -0.7571  0.0670
 6331TIP3    H243189   6.489   6.193   0.782  0.2399 -0.4350 -0.3998
 6332TIP3   OH243190   0.277   2.460   0.148 -0.9658  0.1437 -0.1528
 6332TIP3    H143191   0.217   2.526   0.112 -3.1899 -1.7198 -0.1041
 6332TIP3    H243192   0.353   2.510   0.175 -1.3075  2.3259 -2.7247
 6333TIP3   OH243193   1.634   1.910   1.503 -0.3079 -0.3382  0.4273
 6333TIP3    H143194   1.700   1.938   1.440 -2.7964  2.7203 -1.0913
 6333TIP3    H243195   1.670   1.830   1.541  3.0944 -0.1955 -2.0191
 6334TIP3   OH243196   3.300   7.133   1.528  0.1803  0.0441 -0.0251
 6334TIP3    H143197   3.381   7.167   1.490 -1.1761  1.8662 -1.4974
 6334TIP3    H243198   3.308   7.038   1.521  1.2506  0.2436 -2.2224
 6335TIP3   OH243199   0.910   2.371   8.803  0.1136 -0.0872 -0.0118
 6335TIP3    H143200   0.826   2.325   8.803 -0.0263  0.0439  2.4442
 6335TIP3    H243201   0.973   2.307   8.770 -0.4593 -1.3257  1.1913
 6336TIP3   OH243202   2.612   1.491   0.068 -0.5906  0.1580  0.1843
 6336TIP3    H143203   2.531   1.511   0.115 -0.2887 -0.7099  1.1143
 6336TIP3    H243204   2.641   1.407   0.105  1.2204  0.8842  0.5150
 6337TIP3   OH243205   1.193   6.572   7.516 -0.7552 -0.5276  0.1953
 6337TIP3    H143206   1.269   6.627   7.535 -0.5691 -0.2595 -1.2537
 6337TIP3    H243207   1.118   6.624   7.545 -0.5437  0.2855 -0.6758
 6338TIP3   OH243208   4.762   6.798   1.387 -0.4156 -0.5257 -0.0635
 6338TIP3    H143209   4.764   6.753   1.472  3.2544 -0.9263 -0.1996
 6338TIP3    H243210   4.780   6.889   1.408  0.1996 -0.5741 -0.3779
 6339TIP3   OH243211   3.688   0.868   1.367  0.0524  0.1389  0.3679
 6339TIP3    H143212   3.734   0.908   1.293  0.8430  0.0051  0.7817
 6339TIP3    H243213   3.648   0.943   1.413  0.3007  0.3100  0.3072
 6340TIP3   OH243214   7.359   0.188   2.872 -0.1088  0.0095  0.4832
 6340TIP3    H143215   7.295   0.174   2.803  0.8829  0.1711 -0.4911
 6340TIP3    H243216   7.307   0.213   2.948 -1.1591  0.6289 -0.4153
 6341TIP3   OH243217   0.306   2.031   8.023 -0.1500 -0.2436 -0.2253
 6341TIP3    H143218   0.376   2.025   8.088  0.8998 -0.3397 -1.3244
 6341TIP3    H243219   0.264   1.945   8.025 -0.6700  0.0236  0.8922
 6342TIP3   OH243220   2.077   7.190   8.893 -0.1313  0.1212  0.2601
 6342TIP3    H143221   2.144   7.245   8.933  1.0203 -0.0095 -1.3824
 6342TIP3    H243222   2.038   7.246   8.825 -1.2210 -0.0414  0.7317
 6343TIP3   OH243223   6.327   2.584   9.311 -0.3114  0.1783  0.2202
 6343TIP3    H143224   6.384   2.588   9.235 -0.3620 -1.2280  0.0794
 6343TIP3    H243225   6.307   2.491   9.322 -1.2343  0.4653  1.2627
 6344TIP3   OH243226   1.601   5.851   9.593  0.3762  0.0145  0.0710
 6344TIP3    H143227   1.591   5.870   9.686  1.5836 -0.4576  0.3249
 6344TIP3    H243228   1.525   5.798   9.570 -0.6180  1.2389  0.4523
 6345TIP3   OH243229   1.642   4.222   0.814  0.0868  0.3233 -0.2613
 6345TIP3    H143230   1.675   4.210   0.903 -0.1120  0.9005 -0.1038
 6345TIP3    H243231   1.657   4.138   0.771 -0.8201 -0.3260  0.6470
 6346TIP3   OH243232   0.130   7.370   7.471  0.3335  0.0882 -0.1374
 6346TIP3    H143233   0.153   7.415   7.390 -0.7060 -3.1707 -2.4397
 6346TIP3    H243234   0.211   7.327   7.499  0.6823  1.1818  0.6163
 6347TIP3   OH243235   1.482   0.153   9.464  0.4565  0.3189 -0.0674
 6347TIP3    H143236   1.556   0.147   9.524  1.6092 -0.6941 -1.4888
 6347TIP3    H243237   1.497   0.235   9.416 -1.3372  1.9911  1.9975
 6348TIP3   OH243238   5.580   0.588   9.289  0.6454  0.1317 -0.1710
 6348TIP3    H143239   5.516   0.610   9.356 -0.2128  0.8136 -1.1890
 6348TIP3    H243240   5.597   0.495   9.302  0.4723  0.2510  0.9667
 6349TIP3   OH243241   4.703   6.529   8.547 -0.1306 -0.2527  0.0852
 6349TIP3    H143242   4.643   6.558   8.478 -1.3471 -0.8673  0.8485
 6349TIP3    H243243   4.766   6.474   8.502 -0.3438  0.1115 -0.6834
 6350TIP3   OH243244   4.466   2.664   0.564  0.1533  0.1527 -0.2823
 6350TIP3    H143245   4.454   2.587   0.507 -0.9222 -0.1132  0.2614
 6350TIP3    H243246   4.410   2.731   0.525  0.9604  0.6150 -0.6577
 6351TIP3   OH243247   5.746   6.719   2.000  0.4687  0.0982 -0.3655
 6351TIP3    H143248   5.751   6.639   1.947  0.8455 -0.7838  0.9679
 6351TIP3    H243249   5.711   6.690   2.084  0.5211  1.3632  0.1070
 6352TIP3   OH243250   3.878   1.641   8.042 -0.1608 -0.0012 -0.3962
 6352TIP3    H143251   3.861   1.554   8.005  0.5176 -0.2372 -0.1675
 6352TIP3    H243252   3.799   1.660   8.094 -0.0929 -0.7216 -0.0135
 6353TIP3   OH243253   3.837   4.815   0.976  0.0089  0.2546  0.2956
 6353TIP3    H143254   3.868   4.873   0.907 -2.2178  2.6008  1.1356
 6353TIP3    H243255   3.850   4.727   0.941  1.2986  1.2948 -2.0152
 6354TIP3   OH243256   6.171   0.429   9.409 -0.6214 -0.5568  0.2370
 6354TIP3    H143257   6.242   0.364   9.414 -0.1395  0.0121  0.8259
 6354TIP3    H243258   6.130   0.426   9.495 -3.0526 -2.7757 -0.8508
 6355TIP3   OH243259   0.561   1.402   0.829  0.2577 -0.2781 -0.4376
 6355TIP3    H143260   0.627   1.333   0.823  0.4707 -0.1136 -0.0519
 6355TIP3    H243261   0.609   1.483   0.808  0.0489 -0.2270 -0.7176
 6356TIP3   OH243262   6.977   3.843   8.272  0.2748  0.3940  0.2156
 6356TIP3    H143263   6.926   3.862   8.193  1.4322 -0.1162 -0.6809
 6356TIP3    H243264   7.047   3.785   8.242  0.1332 -0.6570  1.8242
 6357TIP3   OH243265   1.420   5.297   2.578 -0.0678 -0.3943  0.1902
 6357TIP3    H143266   1.357   5.225   2.573 -0.7493  0.0594  1.6742
 6357TIP3    H243267   1.371   5.370   2.615  0.7852  0.6511 -0.6741
 6358TIP3   OH243268   3.558   3.751   2.115  0.2564  0.2483  0.1209
 6358TIP3    H143269   3.512   3.725   2.195  0.8292  2.0602  1.1100
 6358TIP3    H243270   3.500   3.725   2.044 -0.7674 -0.4456  1.1711
 6359TIP3   OH243271   6.001   0.818   9.634 -0.1810  0.1488 -0.7248
 6359TIP3    H143272   6.031   0.904   9.666 -2.5538  1.9134 -2.7877
 6359TIP3    H243273   5.928   0.796   9.692  0.9382 -0.9596  0.3161
 6360TIP3   OH243274   6.213   1.403   1.282  0.0402 -0.2155 -0.0528
 6360TIP3    H143275   6.139   1.399   1.341 -0.2138  1.5496 -0.1950
 6360TIP3    H243276   6.174   1.409   1.195  0.3886 -0.7386 -0.2548
 6361TIP3   OH243277   0.623   6.100   2.199 -0.1144  0.7580 -0.1760
 6361TIP3    H143278   0.685   6.168   2.227  1.3168 -0.5379 -0.0360
 6361TIP3    H243279   0.584   6.068   2.280  1.2076 -0.3763  0.0626
 6362TIP3   OH243280   6.056   1.929   6.751  0.0752 -0.4388  0.3427
 6362TIP3    H143281   6.092   2.010   6.787 -0.4705  0.3913 -0.9464
 6362TIP3    H243282   5.978   1.912   6.804 -0.7485  0.8030 -0.4092
 6363TIP3   OH243283   5.231   4.584   9.348  0.2285 -0.0091 -0.2024
 6363TIP3    H143284   5.181   4.637   9.411  1.2836 -0.1466  0.8057
 6363TIP3    H243285   5.187   4.499   9.348  0.1152  0.0445  0.2291
 6364TIP3   OH243286   1.049   4.924   8.634 -0.4186  0.5045  0.2094
 6364TIP3    H143287   0.962   4.922   8.674 -0.2206  1.2809  0.6986
 6364TIP3    H243288   1.109   4.934   8.707 -0.1157  3.1759 -0.2978
 6365TIP3   OH243289   0.564   1.862   8.139 -0.1767  0.0591 -0.6006
 6365TIP3    H143290   0.600   1.921   8.072 -1.9276  0.0170 -1.6442
 6365TIP3    H243291   0.544   1.782   8.091 -2.2497  0.3179 -0.2419
 6366TIP3   OH243292   7.331   6.089   2.084  0.0335  0.0962  0.3560
 6366TIP3    H143293   7.242   6.118   2.103 -0.9651 -1.6707 -1.2367
 6366TIP3    H243294   7.372   6.079   2.170 -0.4907  3.1041  1.0588
 6367TIP3   OH243295   4.628   5.308   6.584 -0.1338  0.2588 -0.2239
 6367TIP3    H143296   4.712   5.326   6.626  0.0156 -2.3475  0.7523
 6367TIP3    H243297   4.648   5.245   6.515 -1.3137 -0.6050  0.1972
 6368TIP3   OH243298   4.988   1.812   8.490  0.3569  0.3804 -0.2107
 6368TIP3    H143299   4.996   1.763   8.408 -1.4260  1.7262 -1.2780
 6368TIP3    H243300   4.903   1.785   8.525  1.4576 -0.8165  1.6943
 6369TIP3   OH243301   7.228   2.661   0.945 -0.3342 -0.1421  0.1021
 6369TIP3    H143302   7.144   2.681   0.903 -1.3911 -1.3412  1.5135
 6369TIP3    H243303   7.239   2.730   1.010 -0.0648  0.1777 -0.2771
 6370TIP3   OH243304   5.459   2.197   8.997  0.3806  0.3359  0.2517
 6370TIP3    H143305   5.506   2.213   8.916 -0.4293  0.6807 -0.1703
 6370TIP3    H243306   5.385   2.142   8.971 -0.2134  0.9341  0.6409
 6371TIP3   OH243307   2.568   5.490   1.571 -0.0703  0.5551  0.2497
 6371TIP3    H143308   2.477   5.509   1.551 -0.0632  0.8908  0.5304
 6371TIP3    H243309   2.580   5.521   1.660  0.0310 -0.4791  0.6096
 6372TIP3   OH243310   0.793   7.120   1.730 -0.1854 -0.2545 -0.6788
 6372TIP3    H143311   0.876   7.077   1.708 -0.1753 -0.9921  0.6636
 6372TIP3    H243312   0.748   7.057   1.786 -1.0043  0.7610 -0.1589
 6373TIP3   OH243313   3.421   6.802   0.406  0.9555 -0.4783 -0.0124
 6373TIP3    H143314   3.393   6.727   0.352  2.0569 -0.8946 -0.0254
 6373TIP3    H243315   3.351   6.811   0.471  1.1523 -2.0013  0.4624
 6374TIP3   OH243316   2.249   6.945   7.630  0.1469  0.0713 -0.5733
 6374TIP3    H143317   2.265   7.005   7.704 -1.3551 -0.7684  0.4940
 6374TIP3    H243318   2.273   6.996   7.553 -0.9425  2.0540  0.2936
 6375TIP3   OH243319   1.568   1.168   8.237 -0.4389  0.3417  0.2813
 6375TIP3    H143320   1.517   1.249   8.247 -0.1380  0.5274  0.3223
 6375TIP3    H243321   1.562   1.125   8.322  0.9464  1.2324  0.8638
 6376TIP3   OH243322   5.398   0.759   1.919  0.2764 -0.4381  0.2484
 6376TIP3    H143323   5.314   0.715   1.937 -0.0924  0.3977  0.5899
 6376TIP3    H243324   5.422   0.799   2.002  0.1882  0.7238 -0.2760
 6377TIP3   OH243325   1.008   1.639   0.065 -0.5752 -0.2130  0.5513
 6377TIP3    H143326   0.936   1.662   0.006 -1.5086 -0.4484  1.5702
 6377TIP3    H243327   0.970   1.574   0.124  0.0053  0.7937  2.0890
 6378TIP3   OH243328   1.418   3.420   2.385  0.4377 -0.2528  0.4826
 6378TIP3    H143329   1.445   3.475   2.311 -0.6844 -0.4089 -0.0607
 6378TIP3    H243330   1.424   3.478   2.461 -2.2664  1.2228 -0.2722
 6379TIP3   OH243331   5.476   3.773   9.188  0.3927 -0.1477 -0.0536
 6379TIP3    H143332   5.442   3.862   9.195 -1.4786 -0.6900 -1.4054
 6379TIP3    H243333   5.429   3.724   9.255 -0.2793 -0.5675 -0.8221
 6380TIP3   OH243334   1.159   3.809   1.166  0.0257 -0.4972  0.0305
 6380TIP3    H143335   1.178   3.903   1.173 -1.0588 -0.2638 -0.0648
 6380TIP3    H243336   1.083   3.796   1.222  0.2884 -1.3657  0.1948
 6381TIP3   OH243337   0.369   4.429   1.432 -0.4222 -0.1914 -0.2156
 6381TIP3    H143338   0.361   4.372   1.355  0.4465 -0.1751 -0.3247
 6381TIP3    H243339   0.461   4.453   1.435 -0.5129  0.0919  0.6358
 6382TIP3   OH243340   0.281   3.673   1.091 -0.2352 -0.2530 -0.1082
 6382TIP3    H143341   0.331   3.592   1.085 -0.9764 -0.7883  0.6992
 6382TIP3    H243342   0.265   3.685   1.185  0.6174  1.3076 -0.1301
 6383TIP3   OH243343   6.471   3.530   0.767  0.2624  0.5678  0.2632
 6383TIP3    H143344   6.540   3.465   0.760 -0.8814 -0.7048  0.5072
 6383TIP3    H243345   6.392   3.480   0.788 -0.1077  2.2689  3.5766
 6384TIP3   OH243346   1.888   2.859   6.645  0.4377 -0.1862  0.3009
 6384TIP3    H143347   1.869   2.886   6.555 -0.0675 -0.4083  0.3415
 6384TIP3    H243348   1.824   2.905   6.698  2.0848  1.6944  0.8009
 6385TIP3   OH243349   5.910   3.461   2.270 -0.5358 -0.5915  0.1949
 6385TIP3    H143350   5.884   3.445   2.361  0.4008 -0.8654  0.4254
 6385TIP3    H243351   5.916   3.374   2.231  0.3367 -0.5645  0.2451
 6386TIP3   OH243352   6.000   0.915   1.603 -0.2040  0.1779 -0.8346
 6386TIP3    H143353   6.093   0.928   1.624 -0.6237  1.0059  0.6572
 6386TIP3    H243354   5.973   0.845   1.663 -0.8825  0.9669 -0.2022
 6387TIP3   OH243355   5.514   6.989   9.179  0.5967 -0.0024  0.0542
 6387TIP3    H143356   5.467   6.905   9.175  0.6693 -0.0267 -2.8792
 6387TIP3    H243357   5.448   7.053   9.204 -0.2850 -0.5041 -0.9046
 6388TIP3   OH243358   2.268   3.430   1.648 -0.2014  0.2149 -0.0932
 6388TIP3    H143359   2.205   3.384   1.704  0.3230 -0.6989 -0.2360
 6388TIP3    H243360   2.299   3.363   1.587  0.4813  0.7984 -0.4024
 6389TIP3   OH243361   6.557   6.221   7.814  0.1012  0.2609 -0.3132
 6389TIP3    H143362   6.547   6.166   7.737 -0.5031 -0.8742  0.5476
 6389TIP3    H243363   6.534   6.309   7.784 -0.5151 -0.2291 -1.3272
 6390TIP3   OH243364   0.772   1.994   9.283  0.2106 -0.3319 -0.5193
 6390TIP3    H143365   0.735   2.057   9.345  1.1102 -0.6569  0.3850
 6390TIP3    H243366   0.800   2.048   9.209 -0.8249  0.0708 -0.6344
 6391TIP3   OH243367   3.679   3.451   0.261  0.1350  0.3698 -0.0998
 6391TIP3    H143368   3.715   3.495   0.338  0.6865 -0.9069  0.4020
 6391TIP3    H243369   3.727   3.488   0.187 -0.1759  1.3813  0.1946
 6392TIP3   OH243370   2.625   5.895   1.858 -0.3086 -0.6352 -0.3386
 6392TIP3    H143371   2.671   5.867   1.937  1.3929  0.5866 -0.8333
 6392TIP3    H243372   2.554   5.951   1.889  1.0404  0.7730  0.3284
 6393TIP3   OH243373   7.190   4.590   2.431 -0.2379 -1.1018  0.3271
 6393TIP3    H143374   7.154   4.581   2.343 -0.1008 -0.5991  0.2165
 6393TIP3    H243375   7.239   4.509   2.446  1.2782 -0.4187 -0.7771
 6394TIP3   OH243376   1.855   1.135   8.225  0.3015  0.4163  0.0059
 6394TIP3    H143377   1.825   1.075   8.157  1.2631 -1.5431  1.2168
 6394TIP3    H243378   1.775   1.170   8.264 -0.3737 -1.3583  0.3231
 6395TIP3   OH243379   5.905   2.845   6.774  0.3604 -0.3647 -0.1722
 6395TIP3    H143380   5.850   2.900   6.719  0.4780  1.1474  1.1667
 6395TIP3    H243381   5.992   2.883   6.768  0.6727 -1.0348 -0.0319
 6396TIP3   OH243382   0.364   0.378   9.265  0.3771  1.2821 -0.3638
 6396TIP3    H143383   0.459   0.395   9.264  0.9534 -1.0919  2.3039
 6396TIP3    H243384   0.329   0.444   9.325  0.5150  1.3964 -0.4051
 6397TIP3   OH243385   5.957   6.629   7.682 -0.6979 -0.1079  0.0571
 6397TIP3    H143386   6.034   6.580   7.710 -0.0759  1.7792  1.9339
 6397TIP3    H243387   5.887   6.602   7.742  0.1154  2.4321  2.3941
 6398TIP3   OH243388   3.207   3.149   0.205  0.2727 -0.2571 -0.1116
 6398TIP3    H143389   3.247   3.207   0.140  0.9823 -1.3364 -0.6590
 6398TIP3    H243390   3.184   3.070   0.157 -1.3552 -0.1910  0.4690
 6399TIP3   OH243391   5.754   2.000   1.096 -0.4063 -0.5645  0.2233
 6399TIP3    H143392   5.672   1.968   1.059  0.7429 -3.3541 -0.2542
 6399TIP3    H243393   5.815   1.999   1.021  0.1144  1.3344  0.5857
 6400TIP3   OH243394   6.684   0.906   0.850  0.3011 -0.2080  0.5037
 6400TIP3    H143395   6.742   0.944   0.783 -0.6754 -0.0328 -0.2682
 6400TIP3    H243396   6.653   0.981   0.900 -0.7881 -0.0564 -0.3458
 6401TIP3   OH243397   1.447   5.458   1.261 -0.6685  0.3046  0.1342
 6401TIP3    H143398   1.445   5.447   1.166 -0.3160 -3.2269  0.3876
 6401TIP3    H243399   1.536   5.434   1.286 -1.5297 -1.7532  1.5240
 6402TIP3   OH243400   3.855   1.420   8.707 -0.1627  0.6632 -0.0506
 6402TIP3    H143401   3.884   1.421   8.798 -1.5727  0.3394  0.4223
 6402TIP3    H243402   3.870   1.509   8.676 -0.9942  1.1620  0.9438
 6403TIP3   OH243403   5.217   3.886   1.211  0.4226  0.1040 -0.6334
 6403TIP3    H143404   5.164   3.913   1.286  0.1748 -0.2816 -0.6679
 6403TIP3    H243405   5.282   3.956   1.201  1.4601 -0.5719  0.9177
 6404TIP3   OH243406   5.360   2.008   8.003 -0.1525  0.3707  0.0926
 6404TIP3    H143407   5.268   2.037   8.006  0.2954  1.9072 -0.2933
 6404TIP3    H243408   5.362   1.932   8.060 -1.6590  0.3473  0.1734
 6405TIP3   OH243409   0.500   0.260   6.932  0.7310 -0.6914  0.5643
 6405TIP3    H143410   0.565   0.190   6.920  1.1388 -0.1520 -0.5261
 6405TIP3    H243411   0.416   0.216   6.921  0.9146 -1.3190  1.5764
 6406TIP3   OH243412   3.214   3.475   8.682  0.3297 -0.5476 -0.1299
 6406TIP3    H143413   3.162   3.440   8.753  1.3233  2.1733  2.1269
 6406TIP3    H243414   3.150   3.512   8.621 -0.4960  0.2602  1.1786
 6407TIP3   OH243415   5.608   5.309   7.232 -0.8861  0.2651  0.4627
 6407TIP3    H143416   5.582   5.232   7.182 -1.4846  0.4418  0.4942
 6407TIP3    H243417   5.570   5.383   7.185  0.3302  0.6276 -0.0031
 6408TIP3   OH243418   3.545   3.617   7.494  0.4163 -0.0164 -0.4198
 6408TIP3    H143419   3.549   3.560   7.570  0.3113  1.5498  0.8038
 6408TIP3    H243420   3.465   3.591   7.448 -1.5658  1.3912  2.0211
 6409TIP3   OH243421   1.153   5.233   1.244 -0.4343 -0.7576 -0.0630
 6409TIP3    H143422   1.230   5.221   1.188  0.8276 -1.1636  1.6689
 6409TIP3    H243423   1.088   5.274   1.187  0.5896 -1.6175 -1.9404
 6410TIP3   OH243424   6.744   7.161   9.328 -0.5710 -0.3936 -0.2498
 6410TIP3    H143425   6.685   7.143   9.255  1.8715 -2.0707 -1.9738
 6410TIP3    H243426   6.798   7.083   9.335  1.2742  0.9353  1.4030
 6411TIP3   OH243427   3.720   2.459   2.005  0.2422 -0.0966 -0.2435
 6411TIP3    H143428   3.785   2.479   1.938 -1.7852  0.9009 -1.9987
 6411TIP3    H243429   3.724   2.364   2.014 -0.4723 -0.4596 -2.9460
 6412TIP3   OH243430   6.094   5.294   1.938  0.3478 -0.3248 -0.2130
 6412TIP3    H143431   6.048   5.261   1.860 -2.3240  0.3813  0.9508
 6412TIP3    H243432   6.081   5.388   1.935  1.5414 -0.1309  0.3335
 6413TIP3   OH243433   7.170   2.744   7.771  0.1517  0.7086 -1.1379
 6413TIP3    H143434   7.247   2.799   7.784 -0.1248  0.7165  0.7501
 6413TIP3    H243435   7.106   2.802   7.731  1.0294  0.7614 -2.5220
 6414TIP3   OH243436   1.341   2.477   0.599 -0.0275 -0.1323  0.3242
 6414TIP3    H143437   1.337   2.465   0.694  1.0871  0.8917  0.5205
 6414TIP3    H243438   1.251   2.460   0.569 -0.2961 -0.8811  1.4971
 6415TIP3   OH243439   3.281   0.458   7.754  0.5680 -0.1206 -0.5933
 6415TIP3    H143440   3.320   0.414   7.829 -0.1577 -0.6997 -0.5378
 6415TIP3    H243441   3.354   0.472   7.694  1.6079  2.3273  1.1006
 6416TIP3   OH243442   7.359   4.221   8.466 -0.1465 -0.7074  1.0680
 6416TIP3    H143443   7.452   4.198   8.472  0.6619  2.1256  0.6978
 6416TIP3    H243444   7.325   4.202   8.554  1.1667 -0.3328  1.6961
 6417TIP3   OH243445   1.987   5.880   1.094 -0.0461 -0.3489 -0.3891
 6417TIP3    H143446   1.899   5.889   1.132 -0.3576  1.0482 -1.3831
 6417TIP3    H243447   1.987   5.793   1.054 -1.9138  0.5437 -2.5688
 6418TIP3   OH243448   5.949   5.262   0.936  0.1997  0.1068  0.0062
 6418TIP3    H143449   5.870   5.268   0.990 -1.1034 -1.4598 -1.5913
 6418TIP3    H243450   5.965   5.352   0.906  0.1912  0.7636  1.8943
 6419TIP3   OH243451   0.948   2.170   7.941  0.5900 -0.1651 -0.2071
 6419TIP3    H143452   0.944   2.253   7.893  2.2650 -0.4162 -0.8588
 6419TIP3    H243453   0.974   2.106   7.875  0.9187 -0.9136  0.6319
 6420TIP3   OH243454   2.528   0.562   2.227 -0.2350 -0.2591  0.2731
 6420TIP3    H143455   2.570   0.585   2.144 -0.6784  0.0549  0.1312
 6420TIP3    H243456   2.599   0.560   2.290  0.0993 -0.4552 -0.1051
 6421TIP3   OH243457   5.859   5.368   7.710  0.3359 -0.0259 -0.2608
 6421TIP3    H143458   5.919   5.430   7.668 -0.0155  1.6582  1.5644
 6421TIP3    H243459   5.916   5.297   7.741  1.0649  0.4423 -0.4901
 6422TIP3   OH243460   1.513   5.353   6.536 -0.0475  0.3602  0.0937
 6422TIP3    H143461   1.571   5.428   6.546 -2.5924  2.5163 -0.1377
 6422TIP3    H243462   1.453   5.378   6.465  1.1206 -3.4060 -2.5391
 6423TIP3   OH243463   6.908   7.113   0.576 -0.1611 -0.1049  0.4561
 6423TIP3    H143464   6.883   7.031   0.618 -0.6389 -0.0663  0.2559
 6423TIP3    H243465   7.001   7.103   0.556 -0.2154 -0.5912  0.4396
 6424TIP3   OH243466   0.632   0.959   7.297  0.1950 -0.3453  0.6851
 6424TIP3    H143467   0.637   0.967   7.202  1.3645 -0.2318  0.7313
 6424TIP3    H243468   0.688   1.030   7.329 -0.1324 -0.4323  1.4506
 6425TIP3   OH243469   3.834   3.864   8.832  0.1894 -0.4479 -0.3734
 6425TIP3    H143470   3.856   3.892   8.921  0.6298 -0.0162 -0.6145
 6425TIP3    H243471   3.913   3.820   8.801  0.2099 -0.1590 -0.7310
 6426TIP3   OH243472   6.473   6.655   9.092  0.1423  0.8914 -0.5238
 6426TIP3    H143473   6.512   6.736   9.059  1.4211  1.1465  1.4785
 6426TIP3    H243474   6.433   6.680   9.176 -0.0801 -0.3953 -0.2289
 6427TIP3   OH243475   2.998   4.960   2.361  0.1804 -0.1510 -0.3360
 6427TIP3    H143476   3.033   5.037   2.318  1.0104 -0.9791 -1.1775
 6427TIP3    H243477   2.975   4.990   2.449 -0.2970  1.2422 -0.9099
 6428TIP3   OH243478   0.655   0.433   9.063  0.0793  0.1808  1.0312
 6428TIP3    H143479   0.711   0.412   9.137  0.0861  0.0112  0.9775
 6428TIP3    H243480   0.637   0.527   9.072  1.2079  0.4604  0.4690
 6429TIP3   OH243481   3.974   5.660   7.409  0.4214  0.2532  0.0669
 6429TIP3    H143482   4.068   5.674   7.396  0.0688  1.8471 -1.0680
 6429TIP3    H243483   3.950   5.723   7.478  0.3998 -1.0709  1.3061
 6430TIP3   OH243484   2.360   4.663   7.900 -0.2316 -0.6873 -0.0230
 6430TIP3    H143485   2.414   4.586   7.883  1.6208 -0.1095  2.7066
 6430TIP3    H243486   2.300   4.635   7.969  0.0225  0.0994  0.5315
 6431TIP3   OH243487   1.378   4.388   7.464 -0.0845  0.3797  0.0319
 6431TIP3    H143488   1.445   4.420   7.404 -1.9494  2.2365 -1.2093
 6431TIP3    H243489   1.330   4.466   7.491 -2.3799 -0.9339  0.0426
 6432TIP3   OH243490   5.322   1.451   0.174  0.1871 -0.1590  0.0126
 6432TIP3    H143491   5.295   1.475   0.263 -0.6994  0.2958 -0.3631
 6432TIP3    H243492   5.338   1.535   0.131 -1.3754 -0.2532 -0.8425
 6433TIP3   OH243493   5.683   6.989   7.984  0.5919 -0.2575  0.1070
 6433TIP3    H143494   5.607   7.040   8.014  0.0244 -0.2079 -1.3591
 6433TIP3    H243495   5.758   7.045   8.007  0.1614  0.0262  0.9041
 6434TIP3   OH243496   5.830   3.895   2.297 -0.0347  0.7954  0.0829
 6434TIP3    H143497   5.738   3.897   2.271 -0.1349 -0.6262  0.2491
 6434TIP3    H243498   5.877   3.933   2.223 -0.6825  0.8137 -0.3259
 6435TIP3   OH243499   3.652   4.331   9.485 -0.1629  0.6069 -0.0037
 6435TIP3    H143500   3.728   4.274   9.471  1.1523  2.5836 -1.3835
 6435TIP3    H243501   3.596   4.316   9.408 -0.5505  0.1051  0.3709
 6436TIP3   OH243502   0.100   1.954   9.314  0.2466 -0.1801 -0.0828
 6436TIP3    H143503   0.126   1.876   9.362 -0.2738  0.1454  0.7513
 6436TIP3    H243504   0.147   1.948   9.231  0.2964 -1.3124  0.0165
 6437TIP3   OH243505   2.392   4.451   2.609  0.5250 -0.2305 -0.1471
 6437TIP3    H143506   2.363   4.364   2.580 -1.8598 -0.0004  1.2458
 6437TIP3    H243507   2.466   4.434   2.667  1.8434 -1.0703 -1.9613
 6438TIP3   OH243508   7.382   6.553   7.738  0.3238  0.9106  0.4650
 6438TIP3    H143509   7.421   6.610   7.672  0.0675 -0.3991 -0.8746
 6438TIP3    H243510   7.456   6.510   7.780  0.4720 -0.9245 -1.4800
 6439TIP3   OH243511   3.042   1.916   2.211  1.2099  0.4117  0.6139
 6439TIP3    H143512   3.119   1.891   2.263  0.5823 -1.7308  0.6098
 6439TIP3    H243513   2.979   1.947   2.276  0.2915 -2.5981  1.3393
 6440TIP3   OH243514   1.777   4.606   8.286  0.2992 -0.7361  0.1258
 6440TIP3    H143515   1.715   4.538   8.313 -0.6400  0.1246  0.2123
 6440TIP3    H243516   1.741   4.641   8.204  0.4113  0.0971  0.4204
 6441TIP3   OH243517   5.620   2.466   7.444 -0.1823 -0.2446 -0.1265
 6441TIP3    H143518   5.555   2.410   7.486 -2.2815  0.6698 -1.9489
 6441TIP3    H243519   5.693   2.407   7.424 -0.6648 -1.4340  1.4612
 6442TIP3   OH243520   3.686   1.859   7.663  0.4488 -0.0397  0.0422
 6442TIP3    H143521   3.702   1.817   7.579  1.5411  1.8879 -0.7651
 6442TIP3    H243522   3.591   1.851   7.676  0.4158 -1.3317 -0.7949
 6443TIP3   OH243523   6.875   4.746   9.025  0.0065 -0.2251 -0.0417
 6443TIP3    H143524   6.814   4.700   8.968 -0.1328 -0.1720  0.0650
 6443TIP3    H243525   6.955   4.756   8.972  0.0544 -0.6318 -0.0488
 6444TIP3   OH243526   6.087   4.258   1.508  0.1582 -0.0281  0.1682
 6444TIP3    H143527   6.051   4.186   1.455  0.3636  2.0904 -3.1311
 6444TIP3    H243528   6.153   4.298   1.452 -0.7236  3.4200  1.3642
 6445TIP3   OH243529   4.826   2.162   7.568  0.2961  0.2946  0.0893
 6445TIP3    H143530   4.782   2.175   7.653  1.4734 -0.7596  0.8922
 6445TIP3    H243531   4.828   2.249   7.529 -0.2102  0.8129  1.1768
 6446TIP3   OH243532   1.420   3.354   9.078 -0.0635  0.8303  0.1040
 6446TIP3    H143533   1.351   3.295   9.109 -0.1799  0.9363  0.0485
 6446TIP3    H243534   1.413   3.431   9.135  0.9661  0.2447  1.0718
 6447TIP3   OH243535   1.211   3.958   0.335 -0.0545 -0.0050 -0.4737
 6447TIP3    H143536   1.232   3.865   0.345 -1.4012 -0.2305  0.5564
 6447TIP3    H243537   1.125   3.958   0.292  0.4236  0.8085 -1.4769
 6448TIP3   OH243538   1.887   0.372   1.552  0.4062  0.3128 -0.0249
 6448TIP3    H143539   1.823   0.327   1.497 -0.4754  1.2563  0.2068
 6448TIP3    H243540   1.967   0.319   1.544 -0.1231 -0.3608 -1.0571
 6449TIP3   OH243541   0.305   4.113   7.973  0.1032 -0.0951 -0.1697
 6449TIP3    H143542   0.219   4.135   8.008  0.6228  0.9769  0.4877
 6449TIP3    H243543   0.310   4.159   7.889  0.0709 -0.0807 -0.1632
 6450TIP3   OH243544   6.587   4.859   7.726  0.2834  0.2095  0.5841
 6450TIP3    H143545   6.551   4.911   7.798 -0.1321  0.4076  0.2343
 6450TIP3    H243546   6.553   4.771   7.740  1.4284 -0.1148  1.4919
 6451TIP3   OH243547   0.588   4.006   8.547 -0.3484 -0.2589  0.3984
 6451TIP3    H143548   0.662   4.004   8.486  0.1521  0.1983  0.9786
 6451TIP3    H243549   0.627   4.033   8.631 -0.8771 -1.6509  1.1305
 6452TIP3   OH243550   2.384   2.737   8.669 -0.2620  0.2449  0.6522
 6452TIP3    H143551   2.414   2.823   8.698  1.7722 -0.4082  0.5990
 6452TIP3    H243552   2.362   2.750   8.576  2.6639  0.1662 -0.1385
 6453TIP3   OH243553   3.339   5.266   0.231  0.2896 -0.0452  0.3095
 6453TIP3    H143554   3.422   5.218   0.234  0.5709  0.4653  0.9742
 6453TIP3    H243555   3.354   5.334   0.164  0.0298 -0.6211 -0.3414
 6454TIP3   OH243556   1.971   5.651   2.112 -0.3937 -0.0368 -0.4483
 6454TIP3    H143557   2.023   5.724   2.147 -0.1364  0.6629 -2.1977
 6454TIP3    H243558   1.935   5.685   2.030 -2.3367 -1.0466 -0.0775
 6455TIP3   OH243559   6.415   5.360   1.866  0.8275  0.1015  0.1086
 6455TIP3    H143560   6.369   5.283   1.900  0.2506  0.6183  0.5255
 6455TIP3    H243561   6.407   5.353   1.771  1.4743 -0.7650  0.1051
 6456TIP3   OH243562   2.020   4.063   8.572  0.1115  0.1660 -0.0501
 6456TIP3    H143563   2.013   4.000   8.644 -0.5811  1.7654  1.3753
 6456TIP3    H243564   2.111   4.059   8.544  0.2825 -0.8324  0.6136
 6457TIP3   OH243565   4.737   4.150   8.887 -0.3079  0.3532  0.1191
 6457TIP3    H143566   4.823   4.113   8.906 -1.0218 -1.3851  0.1260
 6457TIP3    H243567   4.702   4.094   8.818 -1.1621  1.4712 -0.3814
 6458TIP3   OH243568   4.449   3.593   8.183  0.4040 -0.7602 -0.0192
 6458TIP3    H143569   4.470   3.533   8.254 -1.3461 -1.9609 -0.4474
 6458TIP3    H243570   4.355   3.580   8.168  0.0695  1.7037 -0.4976
 6459TIP3   OH243571   2.898   2.696   9.571  0.2259 -0.2683 -0.3217
 6459TIP3    H143572   2.913   2.791   9.570  0.5582 -0.3179 -0.0915
 6459TIP3    H243573   2.856   2.678   9.487  0.2047  0.0766 -0.3891
 6460TIP3   OH243574   1.865   4.354   7.705  0.2280 -0.5240 -0.5431
 6460TIP3    H143575   1.898   4.297   7.774 -1.4330 -0.5947  0.2459
 6460TIP3    H243576   1.920   4.432   7.710  0.2767 -0.6175  0.7403
 6461TIP3   OH243577   4.080   0.952   1.914  0.3493  0.5981 -0.0314
 6461TIP3    H143578   4.145   1.022   1.918  1.1936 -0.1460 -0.1575
 6461TIP3    H243579   4.048   0.955   1.824  1.0642  0.2524 -0.3104
 6462TIP3   OH243580   0.156   7.050   9.441  0.0241 -0.1177  0.1433
 6462TIP3    H143581   0.250   7.032   9.446 -0.1609 -1.6327 -1.1629
 6462TIP3    H243582   0.116   6.964   9.428 -1.3698  0.7315 -1.4973
 6463TIP3   OH243583   2.852   7.239   7.586 -0.1064  0.2382 -0.2596
 6463TIP3    H143584   2.759   7.233   7.569 -0.3960  1.1688  0.8548
 6463TIP3    H243585   2.872   7.166   7.644 -0.0514 -0.2085 -0.8381
 6464TIP3   OH243586   4.858   1.847   6.397 -0.2077 -0.1998  0.2423
 6464TIP3    H143587   4.852   1.915   6.330  1.3137 -0.9651 -0.7315
 6464TIP3    H243588   4.911   1.886   6.466 -0.3414  0.0055  0.2302
 6465TIP3   OH243589   0.966   0.938   9.248  0.2609  0.4492 -0.1391
 6465TIP3    H143590   1.038   0.952   9.309  0.4858  0.4316 -0.3949
 6465TIP3    H243591   0.887   0.935   9.302  0.3930  1.0228  0.0837
 6466TIP3   OH243592   6.964   1.909   8.303  0.3708 -0.4112  0.2069
 6466TIP3    H143593   6.878   1.924   8.343  0.8087 -0.7734  1.3155
 6466TIP3    H243594   6.988   1.821   8.330  2.0153  0.4280  1.6939
 6467TIP3   OH243595   5.049   3.765   0.444 -0.4954 -0.2878 -0.4612
 6467TIP3    H143596   5.104   3.697   0.404  1.8665  1.5303 -0.5720
 6467TIP3    H243597   4.979   3.779   0.380 -1.2323 -2.7250 -0.3081
 6468TIP3   OH243598   3.823   3.010   1.639  0.1803 -0.0089 -0.0592
 6468TIP3    H143599   3.794   3.054   1.558  0.8882  0.0394 -0.2951
 6468TIP3    H243600   3.754   2.947   1.658 -0.5164  0.7174 -0.1099
 6469TIP3   OH243601   0.563   2.104   9.089 -0.0754  0.1016  0.6175
 6469TIP3    H143602   0.572   2.197   9.065 -0.3440 -0.0782 -0.2467
 6469TIP3    H243603   0.513   2.105   9.171 -0.1018  0.7248  0.6017
 6470TIP3   OH243604   6.823   4.755   0.592  0.1733  0.2639  0.2405
 6470TIP3    H143605   6.866   4.690   0.537  0.4811  0.3438  0.3829
 6470TIP3    H243606   6.786   4.705   0.665  1.6788  0.3827  1.1522
 6471TIP3   OH243607   4.463   4.845   7.990  0.1687 -0.3665 -0.2522
 6471TIP3    H143608   4.398   4.780   8.018 -0.4702  0.1134 -0.5746
 6471TIP3    H243609   4.416   4.899   7.926  0.7778  0.2311 -0.2031
 6472TIP3   OH243610   6.004   2.515   8.844 -0.0211  0.0805  0.0203
 6472TIP3    H143611   5.922   2.533   8.798 -0.3133  0.9584  0.8628
 6472TIP3    H243612   6.017   2.591   8.900  1.7046  0.2716 -0.5699
 6473TIP3   OH243613   3.187   5.465   7.117 -0.3014 -0.0878 -0.7315
 6473TIP3    H143614   3.265   5.410   7.122  0.3030  0.8554  1.5866
 6473TIP3    H243615   3.162   5.463   7.025  2.5956 -0.2265 -1.6214
 6474TIP3   OH243616   4.230   3.986   8.707 -0.0876 -0.1810  0.3130
 6474TIP3    H143617   4.179   4.063   8.731  0.2538 -0.0878  0.7630
 6474TIP3    H243618   4.276   3.962   8.788 -0.2155 -0.8768  0.1898
 6475TIP3   OH243619   3.987   5.508   9.573  0.1412 -0.2055  0.8431
 6475TIP3    H143620   4.059   5.527   9.512  1.8930  1.0719  3.1637
 6475TIP3    H243621   3.972   5.414   9.563  1.5036 -0.3455 -0.3532
 6476TIP3   OH243622   3.115   7.085   7.464  0.1467  0.1703 -0.1519
 6476TIP3    H143623   3.118   6.993   7.492  0.2404  0.0526 -0.5377
 6476TIP3    H243624   3.158   7.133   7.534 -1.4972  0.1473  0.9057
 6477TIP3   OH243625   3.229   1.172   2.133  0.3045 -0.0617 -0.2341
 6477TIP3    H143626   3.259   1.120   2.208  0.4923  0.2879 -0.0644
 6477TIP3    H243627   3.134   1.171   2.140  0.3308  0.3770  0.2957
 6478TIP3   OH243628   4.688   4.797   8.161 -0.2468  0.2961 -0.2275
 6478TIP3    H143629   4.625   4.794   8.089  0.6588  0.1637 -1.0321
 6478TIP3    H243630   4.661   4.872   8.214  0.2378  1.6510 -1.8200
 6479TIP3   OH243631   4.637   7.286   1.523 -0.0655 -0.0021 -0.4847
 6479TIP3    H143632   4.640   7.228   1.599 -1.3033  1.4631  0.7378
 6479TIP3    H243633   4.728   7.291   1.494  0.3671 -0.9656  0.6172
 6480TIP3   OH243634   6.804   0.456   0.479  0.0571  0.2249  0.1847
 6480TIP3    H143635   6.874   0.391   0.479  0.6823  0.8798 -0.8911
 6480TIP3    H243636   6.784   0.469   0.572  2.8662  1.6243  0.6947
 6481TIP3   OH243637   3.307   3.454   1.087 -0.2772  0.0776  0.2064
 6481TIP3    H143638   3.277   3.431   1.174 -0.8172  0.3939  0.1073
 6481TIP3    H243639   3.402   3.465   1.096 -0.2897 -0.1873  0.6802
 6482TIP3   OH243640   6.025   6.240   6.866  0.0065  0.5936  0.3373
 6482TIP3    H143641   6.019   6.176   6.795  0.9732 -0.9237  1.5342
 6482TIP3    H243642   5.950   6.297   6.854 -0.2381 -0.0517 -1.4860
 6483TIP3   OH243643   6.323   4.742   7.811 -0.1489  0.5236 -0.2264
 6483TIP3    H143644   6.281   4.801   7.873  0.9517  1.7658 -0.6236
 6483TIP3    H243645   6.380   4.687   7.865  0.0657  0.9430 -0.0164
 6484TIP3   OH243646   6.883   3.595   0.331  0.0759  0.7945 -0.0267
 6484TIP3    H143647   6.852   3.558   0.414  0.6334  1.6423  0.5694
 6484TIP3    H243648   6.928   3.522   0.288  1.3087  0.7801  1.2114
 6485TIP3   OH243649   6.600   7.133   8.802 -0.1390 -0.2024 -0.3300
 6485TIP3    H143650   6.552   7.128   8.719  1.7143 -1.0392 -1.4199
 6485TIP3    H243651   6.674   7.074   8.790 -0.1736 -0.8558  2.2014
 6486TIP3   OH243652   3.287   4.043   8.826 -0.3685  0.4269  0.4717
 6486TIP3    H143653   3.301   4.089   8.908  1.9287 -0.9625  0.9505
 6486TIP3    H243654   3.222   3.976   8.846  1.7555 -1.3414  1.8488
 6487TIP3   OH243655   7.184   5.488   6.828  0.4378 -0.3182 -0.4364
 6487TIP3    H143656   7.128   5.549   6.780  1.3144  0.6228 -0.2963
 6487TIP3    H243657   7.126   5.448   6.893  0.0178  1.0158  0.0421
 6488TIP3   OH243658   2.054   6.924   8.888  0.3695  0.1088  0.5961
 6488TIP3    H143659   2.071   7.014   8.917  0.2471 -0.3438  2.1271
 6488TIP3    H243660   2.102   6.869   8.949 -0.6098 -0.9128  0.4738
 6489TIP3   OH243661   0.129   0.418   7.120  0.3590  0.0601 -0.5933
 6489TIP3    H143662   0.216   0.393   7.152  0.6736  0.2630 -1.2723
 6489TIP3    H243663   0.141   0.507   7.086 -0.2448  0.3015 -0.1942
 6490TIP3   OH243664   2.591   6.716   8.194 -0.1059 -0.0388 -0.0330
 6490TIP3    H143665   2.635   6.790   8.238 -0.0489  0.6982 -1.2859
 6490TIP3    H243666   2.622   6.639   8.241  0.7308  0.6535  0.5884
 6491TIP3   OH243667   4.987   0.832   8.089  0.1608  0.0687  0.7297
 6491TIP3    H143668   5.074   0.854   8.056  0.5588  0.0294  1.7282
 6491TIP3    H243669   5.003   0.765   8.156 -0.8949 -2.4504 -1.3646
 6492TIP3   OH243670   6.726   2.858   0.406  0.1080  0.0044  0.9583
 6492TIP3    H143671   6.803   2.914   0.397 -0.6287  0.6588 -2.6325
 6492TIP3    H243672   6.652   2.917   0.395 -0.7186 -1.2715 -0.8151
 6493TIP3   OH243673   6.314   3.248   7.220  0.6144  0.0263  0.4232
 6493TIP3    H143674   6.262   3.168   7.213 -1.9275  1.4505  1.5987
 6493TIP3    H243675   6.334   3.272   7.130  1.0405 -1.6772  0.0415
 6494TIP3   OH243676   5.981   1.410   6.737 -0.4100 -0.1374  0.7098
 6494TIP3    H143677   5.905   1.382   6.788 -1.2320  0.4458 -0.1503
 6494TIP3    H243678   5.947   1.480   6.681  0.4057 -0.8664 -0.7522
 6495TIP3   OH243679   3.261   6.323   1.352  0.0438  0.2556  0.8200
 6495TIP3    H143680   3.308   6.366   1.279 -0.2216 -2.2927 -0.9768
 6495TIP3    H243681   3.326   6.264   1.390 -0.6327 -0.5949  0.6888
 6496TIP3   OH243682   6.614   3.157   1.825  0.1151  0.3344 -0.3255
 6496TIP3    H143683   6.559   3.083   1.798  0.8682 -0.1098 -0.6703
 6496TIP3    H243684   6.562   3.235   1.805  0.5129  0.0298 -2.8664
 6497TIP3   OH243685   2.482   6.805   2.039  0.0441 -0.4044  0.3009
 6497TIP3    H143686   2.459   6.821   1.948  0.0732  1.1429  0.5296
 6497TIP3    H243687   2.399   6.813   2.087  0.2682  0.4511  0.5774
 6498TIP3   OH243688   2.558   0.669   1.261 -0.1674 -0.6969  0.1491
 6498TIP3    H143689   2.648   0.701   1.260  0.7773 -3.0970  1.4287
 6498TIP3    H243690   2.528   0.680   1.170  1.5881 -0.3456 -0.4286
 6499TIP3   OH243691   1.660   4.071   8.652  0.2244  0.8733  0.6615
 6499TIP3    H143692   1.571   4.099   8.630 -0.6776 -1.2137  1.4082
 6499TIP3    H243693   1.679   4.000   8.591  0.3685 -0.3300  2.0320
 6500TIP3   OH243694   0.699   0.553   8.486  0.1516  0.2139 -0.8373
 6500TIP3    H143695   0.791   0.573   8.469  0.8808 -2.6741 -0.8795
 6500TIP3    H243696   0.676   0.607   8.561  2.7865 -0.9969  0.9990
 6501TIP3   OH243697   5.308   6.671   0.550  0.0459 -0.7072 -0.3413
 6501TIP3    H143698   5.296   6.759   0.587 -1.2965 -1.3739  0.8734
 6501TIP3    H243699   5.304   6.685   0.455  2.0844  0.8208 -0.2734
 6502TIP3   OH243700   1.319   1.741   9.352  0.2011 -0.4329 -0.2802
 6502TIP3    H143701   1.334   1.654   9.315 -0.7409 -0.3502 -0.8989
 6502TIP3    H243702   1.233   1.734   9.395  0.6721 -0.1450  0.7414
 6503TIP3   OH243703   4.705   2.226   1.411 -0.4943  0.3834  0.1264
 6503TIP3    H143704   4.660   2.302   1.374 -0.1914  0.2731 -0.4774
 6503TIP3    H243705   4.748   2.185   1.337 -1.2315 -0.7870  0.3304
 6504TIP3   OH243706   4.571   2.173   1.659 -0.3755 -0.1966  0.5824
 6504TIP3    H143707   4.621   2.192   1.579  0.4500  1.0876  1.3530
 6504TIP3    H243708   4.494   2.125   1.629 -1.0009  1.7795 -1.2127
 6505TIP3   OH243709   6.094   3.612   8.023 -0.1776 -0.4456  0.0875
 6505TIP3    H143710   6.136   3.531   7.992  1.1823  0.3037 -0.1365
 6505TIP3    H243711   6.001   3.591   8.026 -0.0651 -1.4463 -1.7735
 6506TIP3   OH243712   7.367   1.833   2.698  0.4938 -0.5997 -0.0202
 6506TIP3    H143713   7.456   1.800   2.687 -0.1281 -2.3845 -0.0017
 6506TIP3    H243714   7.327   1.774   2.762 -0.8908 -0.2056 -0.4835
 6507TIP3   OH243715   1.494   3.778   1.456 -0.1768  0.2892  0.2212
 6507TIP3    H143716   1.475   3.768   1.363 -0.0154  0.4904  0.1651
 6507TIP3    H243717   1.497   3.873   1.470 -2.6608  0.3301  0.9396
 6508TIP3   OH243718   7.029   6.713   9.169  0.3514 -0.7221  0.4159
 6508TIP3    H143719   6.937   6.739   9.161  0.3794 -0.3545  1.2042
 6508TIP3    H243720   7.077   6.778   9.118  0.0582 -1.8345 -1.3435
 6509TIP3   OH243721   4.342   0.760   0.233  0.1541  0.6448  0.1091
 6509TIP3    H143722   4.384   0.765   0.319  1.4582  1.0108 -0.5243
 6509TIP3    H243723   4.401   0.704   0.181 -1.6301 -1.2329  0.0087
 6510TIP3   OH243724   5.393   6.656   6.550  0.1246 -0.1055 -1.0498
 6510TIP3    H143725   5.484   6.643   6.523 -0.4832 -1.3822 -2.6629
 6510TIP3    H243726   5.386   6.609   6.633  1.5466  2.2338  0.5258
 6511TIP3   OH243727   0.730   5.871   8.839 -0.2709 -0.3867 -0.1532
 6511TIP3    H143728   0.758   5.955   8.874  1.5599 -1.5219  1.2610
 6511TIP3    H243729   0.637   5.865   8.862  0.3459 -0.1382  2.7066
 6512TIP3   OH243730   7.274   1.747   8.924  0.5192  0.1267  0.5921
 6512TIP3    H143731   7.273   1.802   9.002  0.3172 -0.0375  0.7064
 6512TIP3    H243732   7.216   1.792   8.862  0.0615 -0.1385  0.8159
 6513TIP3   OH243733   2.841   6.106   8.812  0.2728  0.2331 -0.3027
 6513TIP3    H143734   2.824   6.130   8.903 -0.1078  0.0370 -0.3221
 6513TIP3    H243735   2.917   6.047   8.817 -0.7467 -1.1049  0.0609
 6514TIP3   OH243736   4.316   1.166   0.572  0.8116 -0.2145 -0.2657
 6514TIP3    H143737   4.352   1.087   0.614  0.8897  0.4248  0.8988
 6514TIP3    H243738   4.350   1.238   0.624 -0.5770  0.5149 -0.3474
 6515TIP3   OH243739   5.654   2.929   7.238 -0.2203 -0.1933  0.1477
 6515TIP3    H143740   5.605   2.848   7.248  0.5632 -0.5817  0.9888
 6515TIP3    H243741   5.620   2.969   7.158 -2.4535 -0.0633  1.0980
 6516TIP3   OH243742   6.701   1.055   8.235 -0.6710  0.1474  0.6757
 6516TIP3    H143743   6.624   1.004   8.208 -0.0851  0.2947 -1.5181
 6516TIP3    H243744   6.720   1.025   8.324 -0.3439 -3.5751 -0.4705
 6517TIP3   OH243745   0.856   4.833   2.265 -0.1343  0.3178 -0.2156
 6517TIP3    H143746   0.846   4.739   2.280  0.6515  0.2193 -0.2567
 6517TIP3    H243747   0.830   4.873   2.348 -3.0578  0.2551 -1.0188
 6518TIP3   OH243748   1.913   1.864   7.387 -0.3214  0.0474  0.0731
 6518TIP3    H143749   1.952   1.823   7.310 -0.5468  0.0316 -0.0335
 6518TIP3    H243750   1.829   1.820   7.398  0.4005 -1.0956  1.3008
 6519TIP3   OH243751   0.494   0.487   1.897  0.0912  0.2426 -0.3612
 6519TIP3    H143752   0.469   0.553   1.834 -1.1369 -0.7052 -0.9144
 6519TIP3    H243753   0.581   0.458   1.870 -0.1220  0.3653 -1.1838
 6520TIP3   OH243754   5.542   1.744   2.915 -0.1866  0.4586  0.1212
 6520TIP3    H143755   5.541   1.709   2.826 -0.8524 -0.5550  0.5212
 6520TIP3    H243756   5.480   1.690   2.964  1.1402  0.1438  1.5334
 6521TIP3   OH243757   3.102   0.294   2.554 -0.1415 -0.5298 -0.1447
 6521TIP3    H143758   3.147   0.275   2.472 -2.4642 -0.9164 -1.4337
 6521TIP3    H243759   3.010   0.302   2.529 -0.7456  0.8830  2.2117
 6522TIP3   OH243760   0.638   3.154   2.588  0.3286 -0.3794  0.3633
 6522TIP3    H143761   0.618   3.213   2.661 -0.0644 -1.4989  1.1970
 6522TIP3    H243762   0.657   3.070   2.630 -0.7798 -1.2845 -0.8594
 6523TIP3   OH243763   1.277   2.120   7.130 -0.0774  0.2134  0.7427
 6523TIP3    H143764   1.243   2.112   7.040 -1.8562  1.7177  1.2297
 6523TIP3    H243765   1.324   2.203   7.130  0.8124 -0.2803  0.9570
 6524TIP3   OH243766   4.795   1.930   7.859  0.4465 -0.4298 -0.0513
 6524TIP3    H143767   4.798   1.840   7.891  1.8545 -0.2005  0.5339
 6524TIP3    H243768   4.851   1.930   7.781  0.3756 -0.0836 -0.1031
 6525TIP3   OH243769   6.721   0.571   7.098 -0.5192  0.4533 -0.1033
 6525TIP3    H143770   6.637   0.542   7.062 -0.2316  0.2569 -0.6129
 6525TIP3    H243771   6.696   0.633   7.167 -1.0865  0.3462 -0.2023
 6526TIP3   OH243772   4.188   3.550   8.135 -0.2442  0.3953 -0.0264
 6526TIP3    H143773   4.152   3.476   8.183 -1.6877  1.1430  0.1076
 6526TIP3    H243774   4.113   3.606   8.117  0.8665  2.0622  0.2758
 6527TIP3   OH243775   6.093   1.793   0.821 -0.0072 -0.4022 -0.1056
 6527TIP3    H143776   6.062   1.872   0.865 -1.3338 -0.1614 -1.4366
 6527TIP3    H243777   6.043   1.722   0.861 -0.2821 -0.3370 -0.3382
 6528TIP3   OH243778   1.466   2.715   7.655  0.1550  0.3526 -0.4086
 6528TIP3    H143779   1.558   2.735   7.673 -0.6322  3.2679  1.0856
 6528TIP3    H243780   1.433   2.681   7.738 -0.4106  0.7619 -0.4588
 6529TIP3   OH243781   6.100   5.738   7.518  0.2454 -0.0091 -0.0337
 6529TIP3    H143782   6.059   5.754   7.603  0.4825  0.0118  0.0774
 6529TIP3    H243783   6.033   5.691   7.468 -0.6167  1.6349 -0.5067
 6530TIP3   OH243784   0.895   2.351   1.428 -0.3749  0.4540 -0.0180
 6530TIP3    H143785   0.977   2.325   1.385 -1.0874  0.2907 -1.3259
 6530TIP3    H243786   0.907   2.326   1.519  1.2724  0.9869 -0.0559
 6531TIP3   OH243787   6.050   0.009   6.849  0.0765  0.6302  0.0231
 6531TIP3    H143788   6.143   0.013   6.872  0.0940  1.1187 -0.1162
 6531TIP3    H243789   6.024  -0.081   6.867  0.6536  0.4144 -0.2298
 6532TIP3   OH243790   6.583   5.886   0.297 -0.9183 -0.1348  0.1592
 6532TIP3    H143791   6.605   5.979   0.296 -2.2977  0.2295  0.9367
 6532TIP3    H243792   6.661   5.842   0.264 -0.6545  1.3793 -1.3673
 6533TIP3   OH243793   1.896   5.781   9.051  0.0833 -0.0915 -0.0289
 6533TIP3    H143794   1.973   5.732   9.020  1.2934  1.0629  1.0394
 6533TIP3    H243795   1.873   5.838   8.978  1.6202  1.1082  0.3781
 6534TIP3   OH243796   4.174   1.652   0.721  0.1215  0.2510 -0.4281
 6534TIP3    H143797   4.187   1.710   0.796 -0.2614  0.9305 -0.8758
 6534TIP3    H243798   4.148   1.711   0.650  2.3796 -0.1367 -1.6316
 6535TIP3   OH243799   3.846   0.335   8.407 -0.7700  0.1814 -0.0993
 6535TIP3    H143800   3.900   0.352   8.329 -1.5183  1.9398 -0.2800
 6535TIP3    H243801   3.894   0.268   8.455  1.2725  1.2405 -0.5577
 6536TIP3   OH243802   4.780   1.366   7.933 -0.2730  0.3942 -0.2481
 6536TIP3    H143803   4.790   1.442   7.989 -0.0481 -0.1678  0.4831
 6536TIP3    H243804   4.809   1.292   7.986 -1.7165 -0.3837 -0.4642
 6537TIP3   OH243805   4.394   6.927   9.332 -0.3480 -0.4765 -0.7732
 6537TIP3    H143806   4.396   6.940   9.427 -0.1204  0.2575 -0.8748
 6537TIP3    H243807   4.477   6.884   9.313  0.8225  1.7439 -0.9586
 6538TIP3   OH243808   7.047   3.107   0.108 -0.5181 -0.0020 -0.5012
 6538TIP3    H143809   7.036   3.143   0.020 -1.7382 -1.7640 -1.1108
 6538TIP3    H243810   7.066   3.014   0.094  1.4363  0.0802  1.0541
 6539TIP3   OH243811   0.125   1.900   7.446 -0.4676  0.5282 -0.0374
 6539TIP3    H143812   0.197   1.870   7.502  0.6676  0.7010 -1.3596
 6539TIP3    H243813   0.168   1.928   7.365 -2.0633  0.2896 -0.9928
 6540TIP3   OH243814   6.256   0.368   1.963 -0.5727  0.2226 -0.3689
 6540TIP3    H143815   6.286   0.285   1.927  0.5621  0.2561  0.4539
 6540TIP3    H243816   6.319   0.433   1.932  0.5439  0.2331  1.7047
 6541TIP3   OH243817   6.080   3.163   9.256  0.1653 -0.4141 -0.3780
 6541TIP3    H143818   6.061   3.235   9.315  0.7231  0.3478 -1.0985
 6541TIP3    H243819   5.995   3.132   9.226 -0.0778 -0.1257  0.0182
 6542TIP3   OH243820   3.614   6.521   8.171 -0.1811  0.0533 -0.2077
 6542TIP3    H143821   3.626   6.615   8.185  2.9693  0.0456 -1.8289
 6542TIP3    H243822   3.571   6.490   8.250  2.0001  2.3180  2.0281
 6543TIP3   OH243823   5.253   5.251   8.900 -0.4649 -0.0981 -0.2556
 6543TIP3    H143824   5.265   5.338   8.863 -2.0672 -0.3021 -1.3398
 6543TIP3    H243825   5.284   5.191   8.832  1.0943 -0.4162  0.6701
 6544TIP3   OH243826   1.615   5.138   2.461  0.1770  0.2144  0.3526
 6544TIP3    H143827   1.555   5.213   2.470  0.5884  0.4736  1.0329
 6544TIP3    H243828   1.701   5.174   2.483  0.6342 -0.0994 -0.8575
 6545TIP3   OH243829   2.649   1.286   0.249 -0.7334 -0.1895  0.8416
 6545TIP3    H143830   2.692   1.247   0.325  0.8113 -1.0220 -0.4024
 6545TIP3    H243831   2.628   1.212   0.192  0.5268  0.5723 -0.7114
 6546TIP3   OH243832   6.378   3.490   9.136 -0.2922  0.3148  0.4225
 6546TIP3    H143833   6.389   3.402   9.172  0.7060 -0.5350 -1.7698
 6546TIP3    H243834   6.285   3.496   9.114 -0.1268 -0.7388 -0.6500
 6547TIP3   OH243835   2.325   2.152   9.260  0.0984 -0.4463 -0.0010
 6547TIP3    H143836   2.387   2.214   9.297 -0.2320  0.2167 -0.5387
 6547TIP3    H243837   2.342   2.070   9.307  0.0842  0.2104  1.1843
 6548TIP3   OH243838   5.680   3.580   2.176 -0.2764 -0.5295 -0.0883
 6548TIP3    H143839   5.758   3.530   2.197  0.1399  0.3385  0.4788
 6548TIP3    H243840   5.638   3.531   2.105  1.1997 -0.5815 -0.9550
 6549TIP3   OH243841   3.449   3.853   7.754 -0.0970  0.1525  0.3977
 6549TIP3    H143842   3.491   3.922   7.701 -0.3346  0.6900  0.9007
 6549TIP3    H243843   3.440   3.891   7.841 -0.2189 -0.5278  0.6895
 6550TIP3   OH243844   6.204   5.240   6.899  0.4975 -0.4476 -0.3779
 6550TIP3    H143845   6.121   5.284   6.882  0.2335 -1.7340 -2.8405
 6550TIP3    H243846   6.254   5.302   6.953 -1.0396  1.4736 -1.0620
 6551TIP3   OH243847   6.203   4.229   9.290 -0.0222 -0.1929  0.6395
 6551TIP3    H143848   6.207   4.284   9.212  0.1075  0.7448  1.2858
 6551TIP3    H243849   6.187   4.141   9.257 -0.7882  0.3179 -0.3882
 6552TIP3   OH243850   6.875   3.858   2.118 -0.2227 -0.3607  0.3873
 6552TIP3    H143851   6.954   3.910   2.127 -0.5666  0.5981 -1.6322
 6552TIP3    H243852   6.819   3.908   2.059 -1.5911 -1.8669  0.3236
 6553TIP3   OH243853   2.222   2.195   3.060  0.0126 -0.0232 -0.2718
 6553TIP3    H143854   2.289   2.237   3.114  0.2903 -0.1816 -0.4941
 6553TIP3    H243855   2.145   2.192   3.116 -0.0661  0.9520 -0.3101
 6554TIP3   OH243856   3.796   6.217   1.608  0.1445 -0.4346  0.4372
 6554TIP3    H143857   3.791   6.130   1.647 -1.5223 -0.5413  0.0816
 6554TIP3    H243858   3.806   6.201   1.514  0.3558 -0.2395  0.4266
 6555TIP3   OH243859   3.731   3.406   9.000 -0.3655  0.3809  0.2065
 6555TIP3    H143860   3.806   3.371   8.952  0.2209  0.2882  1.1722
 6555TIP3    H243861   3.687   3.463   8.937 -0.9818 -1.5471 -1.2120
 6556TIP3   OH243862   3.946   6.829   1.001 -0.0795 -0.1052 -0.4961
 6556TIP3    H143863   3.914   6.788   0.920  0.9080 -1.3950 -0.2677
 6556TIP3    H243864   3.942   6.759   1.066  0.9325  0.3724  0.0995
 6557TIP3   OH243865   3.253   2.779   0.395 -0.5385 -0.7224  0.1477
 6557TIP3    H143866   3.306   2.858   0.401  0.7764 -1.6141  0.5235
 6557TIP3    H243867   3.215   2.783   0.307  0.9765 -0.5694 -0.5242
 6558TIP3   OH243868   7.247   3.568   2.483 -0.5253 -0.1340  0.7548
 6558TIP3    H143869   7.274   3.598   2.570 -0.1207 -1.0310  0.9397
 6558TIP3    H243870   7.279   3.478   2.477 -0.6625 -0.1208 -0.2766
 6559TIP3   OH243871   4.339   6.387   9.220 -0.2559  0.1622 -0.2937
 6559TIP3    H143872   4.402   6.318   9.202 -0.2532  0.1602 -0.2767
 6559TIP3    H243873   4.353   6.410   9.312 -1.2867 -0.8689  0.1371
 6560TIP3   OH243874   5.868   5.615   2.406 -0.1624 -0.1949 -0.0283
 6560TIP3    H143875   5.900   5.581   2.322 -0.7972  0.3488 -0.5032
 6560TIP3    H243876   5.793   5.560   2.428  1.1248 -1.5601  1.1567
 6561TIP3   OH243877   6.832   0.115   9.488  0.0851  0.8353  1.1787
 6561TIP3    H143878   6.764   0.133   9.553 -0.2070  0.2953  1.0265
 6561TIP3    H243879   6.871   0.032   9.516 -0.8112 -0.0012  0.0428
 6562TIP3   OH243880   6.211   2.144   1.038  0.1978 -0.0021  0.4723
 6562TIP3    H143881   6.226   2.206   1.110  0.8505 -0.7909  1.0288
 6562TIP3    H243882   6.296   2.137   0.995 -0.2039  0.5017 -0.4190
 6563TIP3   OH243883   6.677   6.159   0.351 -0.4988  0.3593 -0.3645
 6563TIP3    H143884   6.721   6.244   0.348 -0.4722  0.3842  0.4336
 6563TIP3    H243885   6.597   6.175   0.402 -0.6883 -0.0086 -0.5413
 6564TIP3   OH243886   3.970   2.696   7.621  0.3780 -0.3593 -0.3117
 6564TIP3    H143887   3.934   2.686   7.533 -1.3834  0.1471  0.2998
 6564TIP3    H243888   3.982   2.790   7.631  1.7676 -0.5035 -0.4266
 6565TIP3   OH243889   0.622   4.525   9.634  0.4720 -0.1246  0.0245
 6565TIP3    H143890   0.580   4.544   9.550  3.1156  0.7975 -1.1928
 6565TIP3    H243891   0.619   4.608   9.681 -1.7233 -0.8355  1.2764
 6566TIP3   OH243892   0.617   5.298   7.954 -0.1346 -0.2517  0.1642
 6566TIP3    H143893   0.607   5.377   7.900 -2.4438 -1.0147 -0.6233
 6566TIP3    H243894   0.711   5.294   7.972  0.2126  2.0423 -0.7195
 6567TIP3   OH243895   3.681   3.750   7.723  0.1694 -0.7368 -0.4694
 6567TIP3    H143896   3.680   3.726   7.630 -0.6609 -0.6190 -0.5006
 6567TIP3    H243897   3.596   3.792   7.737  0.8446  0.4972  0.0222
 6568TIP3   OH243898   5.515   4.581   7.608 -0.5686 -0.0529 -0.0771
 6568TIP3    H143899   5.534   4.656   7.552  0.0910 -1.6058 -2.0409
 6568TIP3    H243900   5.500   4.619   7.695  0.8901  2.2326 -0.7436
 6569TIP3   OH243901   2.017   3.503   1.250  0.5861  0.0292  0.0565
 6569TIP3    H143902   2.023   3.598   1.237  0.8677 -0.1197 -1.0174
 6569TIP3    H243903   1.980   3.493   1.337 -3.0640  1.1790 -1.1650
 6570TIP3   OH243904   0.742   5.857   9.130 -0.5278 -0.2432 -0.4004
 6570TIP3    H143905   0.833   5.854   9.102 -0.7504  1.3511 -1.4258
 6570TIP3    H243906   0.747   5.881   9.223  0.1044 -0.7298 -0.3034
 6571TIP3   OH243907   5.898   0.911   9.314  0.4810  0.0053 -0.4361
 6571TIP3    H143908   5.896   0.990   9.370  0.3270 -0.3277  0.0378
 6571TIP3    H243909   5.986   0.876   9.326  0.6922  0.3482 -0.9903
 6572TIP3   OH243910   3.898   4.898   6.758 -0.1514 -0.4903  0.4226
 6572TIP3    H143911   3.865   4.914   6.846 -0.4670 -0.3587  0.2836
 6572TIP3    H243912   3.923   4.985   6.726 -2.3232 -0.1419 -0.5166
 6573TIP3   OH243913   6.834   1.889   9.589  0.3344  0.1186 -0.0514
 6573TIP3    H143914   6.808   1.872   9.498  0.6716 -2.6179  0.2848
 6573TIP3    H243915   6.921   1.851   9.596  0.0645 -0.2678  1.5777
 6574TIP3   OH243916   5.072   3.388   1.794  0.0202  0.2029  0.2684
 6574TIP3    H143917   4.995   3.431   1.832 -0.6038  0.8768 -1.6426
 6574TIP3    H243918   5.080   3.426   1.707  1.0234 -1.6986 -0.5219
 6575TIP3   OH243919   1.757   2.376   0.476  0.1101  0.2778  0.5520
 6575TIP3    H143920   1.844   2.395   0.441 -0.4019 -0.3791 -1.1608
 6575TIP3    H243921   1.744   2.282   0.460 -2.2425  0.9657 -2.5119
 6576TIP3   OH243922   0.138   7.258   0.252  0.7446  0.5061 -0.5879
 6576TIP3    H143923   0.056   7.280   0.297 -0.6576 -1.7694 -1.8506
 6576TIP3    H243924   0.137   7.313   0.174  0.9198  1.1862 -0.1176
 6577TIP3   OH243925   3.573   5.652   1.506  1.0519 -0.3249  0.2522
 6577TIP3    H143926   3.627   5.625   1.432  0.1498  1.1587 -0.9935
 6577TIP3    H243927   3.635   5.684   1.571  1.7370  1.5750 -1.2409
 6578TIP3   OH243928   2.707   3.685   2.809 -0.4730 -0.1338  0.6369
 6578TIP3    H143929   2.773   3.746   2.840 -0.8712  0.6222  0.0143
 6578TIP3    H243930   2.756   3.604   2.793 -0.2847 -0.6870  3.4671
 6579TIP3   OH243931   6.589   5.882   0.695  0.7806  0.1297 -0.6519
 6579TIP3    H143932   6.592   5.788   0.677 -0.1254  0.1171 -0.7552
 6579TIP3    H243933   6.498   5.906   0.683  0.9535  0.9726 -0.3378
 6580TIP3   OH243934   4.749   2.788   1.671  0.0910 -0.2335 -0.1049
 6580TIP3    H143935   4.677   2.749   1.622  0.8041 -1.0785 -0.4953
 6580TIP3    H243936   4.742   2.882   1.653 -0.4042 -0.4016 -0.8049
 6581TIP3   OH243937   6.511   1.041   2.596  0.0068  0.3565  0.0043
 6581TIP3    H143938   6.514   1.100   2.671  0.9715  0.8190 -0.3936
 6581TIP3    H243939   6.436   0.984   2.614 -0.3052  1.0277  0.8898
 6582TIP3   OH243940   2.540   3.108   8.884 -0.2114  0.4470 -0.0242
 6582TIP3    H143941   2.457   3.061   8.889  0.1328 -0.0346  1.9934
 6582TIP3    H243942   2.607   3.039   8.880  0.2707  0.6620  2.5477
 6583TIP3   OH243943   0.493   3.377   1.252  0.0405  0.0590  0.1486
 6583TIP3    H143944   0.562   3.355   1.314 -0.0176  0.2825  0.2953
 6583TIP3    H243945   0.439   3.441   1.298  0.4871  0.8837 -0.4382
 6584TIP3   OH243946   5.018   6.000   0.976 -0.3593  0.1822 -0.6467
 6584TIP3    H143947   4.952   6.064   1.004 -0.3856 -0.6140  1.2187
 6584TIP3    H243948   5.091   6.012   1.036  0.2428 -0.5433 -1.2167
 6585TIP3   OH243949   4.865   3.611   1.758  0.5862 -0.5518 -0.6342
 6585TIP3    H143950   4.927   3.675   1.724  2.0569 -2.1204 -1.0456
 6585TIP3    H243951   4.796   3.607   1.693  0.1846  0.9851 -0.3334
 6586TIP3   OH243952   1.265   6.299   0.400 -0.0992  0.4315  0.2255
 6586TIP3    H143953   1.332   6.248   0.445  0.1985 -1.3611 -2.0694
 6586TIP3    H243954   1.238   6.244   0.327 -1.7369  2.4978 -0.8362
 6587TIP3   OH243955   2.606   5.166   8.622 -0.2108  0.5097  0.1457
 6587TIP3    H143956   2.687   5.121   8.598 -0.1638 -0.3594  1.7679
 6587TIP3    H243957   2.549   5.097   8.657  0.3595  1.7505  4.0115
 6588TIP3   OH243958   4.995   3.478   0.588  0.0165  0.8242 -0.1045
 6588TIP3    H143959   4.985   3.503   0.496 -2.4562  0.8068  0.0726
 6588TIP3    H243960   5.070   3.528   0.618 -0.2151  2.2364 -1.6947
 6589TIP3   OH243961   3.370   1.219   7.997  0.0574  0.2215  0.1155
 6589TIP3    H143962   3.440   1.232   8.061  1.2768  1.5623 -1.4092
 6589TIP3    H243963   3.394   1.138   7.952 -0.4405 -0.3640  0.8903
 6590TIP3   OH243964   6.566   6.775   7.941 -0.0774 -0.0902 -0.1083
 6590TIP3    H143965   6.592   6.849   7.885 -0.7391  0.6157  0.5037
 6590TIP3    H243966   6.483   6.745   7.903 -0.5093  0.3669  0.4693
 6591TIP3   OH243967   0.033   3.496   7.093 -0.0400 -0.1507 -0.3042
 6591TIP3    H143968   0.007   3.436   7.023  1.4557  0.7075 -1.6690
 6591TIP3    H243969   0.092   3.445   7.148  0.0569 -0.3797 -0.6166
 6592TIP3   OH243970   5.466   4.624   2.266 -0.0172 -0.3031  0.1401
 6592TIP3    H143971   5.452   4.695   2.328 -1.3757  1.5915 -2.1448
 6592TIP3    H243972   5.561   4.619   2.255  0.0828  1.9955 -0.4610
 6593TIP3   OH243973   6.159   4.652   1.630  0.2676  0.5626 -0.3352
 6593TIP3    H143974   6.158   4.718   1.699  0.6906  0.4337 -0.2058
 6593TIP3    H243975   6.164   4.569   1.677  3.5819  0.5469 -0.5357
 6594TIP3   OH243976   5.122   2.895   2.851  0.2963 -0.0755 -0.1917
 6594TIP3    H143977   5.197   2.940   2.812  1.3204 -0.9041  0.7463
 6594TIP3    H243978   5.046   2.933   2.808  1.1494  1.9966  0.0209
 6595TIP3   OH243979   2.367   1.033   8.011 -0.2170  0.1568 -0.2571
 6595TIP3    H143980   2.373   1.115   8.061 -0.5609 -0.4410  0.7919
 6595TIP3    H243981   2.284   0.995   8.037  0.1271 -0.7248 -0.4253
 6596TIP3   OH243982   6.088   4.136   2.743  0.0039  0.1592  0.5104
 6596TIP3    H143983   6.176   4.160   2.772  0.0360  0.9025 -0.1818
 6596TIP3    H243984   6.069   4.054   2.790  0.3402  0.9123  2.0506
 6597TIP3   OH243985   3.116   4.057   7.200 -0.5604  0.0650  0.0638
 6597TIP3    H143986   3.025   4.027   7.202 -0.6072  0.0421 -1.4068
 6597TIP3    H243987   3.168   3.976   7.200 -0.5781  0.0530 -0.2837
 6598TIP3   OH243988   2.612   7.105   8.948 -0.0850 -0.2449 -1.0782
 6598TIP3    H143989   2.570   7.127   9.031 -1.4371  0.2135 -1.8581
 6598TIP3    H243990   2.575   7.020   8.924 -0.2246 -0.0569 -1.5470
 6599TIP3   OH243991   1.182   6.632   1.020 -0.6779  0.0712 -0.1865
 6599TIP3    H143992   1.135   6.556   1.054  0.0432 -0.2811  0.0326
 6599TIP3    H243993   1.269   6.599   1.000  0.3604  1.3147  1.9766
 6600TIP3   OH243994   1.288   6.029   7.663  0.2438 -0.2861 -0.3576
 6600TIP3    H143995   1.309   6.116   7.630  2.3963 -0.6322 -0.0824
 6600TIP3    H243996   1.222   6.044   7.731  1.3881  1.2743  0.4579
 6601TIP3   OH243997   2.146   5.372   8.647 -0.5447  0.5722  0.6504
 6601TIP3    H143998   2.184   5.311   8.583 -3.1424 -0.6329  0.1155
 6601TIP3    H243999   2.215   5.436   8.663  1.8218 -1.6525  0.1123
 6602TIP3   OH244000   6.437   7.268   0.996 -0.0322 -0.3862  0.3558
 6602TIP3    H144001   6.462   7.320   1.072 -1.5672  0.3231  0.4305
 6602TIP3    H244002   6.343   7.285   0.986 -0.0866 -1.3382 -1.0313
 6603TIP3   OH244003   3.935   3.967   0.539  0.2770  0.5643  0.4410
 6603TIP3    H144004   3.982   4.050   0.550  1.7887  0.0526 -1.6794
 6603TIP3    H244005   3.847   3.994   0.513  0.7145  1.5084 -0.1223
 6604TIP3   OH244006   0.924   0.513   8.941 -0.4121 -0.1703 -0.5670
 6604TIP3    H144007   0.974   0.564   9.004  2.6553 -1.0377 -2.1289
 6604TIP3    H244008   0.882   0.445   8.994  1.3009 -0.3223  0.6746
 6605TIP3   OH244009   1.173   2.792   8.932 -0.3235  0.0322  0.2443
 6605TIP3    H144010   1.183   2.805   8.837  1.1810  0.5054  0.4424
 6605TIP3    H244011   1.090   2.746   8.941  0.2884 -1.5441 -1.4481
 6606TIP3   OH244012   0.527   4.857   2.198 -0.3638  0.2558  0.0091
 6606TIP3    H144013   0.593   4.916   2.163  0.4245  0.1737  1.2889
 6606TIP3    H244014   0.535   4.866   2.293  0.7477 -2.8932  0.3433
 6607TIP3   OH244015   4.119   1.448   9.105 -0.3727 -0.0099 -0.2216
 6607TIP3    H144016   4.159   1.367   9.137 -2.5828 -0.6806  1.1188
 6607TIP3    H244017   4.034   1.420   9.070  0.0715  1.3689 -2.6179
 6608TIP3   OH244018   3.910   6.400   0.339 -0.7299 -0.2959 -0.6532
 6608TIP3    H144019   3.875   6.339   0.274 -0.3422 -0.4373 -0.7319
 6608TIP3    H244020   3.922   6.482   0.291  0.9872 -0.8152 -1.1588
 6609TIP3   OH244021   0.641   5.306   8.913  0.3402  0.1510 -0.4282
 6609TIP3    H144022   0.561   5.255   8.927  1.5392 -1.2093  2.2811
 6609TIP3    H244023   0.643   5.369   8.985  0.2687  2.2589 -2.1791
 6610TIP3   OH244024   3.579   1.330   7.194 -0.1820 -0.5266  0.3424
 6610TIP3    H144025   3.654   1.369   7.239  1.3907 -2.6887 -0.2414
 6610TIP3    H244026   3.618   1.262   7.139 -2.5213 -1.1222 -0.6671
 6611TIP3   OH244027   1.812   1.957   0.571 -1.0386 -0.6855  0.3526
 6611TIP3    H144028   1.733   1.914   0.603 -1.4136  0.5181  1.0673
 6611TIP3    H244029   1.854   1.991   0.650  0.3325 -1.5029  0.0122
 6612TIP3   OH244030   1.916   6.560   6.214  0.4641 -0.0463  0.1652
 6612TIP3    H144031   1.835   6.580   6.262 -0.6229 -0.2582 -1.4758
 6612TIP3    H244032   1.986   6.576   6.277 -0.7290  2.0562  1.0849
 6613TIP3   OH244033   1.513   4.780   8.382  0.2063  0.7010 -0.4696
 6613TIP3    H144034   1.521   4.708   8.320  0.7677  0.7380 -0.4392
 6613TIP3    H244035   1.519   4.739   8.468 -2.0551  0.4441 -0.3719
 6614TIP3   OH244036   7.111   5.592   0.547  0.0406 -0.5362  0.5209
 6614TIP3    H144037   7.032   5.622   0.501 -1.6025 -0.1618  3.3406
 6614TIP3    H244038   7.085   5.590   0.639  3.0994 -1.3152  1.4634
 6615TIP3   OH244039   3.237   2.139   0.178  0.0130  0.1068 -0.5593
 6615TIP3    H144040   3.151   2.163   0.145  0.2755  1.0314 -0.5972
 6615TIP3    H244041   3.268   2.071   0.117 -0.9249 -0.6850 -0.1843
 6616TIP3   OH244042   5.416   0.563   8.732 -0.0776  0.5390 -0.1131
 6616TIP3    H144043   5.455   0.576   8.819 -0.1351 -1.4489  0.2680
 6616TIP3    H244044   5.359   0.487   8.744 -0.4380  0.5203 -1.8056
 6617TIP3   OH244045   7.153   7.221   7.648  0.0481 -0.6756  0.1488
 6617TIP3    H144046   7.059   7.229   7.666  0.1498 -1.3985  1.0815
 6617TIP3    H244047   7.194   7.281   7.710  0.1485  1.0137 -1.4533
 6618TIP3   OH244048   3.294   4.740   8.101 -0.2306  0.3045  0.1400
 6618TIP3    H144049   3.211   4.708   8.066  0.4322  0.5281 -1.7403
 6618TIP3    H244050   3.283   4.736   8.196 -1.4303 -2.1835 -0.0192
 6619TIP3   OH244051   0.194   3.523   9.274 -0.0438  0.0820 -0.2422
 6619TIP3    H144052   0.116   3.574   9.295 -1.3117 -1.7156 -0.3378
 6619TIP3    H244053   0.254   3.587   9.236 -2.1214  1.2590 -1.8058
 6620TIP3   OH244054   6.705   0.409   0.734  0.5425 -0.5294  0.0349
 6620TIP3    H144055   6.644   0.342   0.704  1.7058 -2.1783  1.1334
 6620TIP3    H244056   6.677   0.430   0.823 -0.2821  1.0902 -0.5661
 6621TIP3   OH244057   1.725   1.988   0.234 -0.3001 -0.1563 -0.1733
 6621TIP3    H144058   1.673   2.043   0.292  0.6089 -0.2276  0.7222
 6621TIP3    H244059   1.661   1.951   0.173 -0.8645  2.3246 -1.1954
 6622TIP3   OH244060   2.812   1.427   2.912 -0.3344 -0.0153  0.2170
 6622TIP3    H144061   2.869   1.383   2.849  0.8572  1.2744  0.3458
 6622TIP3    H244062   2.750   1.360   2.939  0.4000 -1.1462 -0.8106
 6623TIP3   OH244063   2.776   3.650   9.013 -0.2368 -0.0110 -0.1594
 6623TIP3    H144064   2.752   3.737   9.044  0.0189  0.3469 -0.9471
 6623TIP3    H244065   2.706   3.625   8.953 -1.0671 -0.9768  1.1504
 6624TIP3   OH244066   5.830   5.898   2.302  0.2599 -0.4078 -0.1287
 6624TIP3    H144067   5.864   5.959   2.367  0.5907 -0.1691 -0.5155
 6624TIP3    H244068   5.908   5.852   2.270 -0.1517 -2.0762  1.1953
 6625TIP3   OH244069   0.267   0.093   8.116 -0.2438 -0.0900  0.0267
 6625TIP3    H144070   0.203   0.158   8.086  2.2169  1.1492 -3.0805
 6625TIP3    H244071   0.262   0.023   8.051  0.8782 -0.4302  0.2949
 6626TIP3   OH244072   4.765   5.669   9.016  0.1073  0.2900  0.1845
 6626TIP3    H144073   4.833   5.672   8.948  1.8856 -2.1064  1.6984
 6626TIP3    H244074   4.690   5.627   8.972  1.0614 -0.8048 -0.4586
 6627TIP3   OH244075   0.029   0.157   7.060  0.3569 -0.3930  0.3379
 6627TIP3    H144076   0.029   0.252   7.058  0.4869 -0.3978 -0.4373
 6627TIP3    H244077  -0.013   0.134   7.143  1.3378  0.3292  1.0550
 6628TIP3   OH244078   0.433   6.544   7.824  0.4535  0.2804 -0.6283
 6628TIP3    H144079   0.502   6.555   7.890 -0.2281  0.3715  0.0874
 6628TIP3    H244080   0.419   6.449   7.821  0.9619  0.2132 -1.1609
 6629TIP3   OH244081   1.057   6.772   6.805  0.0873  0.0992 -0.3303
 6629TIP3    H144082   0.963   6.787   6.807 -0.1592 -0.6319 -2.9018
 6629TIP3    H244083   1.095   6.860   6.812 -0.6701  0.3257  1.8514
 6630TIP3   OH244084   3.014   6.129   0.071 -0.0482 -0.1640  0.0371
 6630TIP3    H144085   3.071   6.053   0.058  0.1620  0.3219 -2.1944
 6630TIP3    H244086   3.073   6.199   0.099 -0.0632 -0.4525  0.8426
 6631TIP3   OH244087   6.881   4.845   1.384  0.5011 -0.2545  0.1676
 6631TIP3    H144088   6.929   4.926   1.401  0.4008  0.2417 -1.7074
 6631TIP3    H244089   6.948   4.782   1.357  0.5807 -0.8443  1.6307
 6632TIP3   OH244090   6.046   6.237   1.719 -0.1910  0.3886 -0.6107
 6632TIP3    H144091   6.046   6.161   1.661 -1.4792  0.6733 -1.0154
 6632TIP3    H244092   5.971   6.289   1.690 -1.3984  0.1437  1.8208
 6633TIP3   OH244093   1.686   3.610   8.617  0.3782  0.4481 -0.2203
 6633TIP3    H144094   1.692   3.581   8.709  1.1598 -0.1593 -0.4581
 6633TIP3    H244095   1.614   3.559   8.581 -0.0507  0.8189  0.0958
 6634TIP3   OH244096   3.173   6.894   7.209  0.4602 -0.1402  0.0883
 6634TIP3    H144097   3.258   6.861   7.181  1.0101  0.4070  1.0833
 6634TIP3    H244098   3.127   6.816   7.240  0.6454 -0.4141 -0.3124
 6635TIP3   OH244099   6.962   4.900   9.232 -0.6530 -0.0962  0.4830
 6635TIP3    H144100   6.888   4.931   9.283 -1.6841 -1.4464 -0.1417
 6635TIP3    H244101   6.924   4.859   9.155  0.7620 -0.4887 -0.0512
 6636TIP3   OH244102   2.189   5.307   1.748  0.6455 -0.4765 -0.1708
 6636TIP3    H144103   2.118   5.325   1.687  0.3807 -1.6633 -0.2476
 6636TIP3    H244104   2.191   5.382   1.807 -0.3313 -0.1919 -0.4948
 6637TIP3   OH244105   1.414   3.919   8.438 -0.5664  0.1467  0.2041
 6637TIP3    H144106   1.359   3.916   8.359  0.3920  0.6262 -0.4990
 6637TIP3    H244107   1.352   3.936   8.509 -1.2880  1.0584 -0.6191
 6638TIP3   OH244108   3.427   6.836   7.099 -0.0821  0.1575  0.2848
 6638TIP3    H144109   3.387   6.807   7.017  0.0022 -0.3375  0.4155
 6638TIP3    H244110   3.470   6.919   7.077 -0.9647  0.5671  0.0857
 6639TIP3   OH244111   1.403   1.655   7.209 -0.1075  0.1836  0.5835
 6639TIP3    H144112   1.400   1.565   7.176  1.5502  0.7814 -1.3844
 6639TIP3    H244113   1.363   1.707   7.140  1.3729  1.2317  0.4678
 6640TIP3   OH244114   3.953   2.425   0.612  0.1020 -0.3442 -0.1904
 6640TIP3    H144115   4.007   2.494   0.575 -0.3603 -0.2775 -0.7661
 6640TIP3    H244116   3.867   2.465   0.623 -0.2617 -0.9120 -0.8605
 6641TIP3   OH244117   2.936   2.358   7.560  0.3198  0.5029  0.4857
 6641TIP3    H144118   2.926   2.446   7.522  2.0261  1.1309  1.3962
 6641TIP3    H244119   2.853   2.342   7.604 -0.5953  0.9869 -0.9797
 6642TIP3   OH244120   5.582   6.641   7.590  1.3804 -0.3719 -0.4516
 6642TIP3    H144121   5.650   6.596   7.641  0.2145 -0.0743  1.4529
 6642TIP3    H244122   5.560   6.719   7.642 -3.3898 -2.5405  1.4585
 6643TIP3   OH244123   3.733   6.554   8.833  0.8901  0.4104 -0.0317
 6643TIP3    H144124   3.804   6.589   8.779  1.0405 -0.4855 -0.4273
 6643TIP3    H244125   3.670   6.519   8.771  0.0248  1.2975  0.3096
 6644TIP3   OH244126   1.136   4.160   1.517  0.0952  0.2127 -0.0178
 6644TIP3    H144127   1.171   4.149   1.429  0.7252  0.9839  0.1216
 6644TIP3    H244128   1.208   4.201   1.566 -0.3721  0.1258  0.7589
 6645TIP3   OH244129   2.441   3.513   9.506  0.1547  0.1712  0.8156
 6645TIP3    H144130   2.407   3.594   9.543 -0.4164  1.0009 -1.3750
 6645TIP3    H244131   2.502   3.542   9.438 -0.2402 -1.2183 -0.1637
 6646TIP3   OH244132   0.068   4.754   3.026  0.5214  0.1709  0.0074
 6646TIP3    H144133   0.147   4.741   3.079  1.3556 -0.2147 -1.2900
 6646TIP3    H244134  -0.004   4.749   3.089  1.5452  1.0255  1.2953
 6647TIP3   OH244135   1.045   2.188   9.148  0.2391 -0.3593  0.3333
 6647TIP3    H144136   1.112   2.172   9.082  0.6417  0.6005  0.4962
 6647TIP3    H244137   0.982   2.117   9.136 -0.6830  0.7729 -2.3194
 6648TIP3   OH244138   4.363   3.874   8.172 -0.8197  0.6578  0.3838
 6648TIP3    H144139   4.342   3.889   8.080  2.5171  1.6647 -0.3506
 6648TIP3    H244140   4.386   3.781   8.177 -0.5485  0.7111  0.0993
 6649TIP3   OH244141   6.757   3.496   8.833  0.4304  0.1069 -0.3175
 6649TIP3    H144142   6.785   3.586   8.852  0.5867  0.0188 -0.1223
 6649TIP3    H244143   6.722   3.465   8.916 -0.4771  0.2964 -0.6237
 6650TIP3   OH244144   3.996   4.866   1.831 -0.0204  0.4930 -0.3260
 6650TIP3    H144145   3.928   4.811   1.791  1.3983 -1.5017 -0.1295
 6650TIP3    H244146   3.985   4.951   1.788 -2.3391  0.1300 -0.6106
 6651TIP3   OH244147   3.488   2.455   8.988 -0.0986 -0.1515 -0.2840
 6651TIP3    H144148   3.517   2.399   9.061  1.1144  0.1548 -0.4981
 6651TIP3    H244149   3.561   2.451   8.926  0.9514  3.1866  0.5423
 6652TIP3   OH244150   6.694   4.417   8.571  0.4779 -0.2204  0.2989
 6652TIP3    H144151   6.756   4.369   8.517 -0.4902 -2.7137  1.2813
 6652TIP3    H244152   6.615   4.422   8.517 -0.0925 -1.6321  0.9644
 6653TIP3   OH244153   4.952   2.083   7.057  0.6310 -0.0023  0.3324
 6653TIP3    H144154   5.038   2.097   7.017 -0.6379  1.3762 -2.0993
 6653TIP3    H244155   4.927   2.168   7.092  1.4051 -1.0179  3.7541
 6654TIP3   OH244156   7.378   4.504   0.308 -0.1455 -0.8006  0.1023
 6654TIP3    H144157   7.360   4.569   0.375 -0.6848 -0.6623 -0.1719
 6654TIP3    H244158   7.422   4.433   0.355  3.5553  1.0795 -0.1074
 6655TIP3   OH244159   1.872   1.580   0.786 -0.1942  0.4344  0.4822
 6655TIP3    H144160   1.816   1.585   0.709  1.0226 -1.0730 -0.5582
 6655TIP3    H244161   1.826   1.520   0.845 -0.2243  0.0695  0.0966
 6656TIP3   OH244162   2.956   3.520   1.717 -0.4086  0.0418  0.0058
 6656TIP3    H144163   2.986   3.609   1.740  2.1019 -0.4448 -1.0507
 6656TIP3    H244164   2.901   3.532   1.640 -0.6924  0.7279  0.3046
 6657TIP3   OH244165   6.648   5.548   1.717  0.0973 -0.3888 -0.4770
 6657TIP3    H144166   6.645   5.642   1.730  1.1222 -0.3425 -0.4667
 6657TIP3    H244167   6.666   5.512   1.804  2.3967 -0.3871 -0.8882
 6658TIP3   OH244168   5.626   3.440   0.466  0.1746 -0.1123  0.1401
 6658TIP3    H144169   5.573   3.363   0.487 -0.0601  0.1681  0.6086
 6658TIP3    H244170   5.699   3.437   0.528  0.3832 -0.1756 -0.1084
 6659TIP3   OH244171   5.842   6.430   0.214 -0.2687 -0.0986  0.3754
 6659TIP3    H144172   5.913   6.413   0.152 -1.9418 -0.2085 -1.6212
 6659TIP3    H244173   5.790   6.349   0.214 -1.5380  0.6953  0.1888
 6660TIP3   OH244174   0.312   2.614   7.369  0.5475 -0.0743 -0.2891
 6660TIP3    H144175   0.366   2.543   7.403  0.3906 -0.1464 -0.1935
 6660TIP3    H244176   0.345   2.692   7.415  1.1438  0.0188 -0.8561
 6661TIP3   OH244177   5.121   5.467   2.071 -0.2295 -0.1098  0.5225
 6661TIP3    H144178   5.078   5.546   2.105  1.6122  0.4066  1.8055
 6661TIP3    H244179   5.147   5.490   1.982 -1.2094  0.1113  0.2869
 6662TIP3   OH244180   0.026   7.009   8.374  0.3274  0.3291  0.3842
 6662TIP3    H144181   0.080   6.998   8.453  0.0358 -0.0201  0.5347
 6662TIP3    H244182   0.023   6.922   8.335  1.0780  0.6431 -0.4192
 6663TIP3   OH244183   1.000   4.443   6.989  0.0692 -0.1869  0.0739
 6663TIP3    H144184   0.987   4.397   7.072 -3.5610 -2.3499 -1.4274
 6663TIP3    H244185   1.063   4.388   6.941  0.4442 -0.1681  0.5357
 6664TIP3   OH244186   3.417   6.782   9.659 -0.5040  0.2066 -0.1112
 6664TIP3    H144187   3.458   6.701   9.691  1.2175  0.9044 -0.4392
 6664TIP3    H244188   3.328   6.779   9.694  0.3187 -0.5680  2.1270
 6665TIP3   OH244189   5.796   6.850   1.158  0.3385  0.0267 -0.5381
 6665TIP3    H144190   5.807   6.843   1.063  1.2147 -0.1025 -0.4291
 6665TIP3    H244191   5.863   6.913   1.185 -0.1055  0.2940 -0.0356
 6666TIP3   OH244192   4.105   3.532   2.019 -0.1447  0.6990  0.6537
 6666TIP3    H144193   4.019   3.492   2.009  0.4270 -0.3182 -0.3706
 6666TIP3    H244194   4.144   3.529   1.932  2.1737 -1.8091  1.6358
 6667TIP3   OH244195   7.324   6.038   2.402  0.6276  0.2502  0.4904
 6667TIP3    H144196   7.280   6.042   2.487 -0.8990 -0.2771 -0.2505
 6667TIP3    H244197   7.313   5.948   2.373 -0.0221  0.7391 -0.8566
 6668TIP3   OH244198   4.380   6.874   7.483 -0.2470 -0.3555 -0.2859
 6668TIP3    H144199   4.301   6.894   7.533 -0.4909 -0.9837 -0.4150
 6668TIP3    H244200   4.348   6.849   7.396  0.0989 -0.5127 -0.3712
 6669TIP3   OH244201   0.615   1.739   7.565 -0.1838 -0.2375 -0.1228
 6669TIP3    H144202   0.682   1.806   7.556  0.6703 -1.2034 -1.1880
 6669TIP3    H244203   0.624   1.684   7.487 -2.3258 -0.3125 -0.3830
 6670TIP3   OH244204   6.663   4.049   9.351  0.5604  0.4930 -0.0071
 6670TIP3    H144205   6.615   4.131   9.343  0.6462  0.6511  0.9531
 6670TIP3    H244206   6.597   3.984   9.374  0.8230  0.7808  1.6781
 6671TIP3   OH244207   6.810   3.813   8.729  0.2131 -0.3237 -0.5843
 6671TIP3    H144208   6.763   3.885   8.686  0.8222  0.5163  0.1291
 6671TIP3    H244209   6.784   3.820   8.821  2.3745  0.7304  0.0046
 6672TIP3   OH244210   7.211   3.887   8.483  0.0442 -0.1592 -0.0395
 6672TIP3    H144211   7.300   3.869   8.455  0.0784  1.3979 -1.0768
 6672TIP3    H244212   7.161   3.811   8.453  0.9914 -1.0272  0.5167
 6673TIP3   OH244213   1.342   7.365   8.375 -0.0526 -0.1731 -0.1146
 6673TIP3    H144214   1.333   7.443   8.320 -0.2318 -0.0982  0.0239
 6673TIP3    H244215   1.253   7.335   8.391 -0.0137 -2.8653 -3.6447
 6674TIP3   OH244216   7.185   4.983   7.089  0.4295 -0.1597  0.4771
 6674TIP3    H144217   7.265   4.989   7.036  0.3626  1.9903  0.5515
 6674TIP3    H244218   7.137   4.909   7.052  1.3693 -0.0300 -1.0699
 6675TIP3   OH244219   6.964   0.325   1.190 -0.1407  0.0753  0.5030
 6675TIP3    H144220   6.935   0.252   1.245  0.3679 -0.0241  0.6486
 6675TIP3    H244221   6.890   0.384   1.188 -0.7612 -0.7004 -0.0563
 6676TIP3   OH244222   4.597   6.207   1.789 -0.5113 -0.2686  0.8597
 6676TIP3    H144223   4.572   6.274   1.853  2.6178  0.4261  1.5388
 6676TIP3    H244224   4.606   6.254   1.706 -1.0459 -0.4343  0.7052
 6677TIP3   OH244225   4.174   6.241   1.529  0.3826 -0.0265  0.0277
 6677TIP3    H144226   4.150   6.194   1.449  0.7510 -1.4418  0.7095
 6677TIP3    H244227   4.134   6.327   1.520  0.2848 -0.2126 -1.6028
 6678TIP3   OH244228   5.671   5.585   2.801  0.1515 -0.3014 -0.0960
 6678TIP3    H144229   5.608   5.578   2.729  1.1804  0.7848 -1.1531
 6678TIP3    H244230   5.742   5.525   2.777  1.1553  1.0854 -0.7457
 6679TIP3   OH244231   1.893   2.041   0.799 -0.0337 -0.2809 -0.1545
 6679TIP3    H144232   1.920   2.106   0.863 -0.9727  1.4040 -1.3880
 6679TIP3    H244233   1.866   1.966   0.851 -1.7371  1.3800  1.5027
 6680TIP3   OH244234   2.900   4.703   1.595  0.7188  0.0733 -0.0853
 6680TIP3    H144235   2.834   4.761   1.558  1.5020 -0.4394 -2.4769
 6680TIP3    H244236   2.850   4.632   1.636 -0.2046  0.8396  0.1270
 6681TIP3   OH244237   1.513   3.004   7.339 -0.0529 -0.4680 -0.1867
 6681TIP3    H144238   1.464   3.031   7.417 -1.6772 -2.3750 -0.4576
 6681TIP3    H244239   1.448   3.006   7.269  0.6759 -1.4964 -0.9080
 6682TIP3   OH244240   2.290   2.205   1.685  0.2133 -0.4620 -0.3707
 6682TIP3    H144241   2.355   2.178   1.620 -0.0407  0.7320 -1.1609
 6682TIP3    H244242   2.330   2.185   1.769  1.0016 -1.0640 -0.8749
 6683TIP3   OH244243   0.464   2.408   9.355  0.0069 -0.2400 -0.3214
 6683TIP3    H144244   0.379   2.445   9.380  0.9718  2.2533 -0.4527
 6683TIP3    H244245   0.442   2.324   9.315 -2.1607 -0.9436  2.0547
 6684TIP3   OH244246   4.514   1.501   9.639  0.0236  0.1275 -0.3613
 6684TIP3    H144247   4.570   1.575   9.617 -0.2992  0.6548  0.5286
 6684TIP3    H244248   4.485   1.466   9.554 -0.8246  1.8082 -0.8025
 6685TIP3   OH244249   6.126   4.855   7.636 -0.4155 -0.0615 -0.0715
 6685TIP3    H144250   6.087   4.799   7.704 -1.0583  1.5481  0.9451
 6685TIP3    H244251   6.216   4.869   7.665  0.0219 -1.2439 -0.7910
 6686TIP3   OH244252   6.326   4.359   0.996  0.3811 -0.3788  0.3117
 6686TIP3    H144253   6.278   4.356   0.913  2.8220  0.8611 -1.2871
 6686TIP3    H244254   6.347   4.268   1.015  3.2405 -0.5670 -2.7679
 6687TIP3   OH244255   4.216   1.963   2.535  0.2832  0.2014 -0.0897
 6687TIP3    H144256   4.149   2.001   2.591  1.4395  0.8428  0.9198
 6687TIP3    H244257   4.211   1.869   2.551  0.8689  0.4087  1.4402
 6688TIP3   OH244258   1.953   6.376   7.242  0.7267 -0.2556  0.7339
 6688TIP3    H144259   1.864   6.370   7.207  0.7183 -1.1184  0.8872
 6688TIP3    H244260   1.941   6.371   7.337  0.7623  1.8787  0.8983
 6689TIP3   OH244261   6.593   2.518   0.176  0.2226  0.4211  0.0692
 6689TIP3    H144262   6.533   2.443   0.177 -1.0331  1.3077 -1.7454
 6689TIP3    H244263   6.648   2.503   0.099  1.2276  0.4557  0.7629
 6690TIP3   OH244264   0.986   5.907   8.628 -0.2351  0.2247 -0.0636
 6690TIP3    H144265   0.971   5.923   8.535  1.3431  0.2367 -0.3381
 6690TIP3    H244266   1.058   5.966   8.651 -1.1169  0.7992  1.3667
 6691TIP3   OH244267   6.478   3.026   2.178  0.5526 -0.0699 -0.1880
 6691TIP3    H144268   6.490   3.087   2.105 -0.1463  0.6275  0.2717
 6691TIP3    H244269   6.387   2.997   2.171  0.0016  1.1722  1.2672
 6692TIP3   OH244270   5.314   2.613   1.703 -0.0559  0.0721 -0.1629
 6692TIP3    H144271   5.276   2.526   1.699  0.1642 -0.1130  1.2933
 6692TIP3    H244272   5.250   2.665   1.750  1.1470 -0.0940  1.7742
 6693TIP3   OH244273   1.815   6.360   0.495 -0.4624  0.4137 -0.0798
 6693TIP3    H144274   1.846   6.324   0.412  0.4141  1.5278 -0.2666
 6693TIP3    H244275   1.764   6.437   0.470 -0.8616  0.3038  0.3824
 6694TIP3   OH244276   4.633   7.337   8.570  0.0412 -0.1473  0.1744
 6694TIP3    H144277   4.700   7.283   8.529 -0.0913  0.6748 -1.1714
 6694TIP3    H244278   4.647   7.424   8.533 -1.2167  0.2285  0.5434
 6695TIP3   OH244279   3.170   2.410   9.589  0.3373  0.1721  0.0399
 6695TIP3    H144280   3.143   2.462   9.514 -2.1951 -3.6417 -2.0330
 6695TIP3    H244281   3.239   2.352   9.555 -0.6735 -1.4445  0.6065
 6696TIP3   OH244282   5.316   2.837   1.215 -0.0563 -1.0193 -0.8047
 6696TIP3    H144283   5.297   2.927   1.240  0.9414 -0.8270 -0.6988
 6696TIP3    H244284   5.230   2.798   1.199 -0.8549 -1.1769  2.9763
 6697TIP3   OH244285   6.342   0.901   1.413 -0.6482  0.6194 -0.1130
 6697TIP3    H144286   6.425   0.947   1.406 -0.5206  0.8282  2.0474
 6697TIP3    H244287   6.353   0.824   1.357  1.7804 -0.3798  1.5506
 6698TIP3   OH244288   3.923   2.185   8.234 -0.1102  0.1030 -0.6005
 6698TIP3    H144289   3.951   2.224   8.152 -0.4120  0.6146 -0.4704
 6698TIP3    H244290   3.835   2.151   8.216  0.2456 -0.7488 -0.7796
 6699TIP3   OH244291   0.870   1.266   2.034 -0.4607 -0.5530 -0.3730
 6699TIP3    H144292   0.821   1.319   1.971  0.1494 -0.4245 -0.7475
 6699TIP3    H244293   0.910   1.330   2.093  0.2442 -0.5887 -0.8019
 6700TIP3   OH244294   2.773   5.946   8.482  0.5594 -0.0593  0.4076
 6700TIP3    H144295   2.770   6.041   8.486  0.9627 -0.0769  2.6929
 6700TIP3    H244296   2.686   5.920   8.450  0.0311  1.0555  0.8996
 6701TIP3   OH244297   2.425   5.436   1.255 -0.0596  0.1364  0.1957
 6701TIP3    H144298   2.491   5.372   1.229  0.8492  1.2923 -0.4074
 6701TIP3    H244299   2.385   5.398   1.334 -0.3185 -1.6830 -0.7453
 6702TIP3   OH244300   4.771   5.602   0.209 -0.3411  0.3531  0.0272
 6702TIP3    H144301   4.695   5.546   0.229  0.0557  0.0520  0.7158
 6702TIP3    H244302   4.838   5.574   0.271  1.6096 -1.9184 -2.8261
 6703TIP3   OH244303   0.503   1.424   7.868  0.4203  0.5529 -0.0353
 6703TIP3    H144304   0.527   1.339   7.831  1.8497 -0.8306  3.6240
 6703TIP3    H244305   0.409   1.415   7.887  0.4204  0.0378 -0.2537
 6704TIP3   OH244306   5.404   6.091   0.288  1.0500 -0.6496  0.4266
 6704TIP3    H144307   5.470   6.054   0.346  1.1624 -0.3865  0.4707
 6704TIP3    H244308   5.445   6.090   0.201  1.2649 -0.1357  0.5149
 6705TIP3   OH244309   6.311   4.985   6.751  0.0717 -0.4894 -0.2699
 6705TIP3    H144310   6.300   5.073   6.787  2.0937 -0.4814  0.4376
 6705TIP3    H244311   6.324   4.999   6.657  1.1259  0.0503 -0.0562
 6706TIP3   OH244312   4.728   0.159   1.712  0.1102 -0.1577  0.0146
 6706TIP3    H144313   4.811   0.189   1.750  0.5234 -0.1925 -0.8156
 6706TIP3    H244314   4.666   0.228   1.734  0.6580  0.4921 -0.3975
 6707TIP3   OH244315   6.170   0.875   7.622  0.3299  0.3225 -0.6403
 6707TIP3    H144316   6.225   0.921   7.559 -0.0747 -1.9605 -2.8440
 6707TIP3    H244317   6.090   0.854   7.573 -0.7468 -0.0537  1.1838
 6708TIP3   OH244318   4.333   2.793   2.188  0.1347 -0.6730  0.2439
 6708TIP3    H144319   4.261   2.742   2.224  0.7564 -2.3824 -0.8253
 6708TIP3    H244320   4.397   2.798   2.260 -0.1071 -1.0418  0.4866
 6709TIP3   OH244321   1.514   2.443   1.408 -0.5340 -0.3173  0.0796
 6709TIP3    H144322   1.488   2.377   1.472  0.1476 -1.3303 -0.6502
 6709TIP3    H244323   1.601   2.471   1.435 -2.1289  3.0116  2.4701
 6710TIP3   OH244324   1.334   5.569   2.287 -0.0396  0.1452 -0.4413
 6710TIP3    H144325   1.420   5.530   2.300 -1.3303 -2.2449  1.8899
 6710TIP3    H244326   1.317   5.618   2.368 -1.3458 -0.5391 -0.2620
 6711TIP3   OH244327   4.368   2.570   1.967  0.8878 -0.4735 -0.0130
 6711TIP3    H144328   4.401   2.616   1.890 -0.0453  0.1144 -0.0803
 6711TIP3    H244329   4.305   2.631   2.006  0.9790 -0.9683  0.9366
 6712TIP3   OH244330   4.706   6.923   8.010 -0.1349  0.0018 -0.0020
 6712TIP3    H144331   4.636   6.932   8.074 -0.6957  1.6448 -0.7672
 6712TIP3    H244332   4.678   6.979   7.937  0.1735 -2.2379 -1.9686
 6713TIP3   OH244333   1.686   7.074   7.496 -0.3765 -0.0855 -0.2638
 6713TIP3    H144334   1.719   7.159   7.467  1.2459 -0.0641  1.4538
 6713TIP3    H244335   1.629   7.094   7.570 -1.4085 -0.4066 -0.9406
 6714TIP3   OH244336   0.039   5.137   1.023  0.1791 -0.2988 -0.6382
 6714TIP3    H144337   0.066   5.214   0.973 -0.0788 -0.0758 -0.4376
 6714TIP3    H244338   0.024   5.069   0.956  1.2062 -0.4275 -0.7523
 6715TIP3   OH244339   0.414   5.363   2.263 -0.0188 -0.1842  0.2651
 6715TIP3    H144340   0.453   5.291   2.212  2.4405  1.1594  0.0802
 6715TIP3    H244341   0.352   5.404   2.203  0.7012 -0.4167 -0.6730
 6716TIP3   OH244342   4.956   5.097   1.530  0.0102  0.4091 -0.0935
 6716TIP3    H144343   4.955   5.181   1.484  0.6067  0.7971  0.5815
 6716TIP3    H244344   5.048   5.083   1.552 -0.3764  0.7478  1.8951
 6717TIP3   OH244345   7.197   4.556   9.015  0.1946 -0.0501  0.5480
 6717TIP3    H144346   7.180   4.605   9.095 -0.3152  1.0809 -0.2259
 6717TIP3    H244347   7.170   4.615   8.944  0.4693 -1.0845 -0.4538
 6718TIP3   OH244348   2.195   7.392   8.191 -0.2546 -0.9168 -0.8103
 6718TIP3    H144349   2.253   7.430   8.125 -0.9584 -0.1931 -1.0343
 6718TIP3    H244350   2.251   7.336   8.244  1.1282  1.3890  0.3199
 6719TIP3   OH244351   3.915   5.239   0.672  0.4899  0.6329  0.4217
 6719TIP3    H144352   3.922   5.198   0.759  1.8395  1.8537  0.9272
 6719TIP3    H244353   3.899   5.166   0.612 -1.4019 -0.1532  1.7807
 6720TIP3   OH244354   1.290   5.840   0.291 -0.1061  0.6832 -0.0145
 6720TIP3    H144355   1.381   5.861   0.270  0.9011 -1.4904  1.7221
 6720TIP3    H244356   1.292   5.811   0.383 -2.8738  2.1942  0.6550
 6721TIP3   OH244357   1.550   6.861   1.018  0.1474 -0.6997  0.1239
 6721TIP3    H144358   1.545   6.947   0.976 -1.6437 -1.4119 -1.2512
 6721TIP3    H244359   1.621   6.816   0.972 -0.7585 -0.9100 -1.1279
 6722TIP3   OH244360   1.009   4.415   9.086  0.3330 -0.0763 -0.3878
 6722TIP3    H144361   0.922   4.404   9.049  0.2856  0.3141 -0.3954
 6722TIP3    H244362   1.000   4.489   9.146  0.9430  0.7894 -1.3177
 6723TIP3   OH244363   2.249   5.413   9.300 -0.5954 -0.6150 -0.4242
 6723TIP3    H144364   2.306   5.426   9.375  2.2299 -1.3935 -2.2887
 6723TIP3    H244365   2.238   5.502   9.264 -1.0280 -0.3914  0.2406
 6724TIP3   OH244366   4.526   2.354   9.290 -0.2032 -0.2610  0.1697
 6724TIP3    H144367   4.493   2.303   9.217 -2.3349  0.6332  0.4516
 6724TIP3    H244368   4.561   2.434   9.249  0.0614 -0.4559  0.0117
 6725TIP3   OH244369   2.753   0.715   6.951  0.0784 -0.2897  0.2647
 6725TIP3    H144370   2.818   0.770   6.906  0.8041 -1.5724 -0.3248
 6725TIP3    H244371   2.691   0.777   6.988  0.8247  0.9242 -0.4310
 6726TIP3   OH244372   4.808   5.873   8.317 -0.6066 -0.1218 -0.7793
 6726TIP3    H144373   4.892   5.876   8.272  0.5063 -1.3358  1.0637
 6726TIP3    H244374   4.791   5.779   8.330 -1.3402  0.1560  0.4493
 6727TIP3   OH244375   5.901   4.333   0.127 -0.1226  0.3969  0.1574
 6727TIP3    H144376   5.923   4.384   0.205 -1.0182  0.2345  0.5394
 6727TIP3    H244377   5.868   4.397   0.065 -0.3410  0.4103  0.2844
 6728TIP3   OH244378   0.280   0.446   1.542 -0.0163 -0.4106  0.5347
 6728TIP3    H144379   0.299   0.406   1.627 -1.2718 -0.8477  0.6357
 6728TIP3    H244380   0.362   0.487   1.516  0.1749  0.4888  2.3685
 6729TIP3   OH244381   6.028   0.619   9.179 -0.0417  0.4186  0.1656
 6729TIP3    H144382   6.098   0.577   9.229  0.2278 -1.1763 -1.4729
 6729TIP3    H244383   6.010   0.700   9.227  1.4131 -0.1840  1.8256
 6730TIP3   OH244384   0.884   2.844   8.455  0.6882 -0.1866  0.3320
 6730TIP3    H144385   0.930   2.760   8.459  1.4389  0.2283  0.5135
 6730TIP3    H244386   0.944   2.903   8.410  0.3282  0.3541  0.5492
 6731TIP3   OH244387   0.985   6.102   7.475  0.3530  0.1279  0.2122
 6731TIP3    H144388   0.988   6.192   7.507 -0.1263  0.7467 -1.3718
 6731TIP3    H244389   0.914   6.061   7.525  0.3636  0.7322  0.7263
 6732TIP3   OH244390   3.180   1.814   0.726 -0.3129 -0.4263  0.5767
 6732TIP3    H144391   3.249   1.748   0.719 -1.5120 -1.5686 -1.4036
 6732TIP3    H244392   3.105   1.775   0.681 -1.5211  1.7357  0.5845
 6733TIP3   OH244393   2.057   3.334   8.139  0.9845  0.0051  0.2474
 6733TIP3    H144394   1.995   3.336   8.066  1.3270 -0.8724 -0.0820
 6733TIP3    H244395   2.143   3.340   8.098  1.1512  0.5590  0.6615
 6734TIP3   OH244396   5.224   4.255   0.409 -0.4239 -0.1555  0.0528
 6734TIP3    H144397   5.305   4.204   0.421 -0.1168  0.2749 -0.1909
 6734TIP3    H244398   5.193   4.231   0.322 -1.1169 -1.1001  0.5399
 6735TIP3   OH244399   2.292   7.137   7.875  0.0956 -0.4013  0.0966
 6735TIP3    H144400   2.310   7.137   7.969  1.1074  1.3678 -0.0475
 6735TIP3    H244401   2.216   7.195   7.865  1.1926  1.0362 -0.3119
 6736TIP3   OH244402   0.348   1.664   8.855 -0.3234  0.0784 -0.1004
 6736TIP3    H144403   0.256   1.678   8.833 -0.8194 -0.2679  1.5667
 6736TIP3    H244404   0.386   1.751   8.861 -1.0608  0.3451  1.1080
 6737TIP3   OH244405   1.822   2.011   1.781 -0.1856 -0.5657  0.2937
 6737TIP3    H144406   1.733   2.039   1.759 -0.1326  0.3226  1.1390
 6737TIP3    H244407   1.874   2.034   1.704 -0.2157  1.4102  0.8006
 6738TIP3   OH244408   6.771   4.218   9.618  0.2048  0.2793  0.1596
 6738TIP3    H144409   6.755   4.308   9.590 -0.7635  0.4707  1.2444
 6738TIP3    H244410   6.684   4.181   9.634  0.6369 -0.3804  1.1209
 6739TIP3   OH244411   1.877   5.771   1.892 -0.1847  0.3379  0.0189
 6739TIP3    H144412   1.860   5.714   1.817 -2.9081  0.3202  0.5465
 6739TIP3    H244413   1.897   5.856   1.853  0.7191 -0.1906 -0.7221
 6740TIP3   OH244414   5.699   2.406   9.403  0.7391  0.4113  0.1122
 6740TIP3    H144415   5.731   2.331   9.454 -0.6757  0.0402  0.5232
 6740TIP3    H244416   5.692   2.373   9.314 -2.6260 -1.0137  0.7160
 6741TIP3   OH244417   2.356   3.971   7.700  0.5757 -0.0836 -0.0450
 6741TIP3    H144418   2.311   4.047   7.738  2.5000 -0.0655  2.4920
 6741TIP3    H244419   2.297   3.897   7.719  0.7951  0.1559  1.7892
 6742TIP3   OH244420   1.559   0.258   1.799  0.1891  0.3711  0.1395
 6742TIP3    H144421   1.549   0.166   1.825  1.2720  0.4369  0.8634
 6742TIP3    H244422   1.470   0.291   1.795 -0.1553 -0.2839  1.5069
 6743TIP3   OH244423   1.282   5.621   9.128 -0.0172 -0.0456 -0.4902
 6743TIP3    H144424   1.315   5.674   9.055  0.3784 -1.1007 -1.0962
 6743TIP3    H244425   1.349   5.628   9.195  0.8770 -1.1598 -1.2355
 6744TIP3   OH244426   0.073   5.632   6.528 -0.0802 -0.1340 -0.3182
 6744TIP3    H144427   0.036   5.584   6.602 -0.2349  0.4173 -0.0256
 6744TIP3    H244428   0.156   5.588   6.509  1.3899  1.4093  2.0517
 6745TIP3   OH244429   3.303   4.719   8.363 -0.6305  0.1355 -0.0628
 6745TIP3    H144430   3.251   4.681   8.434 -0.3576  2.2590  1.3643
 6745TIP3    H244431   3.350   4.792   8.404 -0.6023  1.5709 -2.4461
 6746TIP3   OH244432   1.710   5.949   1.203  0.3962  0.2464  0.2522
 6746TIP3    H144433   1.714   6.010   1.277  0.9808  0.2576  0.2208
 6746TIP3    H244434   1.645   5.987   1.143  0.2814  0.4948  0.5342
 6747TIP3   OH244435   1.766   6.216   1.328 -0.1516 -0.1227  0.0058
 6747TIP3    H144436   1.739   6.301   1.293 -1.6908 -0.3538  0.5492
 6747TIP3    H244437   1.860   6.224   1.341 -0.3402  1.6824  0.5406
 6748TIP3   OH244438   1.926   4.291   2.060  0.0824  0.6268 -0.0403
 6748TIP3    H144439   1.941   4.214   2.005  1.3047 -0.4001  1.6353
 6748TIP3    H244440   2.014   4.322   2.083 -0.3951  1.6190  0.5319
 6749TIP3   OH244441   3.589   5.590   7.762  0.4225 -0.4619  0.0383
 6749TIP3    H144442   3.596   5.578   7.668 -0.6120  0.0111 -0.1077
 6749TIP3    H244443   3.599   5.501   7.798  0.5947 -0.6741 -0.5246
 6750TIP3   OH244444   0.423   0.985   1.687 -0.0951  0.1070 -0.2815
 6750TIP3    H144445   0.352   0.985   1.623  1.1824 -1.4883 -1.7899
 6750TIP3    H244446   0.382   1.013   1.769 -2.3557 -0.3423 -1.1936
 6751TIP3   OH244447   5.255   7.145   1.366 -0.1094  0.0653 -0.1773
 6751TIP3    H144448   5.240   7.209   1.296 -0.4897 -0.4185 -0.5411
 6751TIP3    H244449   5.318   7.188   1.424 -0.8972  1.0598 -0.0322
 6752TIP3   OH244450   3.301   6.544   7.128  0.1187 -0.3503 -0.1222
 6752TIP3    H144451   3.221   6.565   7.175 -0.1086 -1.6519  0.1013
 6752TIP3    H244452   3.296   6.596   7.047 -0.5502  0.1945  0.2578
 6753TIP3   OH244453   0.027   5.280   8.919  0.1841  0.1011 -0.5191
 6753TIP3    H144454  -0.028   5.201   8.920  1.0373 -0.6325 -3.2305
 6753TIP3    H244455  -0.009   5.332   8.847  0.9946  1.1594 -0.1678
 6754TIP3   OH244456   6.862   0.630   8.583  0.0216 -0.1907  0.4964
 6754TIP3    H144457   6.831   0.720   8.580 -1.9519 -0.8191  0.7655
 6754TIP3    H244458   6.932   0.627   8.518 -0.4264  1.3384 -0.0995
 6755TIP3   OH244459   2.809   4.219   3.140  0.2129 -0.0758 -0.5949
 6755TIP3    H144460   2.870   4.218   3.066  0.5703  2.1297 -0.3983
 6755TIP3    H244461   2.743   4.284   3.115 -1.5365 -1.6792 -0.3554
 6756TIP3   OH244462   4.171   2.293   0.375  0.0876  0.8201 -0.3192
 6756TIP3    H144463   4.222   2.373   0.358  0.8568  0.5835  0.7475
 6756TIP3    H244464   4.176   2.282   0.470 -0.9276  0.0931 -0.3406
 6757TIP3   OH244465   3.806   1.677   8.836 -0.2574 -0.4317 -0.3555
 6757TIP3    H144466   3.718   1.706   8.861  0.1474  2.2635 -1.7223
 6757TIP3    H244467   3.803   1.674   8.740  0.8109 -1.5779 -0.3789
 6758TIP3   OH244468   6.285   2.472   0.007  0.3709 -0.3635  0.6052
 6758TIP3    H144469   6.319   2.409   0.071  0.5774 -0.4980  0.3634
 6758TIP3    H244470   6.361   2.498  -0.044  0.7479  1.8185  2.1447
 6759TIP3   OH244471   7.064   4.506   1.716 -0.6068  0.0351  0.0180
 6759TIP3    H144472   7.127   4.562   1.670  0.8741 -2.0702 -0.6752
 6759TIP3    H244473   7.103   4.492   1.803 -0.2942 -0.9457 -0.2695
 6760TIP3   OH244474   5.649   5.337   0.062  0.1441 -0.5386  0.0877
 6760TIP3    H144475   5.717   5.342  -0.006  1.7011  0.3098  1.6239
 6760TIP3    H244476   5.582   5.400   0.034  0.5398 -0.5341 -0.8815
 6761TIP3   OH244477   0.049   5.691   1.357  0.0546  0.1424 -0.0256
 6761TIP3    H144478  -0.044   5.687   1.335  0.3709  2.9879 -2.5249
 6761TIP3    H244479   0.093   5.648   1.284  0.7909 -2.2752  1.7036
 6762TIP3   OH244480   5.031   3.312   7.827 -0.5502 -0.0385  0.2757
 6762TIP3    H144481   4.992   3.386   7.780  0.1308 -0.3552 -0.8276
 6762TIP3    H244482   4.986   3.235   7.792  0.3086 -0.3177 -0.2438
 6763TIP3   OH244483   5.450   3.741   2.050  0.1890 -0.0647 -0.0609
 6763TIP3    H144484   5.485   3.711   2.134 -1.4305 -4.2777 -0.6660
 6763TIP3    H244485   5.360   3.768   2.070 -0.2439 -1.2008 -0.3816
 6764TIP3   OH244486   1.122   3.014   7.911 -0.1002 -0.1694  0.3197
 6764TIP3    H144487   1.067   3.027   7.833  0.3499  1.2116  0.2141
 6764TIP3    H244488   1.061   2.985   7.978 -0.9119  0.9337  0.0881
 6765TIP3   OH244489   1.984   0.661   8.993  0.2604 -0.3816  0.2036
 6765TIP3    H144490   1.905   0.699   8.954  0.9715 -1.5479 -2.6424
 6765TIP3    H244491   2.052   0.727   8.979  0.3255 -0.4138  0.3672
 6766TIP3   OH244492   4.680   1.075   7.672 -0.6114 -0.4276  0.7000
 6766TIP3    H144493   4.746   1.076   7.603  0.8345  1.4237  2.0048
 6766TIP3    H244494   4.723   1.035   7.747 -1.1876  0.1897  1.3768
 6767TIP3   OH244495   2.923   3.163   7.159  0.7172  0.2444 -0.3824
 6767TIP3    H144496   2.966   3.097   7.105  0.9137 -0.8790  1.0827
 6767TIP3    H244497   2.989   3.187   7.224  0.0975  0.6437  0.1110
 6768TIP3   OH244498   1.065   1.231   1.179  0.0378  0.0557 -0.4479
 6768TIP3    H144499   1.076   1.137   1.195 -0.4475  0.0417 -0.1820
 6768TIP3    H244500   1.006   1.236   1.104  0.3791  0.1498 -0.7160
 6769TIP3   OH244501   4.581   3.672   7.062 -1.1692 -0.1674 -0.7257
 6769TIP3    H144502   4.640   3.659   6.988 -2.3924 -0.6864 -1.6544
 6769TIP3    H244503   4.628   3.636   7.137 -0.2940 -0.5352 -1.4327
 6770TIP3   OH244504   6.323   1.183   7.028  0.5284  0.0151  0.0855
 6770TIP3    H144505   6.328   1.122   7.101  0.0573 -1.7308 -1.2643
 6770TIP3    H244506   6.413   1.215   7.017  0.6093  0.2890  1.3768
 6771TIP3   OH244507   6.512   3.584   7.942  0.2847  0.6708  0.2898
 6771TIP3    H144508   6.589   3.533   7.968  0.1469  0.4623  0.2938
 6771TIP3    H244509   6.447   3.518   7.916 -0.2986  0.7880  1.3772
 6772TIP3   OH244510   0.429   7.271   0.360 -0.3218 -0.2108  0.3542
 6772TIP3    H144511   0.420   7.226   0.444 -1.2476 -1.4882 -0.3872
 6772TIP3    H244512   0.342   7.267   0.321 -0.2019  1.4696 -0.1519
 6773TIP3   OH244513   1.287   0.952   0.839 -0.6354 -0.6219 -0.6978
 6773TIP3    H144514   1.356   0.885   0.839 -0.9967 -1.0706  1.6072
 6773TIP3    H244515   1.208   0.905   0.815 -0.6006 -0.6682 -0.7214
 6774TIP3   OH244516   1.006   2.248   1.169 -0.0483  0.4356 -0.5536
 6774TIP3    H144517   1.101   2.258   1.178 -0.2487  2.3066  0.0417
 6774TIP3    H244518   0.992   2.154   1.158  1.9017  0.1735 -1.1619
 6775TIP3   OH244519   6.330   0.130   7.420  0.5369  0.1495  0.1674
 6775TIP3    H144520   6.278   0.198   7.462  0.0614  0.0475 -0.2402
 6775TIP3    H244521   6.273   0.096   7.351  0.7903 -0.6112  0.3180
 6776TIP3   OH244522   2.619   2.580   1.376  0.7398  0.5810  0.1570
 6776TIP3    H144523   2.678   2.546   1.443 -0.6069  1.5016  1.8633
 6776TIP3    H244524   2.532   2.549   1.402  0.2793  0.1938 -1.6837
 6777TIP3   OH244525   5.729   4.806   0.824 -0.3847  0.7301  0.0062
 6777TIP3    H144526   5.811   4.855   0.811 -0.0180  0.1050 -0.1031
 6777TIP3    H244527   5.700   4.784   0.736 -1.2352  1.8355 -0.0098
 6778TIP3   OH244528   0.882   6.506   0.208 -0.4470  0.0314 -0.0461
 6778TIP3    H144529   0.790   6.489   0.191 -0.7972  0.5216  1.2446
 6778TIP3    H244530   0.924   6.421   0.203 -1.2932 -0.4839  1.1466
 6779TIP3   OH244531   1.515   0.958   8.029 -0.6677 -0.4759 -0.1209
 6779TIP3    H144532   1.469   0.891   7.978 -1.8170 -0.2328  0.5655
 6779TIP3    H244533   1.543   0.913   8.109 -1.2460 -0.1987  0.2414
 6780TIP3   OH244534   1.475   4.543   0.254 -0.4828 -0.0080 -0.2716
 6780TIP3    H144535   1.440   4.584   0.333 -0.2056 -1.2130  0.4924
 6780TIP3    H244536   1.450   4.451   0.260  2.5821 -0.9442  0.2458
 6781TIP3   OH244537   6.282   5.400   1.620 -1.0165  0.0108  0.6894
 6781TIP3    H144538   6.321   5.399   1.532  1.1480  0.1047  1.5914
 6781TIP3    H244539   6.213   5.334   1.616 -0.8827 -0.0693 -1.0502
 6782TIP3   OH244540   1.096   2.199   0.453 -0.3713  0.5533  0.0081
 6782TIP3    H144541   1.081   2.118   0.502  1.5809 -0.0739 -0.3188
 6782TIP3    H244542   1.046   2.265   0.500 -1.3553 -0.6819  0.7691
 6783TIP3   OH244543   1.538   6.629   9.614  0.1244 -0.2486  0.3193
 6783TIP3    H144544   1.452   6.670   9.607  0.6126  0.5872 -1.1597
 6783TIP3    H244545   1.524   6.539   9.586 -0.1666  0.0587 -0.5565
 6784TIP3   OH244546   4.730   3.650   1.156  0.5418 -0.4326 -0.5557
 6784TIP3    H144547   4.658   3.633   1.217  0.1302  1.0726 -0.5879
 6784TIP3    H244548   4.758   3.563   1.128 -1.1282 -1.0726 -0.3897
 6785TIP3   OH244549   1.496   7.354   2.081 -0.1848  0.2858 -0.5548
 6785TIP3    H144550   1.588   7.373   2.063 -0.5286  4.3457  0.9078
 6785TIP3    H244551   1.498   7.274   2.134  2.4680  0.2385 -0.5968
 6786TIP3   OH244552   3.554   6.631   6.900  0.3862 -0.2198  0.1123
 6786TIP3    H144553   3.470   6.674   6.917  0.5465 -0.2614  1.0378
 6786TIP3    H244554   3.531   6.553   6.850 -0.0365  0.2369 -0.4234
 6787TIP3   OH244555   0.547   1.542   8.236  0.6441  0.1736 -0.7062
 6787TIP3    H144556   0.574   1.469   8.292  0.9865  0.7564 -0.1088
 6787TIP3    H244557   0.608   1.539   8.162  0.7714 -0.0314 -0.5951
 6788TIP3   OH244558   6.673   1.492   1.176 -0.6199  0.1813  0.7120
 6788TIP3    H144559   6.672   1.534   1.090  1.9524 -3.7852 -1.5908
 6788TIP3    H244560   6.756   1.521   1.216  0.6115 -1.6215 -0.4001
 6789TIP3   OH244561   6.160   0.918   0.258  0.4135  0.3630  0.1526
 6789TIP3    H144562   6.186   0.965   0.337  0.7462  0.5350 -0.0540
 6789TIP3    H244563   6.068   0.941   0.245  1.0000  2.3422 -0.8887
 6790TIP3   OH244564   1.994   0.169   8.587 -0.0648 -0.0055  0.2506
 6790TIP3    H144565   2.068   0.224   8.611  0.9141 -1.0839 -0.2332
 6790TIP3    H244566   1.989   0.176   8.491  1.2898 -2.2160 -0.0443
 6791TIP3   OH244567   2.168   2.792   2.171  0.1199  0.5438  0.2592
 6791TIP3    H144568   2.209   2.865   2.124  0.6680 -0.3093 -0.6168
 6791TIP3    H244569   2.083   2.827   2.198  0.7043  1.7677  0.5743
 6792TIP3   OH244570   4.280   1.158   2.797  0.3280 -0.0187  0.3798
 6792TIP3    H144571   4.261   1.160   2.891  0.9025  0.1043  0.4935
 6792TIP3    H244572   4.371   1.128   2.792  0.1771 -0.3949 -0.1529
 6793TIP3   OH244573   4.675   1.889   9.276 -0.1377 -0.0623 -0.1938
 6793TIP3    H144574   4.731   1.965   9.290 -0.3954  0.0496  0.2769
 6793TIP3    H244575   4.614   1.891   9.350 -0.2398 -0.6428 -0.2577
 6794TIP3   OH244576   3.489   4.279   0.183 -0.7162 -0.7113  0.0819
 6794TIP3    H144577   3.462   4.367   0.156 -0.3544 -0.6004  0.0670
 6794TIP3    H244578   3.422   4.250   0.244  0.1076  0.3131  1.5311
 6795TIP3   OH244579   0.871   6.321   1.418 -0.0487  0.5747  0.3734
 6795TIP3    H144580   0.852   6.261   1.490 -0.1738  0.4845  0.2632
 6795TIP3    H244581   0.959   6.354   1.437  0.2880 -0.1485  0.0730
 6796TIP3   OH244582   3.772   5.279   7.436  0.6921 -0.1637 -0.2050
 6796TIP3    H144583   3.680   5.264   7.457 -0.3740  1.1113 -3.4341
 6796TIP3    H244584   3.799   5.201   7.388  0.2099  0.8432 -2.2070
 6797TIP3   OH244585   2.460   2.327   0.985 -0.8888  0.1197 -0.3612
 6797TIP3    H144586   2.488   2.241   0.954 -0.8632 -0.3893  1.0250
 6797TIP3    H244587   2.541   2.371   1.012 -0.6171  1.4102 -2.8681
 6798TIP3   OH244588   6.769   2.703   9.556  0.3380  0.3581  0.3904
 6798TIP3    H144589   6.781   2.622   9.507 -0.5891 -0.1753  1.0175
 6798TIP3    H244590   6.828   2.766   9.514  0.6731 -0.4927 -0.4356
 6799TIP3   OH244591   0.872   5.133   8.966  0.6206 -0.6451  0.1421
 6799TIP3    H144592   0.838   5.065   9.024  1.2677 -0.6090  0.5754
 6799TIP3    H244593   0.794   5.171   8.925  0.2998 -2.3709 -0.9664
 6800TIP3   OH244594   4.534   1.505   0.257  0.6110  0.3598 -0.2014
 6800TIP3    H144595   4.527   1.479   0.165  1.8059  0.8409 -0.4538
 6800TIP3    H244596   4.538   1.600   0.255 -1.4663  0.5089  0.5419
 6801TIP3   OH244597   0.191   0.540   6.352  0.2702  0.1108 -0.5206
 6801TIP3    H144598   0.155   0.488   6.280 -2.2558  1.6554 -0.4781
 6801TIP3    H244599   0.146   0.624   6.347  1.4850  0.9898  1.6817
 6802TIP3   OH244600   4.551   1.325   1.945 -0.0806  0.1226 -0.0707
 6802TIP3    H144601   4.595   1.351   1.865  0.7202  1.3305  0.7326
 6802TIP3    H244602   4.458   1.328   1.923  0.1209  0.6046 -0.8947
 6803TIP3   OH244603   1.533   7.107   9.495 -0.0141  0.0028  0.1870
 6803TIP3    H144604   1.547   7.200   9.513  2.6808 -0.1591 -0.6531
 6803TIP3    H244605   1.507   7.104   9.403  0.7283 -0.1139 -0.0228
 6804TIP3   OH244606   5.062   6.577   0.658  0.3425 -0.1024  0.0939
 6804TIP3    H144607   5.108   6.661   0.665  0.4182 -0.2314  1.3177
 6804TIP3    H244608   5.126   6.518   0.621  0.2018  0.4331 -1.0561
 6805TIP3   OH244609   3.130   5.925   2.674  0.0437  0.1297 -0.3387
 6805TIP3    H144610   3.166   6.014   2.676 -0.7206  0.4613 -0.9364
 6805TIP3    H244611   3.164   5.884   2.754  0.0876  1.0785  0.1504
 6806TIP3   OH244612   3.243   5.323   0.489 -0.3736  0.0795 -0.3003
 6806TIP3    H144613   3.311   5.295   0.550 -0.8127 -1.1590 -0.3646
 6806TIP3    H244614   3.277   5.303   0.402 -0.6264 -0.1117 -0.3576
 6807TIP3   OH244615   6.516   3.444   7.026  0.1645 -0.1486 -0.1730
 6807TIP3    H144616   6.444   3.425   6.966 -0.7875 -1.6276  1.3433
 6807TIP3    H244617   6.552   3.528   6.996 -1.8463  0.3629 -1.2955
 6808TIP3   OH244618   2.147   3.366   9.564  0.4131  0.6290 -0.0764
 6808TIP3    H144619   2.058   3.351   9.594  0.4229  0.5966 -0.0633
 6808TIP3    H244620   2.201   3.306   9.616  0.4370  0.6143 -0.1177
 6809TIP3   OH244621   6.543   3.974   1.197  0.0230  0.2480  0.0020
 6809TIP3    H144622   6.595   3.894   1.204  1.3313  1.0087 -0.5668
 6809TIP3    H244623   6.598   4.033   1.146 -1.3431  1.1684 -0.4652
 6810TIP3   OH244624   4.977   4.068   1.076 -0.1959  0.2667 -0.2783
 6810TIP3    H144625   4.918   4.141   1.058 -1.0523  0.7216  3.4597
 6810TIP3    H244626   4.936   4.021   1.149  2.7012 -1.0327  0.6964
 6811TIP3   OH244627   3.033   2.822   7.275  0.1730  0.3554 -0.6608
 6811TIP3    H144628   3.051   2.870   7.194 -0.7358  0.0143 -1.0784
 6811TIP3    H244629   3.094   2.859   7.339  1.8090 -0.2460 -1.8100
 6812TIP3   OH244630   1.447   6.125   7.235  0.0442  0.4758  0.3362
 6812TIP3    H144631   1.421   6.207   7.195  1.3510  1.0867  0.6985
 6812TIP3    H244632   1.379   6.107   7.300  0.1526  1.6923  0.8115
 6813TIP3   OH244633   2.367   3.278   1.407 -0.2175  0.2858  0.1102
 6813TIP3    H144634   2.409   3.240   1.329 -0.6570 -0.1535  0.0798
 6813TIP3    H244635   2.277   3.245   1.403 -0.0503 -0.3399  1.2003
 6814TIP3   OH244636   3.244   2.583   0.124 -0.2106 -0.3363 -0.4899
 6814TIP3    H144637   3.211   2.542   0.044  0.1708  0.1292 -0.8924
 6814TIP3    H244638   3.198   2.666   0.129 -0.6346 -0.5951  0.0741
 6815TIP3   OH244639   3.214   2.642   8.595  0.4977 -0.1879  0.2477
 6815TIP3    H144640   3.218   2.680   8.683  0.1121  0.1423  0.1283
 6815TIP3    H244641   3.284   2.577   8.594 -0.8741 -1.7714  1.5367
 6816TIP3   OH244642   6.404   1.657   8.516 -0.5401  0.8359 -0.1538
 6816TIP3    H144643   6.399   1.606   8.435 -0.0305  1.4155 -0.5540
 6816TIP3    H244644   6.339   1.726   8.506 -2.1045 -0.4155  0.8989
 6817TIP3   OH244645   4.228   6.584   8.863 -0.0997  0.4233  0.1915
 6817TIP3    H144646   4.279   6.584   8.944  0.2840  2.2062 -0.0008
 6817TIP3    H244647   4.294   6.588   8.793 -0.4491  1.0582 -0.1156
 6818TIP3   OH244648   6.375   5.453   6.975 -0.1936 -0.8577  0.1767
 6818TIP3    H144649   6.458   5.427   7.014  1.4151  0.8889 -1.8622
 6818TIP3    H244650   6.355   5.538   7.016 -1.0816 -1.3205  0.7439
 6819TIP3   OH244651   5.687   6.408   0.846  0.4138  0.4832 -0.2941
 6819TIP3    H144652   5.633   6.443   0.918  0.6373 -1.7143  1.0211
 6819TIP3    H244653   5.737   6.337   0.886  4.4010  2.3897 -1.4294
 6820TIP3   OH244654   0.095   4.532   1.166  0.2798 -0.2051 -0.5300
 6820TIP3    H144655   0.128   4.603   1.110  1.9991 -0.6602 -0.1450
 6820TIP3    H244656   0.082   4.459   1.106 -1.2689  0.3256 -0.8883
 6821TIP3   OH244657   1.922   6.073   2.270 -0.3374 -0.5799  0.0007
 6821TIP3    H144658   1.899   6.044   2.182 -0.0956 -1.4696  0.2183
 6821TIP3    H244659   2.015   6.051   2.278  0.0148  0.8195 -0.0328
 6822TIP3   OH244660   6.245   0.931   2.310 -0.1024 -0.2206  0.0584
 6822TIP3    H144661   6.200   0.923   2.394  0.9375  0.3445  0.6879
 6822TIP3    H244662   6.295   1.012   2.317  1.9257 -1.3929 -0.1658
 6823TIP3   OH244663   4.582   2.990   0.428  0.3875  0.1189 -0.6510
 6823TIP3    H144664   4.538   3.006   0.511  2.9740 -1.0683  1.1156
 6823TIP3    H244665   4.545   3.054   0.368 -1.0907  1.5202  1.5982
 6824TIP3   OH244666   7.281   4.688   1.211  0.1287  0.1817 -0.1118
 6824TIP3    H144667   7.217   4.616   1.209 -0.0453  0.3612 -1.4637
 6824TIP3    H244668   7.366   4.644   1.212  0.0480 -0.0726  2.2103
 6825TIP3   OH244669   6.061   0.334   8.158 -0.2746  0.6070  0.9322
 6825TIP3    H144670   6.065   0.243   8.186  1.4427  0.0006 -1.0419
 6825TIP3    H244671   5.969   0.347   8.133 -0.5468 -0.5602  1.2720
 6826TIP3   OH244672   4.902   6.314   0.084 -0.0130  0.0130  0.2605
 6826TIP3    H144673   4.870   6.296  -0.004 -0.2161  0.7024  0.1925
 6826TIP3    H244674   4.995   6.336   0.072 -0.0115 -0.0096  0.2319
 6827TIP3   OH244675   5.183   5.320   6.558 -0.7143 -0.0547 -0.2807
 6827TIP3    H144676   5.229   5.311   6.642 -2.2468  0.0534  0.6181
 6827TIP3    H244677   5.243   5.369   6.503  0.0270  0.5599  1.0175
 6828TIP3   OH244678   2.085   5.191   0.452  0.0871 -0.9418 -0.5191
 6828TIP3    H144679   2.040   5.264   0.495  1.5326  0.6301 -1.5394
 6828TIP3    H244680   2.062   5.114   0.505 -0.3758  0.4525  1.4377
 6829TIP3   OH244681   4.448   0.194   0.896 -0.3395 -0.1756 -0.1547
 6829TIP3    H144682   4.523   0.175   0.840  0.9732  3.0317  0.3088
 6829TIP3    H244683   4.484   0.199   0.984 -1.4598 -0.2774  0.3283
 6830TIP3   OH244684   0.046   2.332   0.919  0.1419  0.0250  0.5914
 6830TIP3    H144685   0.134   2.295   0.931  0.6321  0.3238 -1.6248
 6830TIP3    H244686   0.023   2.308   0.829 -1.0170  2.0402  0.2984
 6831TIP3   OH244687   0.341   2.469   7.905 -0.2851  0.2188 -0.0940
 6831TIP3    H144688   0.398   2.546   7.907 -0.6349  0.4896 -0.2455
 6831TIP3    H244689   0.275   2.490   7.839 -1.0550  0.2790  0.6665
 6832TIP3   OH244690   0.075   4.698   9.270  0.0434 -0.5327  0.1561
 6832TIP3    H144691   0.026   4.768   9.226  2.6103  1.6981  0.5737
 6832TIP3    H244692   0.056   4.710   9.363  0.8420 -0.0506  0.2671
 6833TIP3   OH244693   3.941   6.829   7.075 -0.7163 -0.7134  0.3783
 6833TIP3    H144694   4.023   6.782   7.062 -0.8083 -0.5722 -0.8139
 6833TIP3    H244695   3.906   6.842   6.987 -1.3116  0.4921  0.7622
 6834TIP3   OH244696   0.041   0.586   7.815 -0.1893  0.0069 -0.4702
 6834TIP3    H144697   0.024   0.498   7.781 -0.2507 -0.4468  0.6896
 6834TIP3    H244698   0.136   0.592   7.816 -0.0595 -1.2048  2.1797
 6835TIP3   OH244699   3.628   4.170   2.901  0.9526  0.6311 -0.3013
 6835TIP3    H144700   3.590   4.103   2.843  2.3847  0.2882 -0.8959
 6835TIP3    H244701   3.553   4.220   2.932 -0.0986 -0.8335 -0.3696
 6836TIP3   OH244702   3.458   0.532   8.190  0.1812  0.0909  0.2965
 6836TIP3    H144703   3.500   0.518   8.274  1.2394  0.0307 -0.2274
 6836TIP3    H244704   3.364   0.530   8.209  0.4105  0.4083  1.5171
 6837TIP3   OH244705   6.293   3.646   9.655 -0.0528 -0.1977 -0.1732
 6837TIP3    H144706   6.281   3.644   9.750  0.3979 -1.9610 -0.1159
 6837TIP3    H244707   6.277   3.556   9.627  0.3786  0.1678 -1.7050
 6838TIP3   OH244708   0.349   0.496   0.531 -0.1332 -0.5808 -0.5685
 6838TIP3    H144709   0.351   0.405   0.561 -0.1035 -0.3389  0.1900
 6838TIP3    H244710   0.350   0.548   0.612 -2.8892  0.0917 -0.8661
 6839TIP3   OH244711   4.561   2.160   9.581 -0.7341 -1.0068  0.5937
 6839TIP3    H144712   4.550   2.079   9.632 -0.1593 -1.4918 -0.0434
 6839TIP3    H244713   4.640   2.145   9.530 -1.2897 -0.5172 -0.4293
 6840TIP3   OH244714   0.400   0.369   7.177 -0.2098  0.5007 -0.1733
 6840TIP3    H144715   0.423   0.284   7.138 -1.1205  1.3639 -2.7903
 6840TIP3    H244716   0.461   0.431   7.139 -0.0948  1.1837  1.0700
 6841TIP3   OH244717   6.882   3.443   1.157 -0.1444 -0.2718 -0.1376
 6841TIP3    H144718   6.849   3.532   1.167  1.5500  0.4316 -0.4171
 6841TIP3    H244719   6.960   3.452   1.102 -0.9892 -2.1846 -1.7668
 6842TIP3   OH244720   4.065   3.545   9.018 -0.0402 -0.2662  0.3171
 6842TIP3    H144721   4.127   3.473   9.033  0.9149  0.5911  0.5349
 6842TIP3    H244722   4.055   3.548   8.923  0.8920  0.1214  0.2257
 6843TIP3   OH244723   6.698   2.444   6.820  0.1248 -0.3682  0.5003
 6843TIP3    H144724   6.750   2.417   6.744  0.8520  0.9183  0.5076
 6843TIP3    H244725   6.761   2.488   6.877 -0.5059 -0.9163  1.6543
 6844TIP3   OH244726   5.372   4.969   8.421 -0.0863  0.5519 -0.0247
 6844TIP3    H144727   5.311   4.987   8.492 -1.1022  1.5260 -1.0922
 6844TIP3    H244728   5.392   4.876   8.428 -2.0526  0.1003  0.0995
 6845TIP3   OH244729   6.310   5.630   8.089 -0.1463  0.9088  0.2650
 6845TIP3    H144730   6.315   5.535   8.099 -0.7382  0.7091 -1.0939
 6845TIP3    H244731   6.397   5.662   8.113  0.1370 -0.0106  0.4677
 6846TIP3   OH244732   0.022   3.405   7.504  0.1269 -0.2804  0.3185
 6846TIP3    H144733  -0.027   3.323   7.513 -0.1093 -0.1349  0.3643
 6846TIP3    H244734   0.058   3.401   7.416 -0.1828 -0.2756  0.1879
 6847TIP3   OH244735   3.405   6.045   1.303  0.5154 -0.0689  0.2274
 6847TIP3    H144736   3.378   5.954   1.316 -0.1712 -0.0046 -0.6125
 6847TIP3    H244737   3.423   6.050   1.209 -1.0712  1.0527 -0.0666
 6848TIP3   OH244738   1.044   6.811   8.306 -0.2746  0.0280  0.2174
 6848TIP3    H144739   1.137   6.794   8.317 -0.5151 -0.6281  1.5175
 6848TIP3    H244740   1.018   6.756   8.232 -0.2465 -2.5072  1.9284
 6849TIP3   OH244741   1.383   4.520   7.968 -0.1529  0.0408  0.1019
 6849TIP3    H144742   1.304   4.548   7.921 -0.2993 -0.1224  0.2449
 6849TIP3    H244743   1.455   4.544   7.911 -0.2778  0.6474  0.1931
 6850TIP3   OH244744   5.896   7.296   8.514  0.1226  0.3915  0.2595
 6850TIP3    H144745   5.948   7.303   8.594  0.1596  0.2222  0.2520
 6850TIP3    H244746   5.805   7.292   8.543  0.1110  0.7523  0.2694
 6851TIP3   OH244747   3.377   6.839   8.353  0.3916  0.1386 -0.0776
 6851TIP3    H144748   3.371   6.773   8.422  1.0718  0.5884  0.4352
 6851TIP3    H244749   3.350   6.921   8.396 -2.3130 -0.0852 -1.2064
 6852TIP3   OH244750   4.101   6.068   9.486 -0.6529  0.0337  0.1776
 6852TIP3    H144751   4.075   6.010   9.415  0.1268 -2.1129  1.5317
 6852TIP3    H244752   4.189   6.097   9.463 -0.8772  0.3351 -0.3035
 6853TIP3   OH244753   2.750   6.438   2.432 -0.2013  0.4667  0.0846
 6853TIP3    H144754   2.700   6.361   2.407 -0.3548  0.2818  0.9440
 6853TIP3    H244755   2.841   6.409   2.433 -0.1353  0.6127 -0.7480
 6854TIP3   OH244756   1.489   1.441   0.046 -0.3965 -0.0593 -0.3114
 6854TIP3    H144757   1.506   1.451  -0.048 -0.3783 -1.8569 -0.5532
 6854TIP3    H244758   1.399   1.410   0.050  0.1308 -1.6333  0.1115
 6855TIP3   OH244759   3.776   0.735   7.869 -0.3911  0.5575 -0.2131
 6855TIP3    H144760   3.759   0.641   7.864  0.1748  0.4793 -0.6904
 6855TIP3    H244761   3.712   0.767   7.933  0.1727 -0.3401  0.8333
 6856TIP3   OH244762   5.306   3.337   7.001  0.1977  0.1114 -0.2018
 6856TIP3    H144763   5.375   3.402   6.989 -0.2576  0.3620 -1.7281
 6856TIP3    H244764   5.255   3.342   6.920 -0.0016 -1.9822 -0.2465
 6857TIP3   OH244765   0.638   0.909   2.327 -0.2938  0.3719  0.2525
 6857TIP3    H144766   0.614   0.996   2.296  1.0193  0.5451 -0.3011
 6857TIP3    H244767   0.728   0.918   2.358 -0.7808 -0.3461  1.9864
 6858TIP3   OH244768   5.772   7.315   2.046  0.4707 -0.7559  0.0970
 6858TIP3    H144769   5.797   7.406   2.028  0.4600 -0.4462  1.4787
 6858TIP3    H244770   5.789   7.305   2.140 -0.5385 -1.8638  0.1767
 6859TIP3   OH244771   4.306   6.791   9.634 -0.1270  0.2584  0.1440
 6859TIP3    H144772   4.375   6.761   9.576 -1.0099  0.8580 -1.2739
 6859TIP3    H244773   4.290   6.717   9.693  1.3259 -0.0746  0.1585
 6860TIP3   OH244774   7.306   4.729   7.291 -0.3500 -0.3430  0.3732
 6860TIP3    H144775   7.210   4.728   7.282 -0.4299 -1.9441  1.0773
 6860TIP3    H244776   7.336   4.779   7.215 -1.7357  0.0833  0.0729
 6861TIP3   OH244777   2.591   4.724   8.730 -0.1977  0.0329 -0.2390
 6861TIP3    H144778   2.611   4.640   8.689 -2.2169 -0.2110 -0.8224
 6861TIP3    H244779   2.633   4.790   8.674  0.5928 -0.5284 -0.3115
 6862TIP3   OH244780   0.123   2.137   0.072 -0.2685  0.7749  0.5881
 6862TIP3    H144781   0.080   2.222   0.067 -0.1569  0.7834 -0.3017
 6862TIP3    H244782   0.158   2.122  -0.016  0.2497  0.0905  0.9000
 6863TIP3   OH244783   0.708   0.295   0.405  0.3503 -0.3376  0.0852
 6863TIP3    H144784   0.668   0.346   0.475 -0.7581  0.5682 -1.1641
 6863TIP3    H244785   0.635   0.251   0.363  1.2009 -2.4370  0.6566
 6864TIP3   OH244786   3.560   0.247   7.463 -0.7090 -0.0104 -0.2734
 6864TIP3    H144787   3.640   0.230   7.513 -0.2650  0.8133 -0.6924
 6864TIP3    H244788   3.570   0.195   7.383 -0.6539 -0.0135 -0.2646
 6865TIP3   OH244789   6.682   4.366   1.076 -0.1028 -0.4939  0.1967
 6865TIP3    H144790   6.728   4.313   1.012 -1.3674  0.3889 -1.5049
 6865TIP3    H244791   6.666   4.305   1.149 -1.6222 -2.5537 -1.7208
 6866TIP3   OH244792   0.906   4.962   8.067 -0.1437  0.2105  0.3788
 6866TIP3    H144793   0.884   4.959   8.160 -0.7698 -0.6675  0.2145
 6866TIP3    H244794   0.928   4.872   8.045  0.7187  0.5417 -0.1671
 6867TIP3   OH244795   1.259   6.816   9.244  0.0451  0.1892 -0.0137
 6867TIP3    H144796   1.232   6.861   9.324 -2.3304 -0.8831 -0.1398
 6867TIP3    H244797   1.213   6.862   9.174 -0.2343 -0.7143 -0.4331
 6868TIP3   OH244798   0.717   0.937   9.365 -0.3238  0.0692 -0.0534
 6868TIP3    H144799   0.679   0.858   9.325 -1.0368  0.2444  0.2472
 6868TIP3    H244800   0.741   0.909   9.453 -2.1032  0.5638  0.6459
 6869TIP3   OH244801   2.242   7.363   1.856  0.6375  0.3676  0.2135
 6869TIP3    H144802   2.214   7.396   1.942 -0.5358 -0.6316  0.2543
 6869TIP3    H244803   2.326   7.322   1.872  0.1167 -0.4101  1.0563
 6870TIP3   OH244804   5.564   6.633   6.835 -0.6774 -0.0453  0.2509
 6870TIP3    H144805   5.566   6.541   6.810  0.4408  0.0214  0.0546
 6870TIP3    H244806   5.656   6.657   6.845 -0.9685  0.9869  0.5391
 6871TIP3   OH244807   6.942   1.084   8.954 -0.0409 -0.4096 -0.3202
 6871TIP3    H144808   6.955   1.081   8.859  0.0271 -0.6543 -0.3037
 6871TIP3    H244809   7.030   1.080   8.990  0.0561  1.4668 -0.2759
 6872TIP3   OH244810   2.174   4.231   7.785  0.0078 -0.0812  0.4754
 6872TIP3    H144811   2.113   4.258   7.853 -2.0129  0.6736 -1.5089
 6872TIP3    H244812   2.121   4.178   7.725  1.7395 -0.8318 -0.4626
 6873TIP3   OH244813   1.436   6.739   1.754  0.4407 -0.3100  0.1013
 6873TIP3    H144814   1.466   6.808   1.694  3.3183 -1.3205  0.1983
 6873TIP3    H244815   1.437   6.780   1.840  0.1714  0.0623 -0.0714
 6874TIP3   OH244816   0.563   1.043   9.136 -0.3121 -0.2636 -0.0368
 6874TIP3    H144817   0.524   1.129   9.118 -1.2941 -0.2974  1.7093
 6874TIP3    H244818   0.574   1.041   9.231  1.9031 -1.1801 -0.2650
 6875TIP3   OH244819   0.758   6.201   1.634  0.0116 -0.1371 -0.3882
 6875TIP3    H144820   0.693   6.140   1.597 -0.0513  0.5131 -1.3918
 6875TIP3    H244821   0.739   6.202   1.728 -0.2005 -1.4005 -0.4000
 6876TIP3   OH244822   4.620   3.878   7.786 -0.1783  0.5369 -0.6647
 6876TIP3    H144823   4.573   3.917   7.712 -0.2457 -1.5004 -1.7769
 6876TIP3    H244824   4.603   3.937   7.859 -2.0976  1.3862 -1.7095
 6877TIP3   OH244825   2.447   5.071   6.810 -0.3254 -0.4956  0.3780
 6877TIP3    H144826   2.463   5.165   6.795 -0.4739  0.0206  2.9610
 6877TIP3    H244827   2.491   5.028   6.737  0.4658  1.5535 -0.4526
 6878TIP3   OH244828   7.389   1.668   6.454  0.0531  0.2722  0.1893
 6878TIP3    H144829   7.442   1.637   6.527 -0.1354  1.0460  0.6640
 6878TIP3    H244830   7.359   1.588   6.411  2.4333 -0.2094 -0.7357
 6879TIP3   OH244831   6.727   0.032   2.294  0.8132 -0.2857 -0.4457
 6879TIP3    H144832   6.676  -0.039   2.333  1.1057  0.2692  1.0397
 6879TIP3    H244833   6.683   0.052   2.212 -0.3718 -0.9377  0.0080
 6880TIP3   OH244834   6.847   7.099   7.980 -0.0800  0.6385 -0.4348
 6880TIP3    H144835   6.939   7.076   7.989  0.0176  1.5033  0.8857
 6880TIP3    H244836   6.818   7.048   7.904  1.5172  0.5000 -0.9904
 6881TIP3   OH244837   2.604   7.096   0.632 -0.5437 -0.2350  0.1002
 6881TIP3    H144838   2.529   7.155   0.637  0.0260  0.5495 -0.3862
 6881TIP3    H244839   2.634   7.102   0.541  1.3318  1.0384  0.7302
 6882TIP3   OH244840   4.647   1.284   8.600 -0.0926 -0.1718 -0.4724
 6882TIP3    H144841   4.636   1.363   8.653 -0.8836 -0.6853  0.1663
 6882TIP3    H244842   4.602   1.215   8.650  0.6927 -1.0591 -0.9406
 6883TIP3   OH244843   5.002   4.680   9.489 -0.4392 -0.0646  0.0852
 6883TIP3    H144844   4.928   4.643   9.538  0.2166 -0.5377  0.7391
 6883TIP3    H244845   4.964   4.706   9.405 -1.3949 -0.1115  0.4815
 6884TIP3   OH244846   6.152   0.475   7.802  0.0457  0.0988 -0.6014
 6884TIP3    H144847   6.192   0.474   7.715 -0.9587  0.3994 -1.0923
 6884TIP3    H244848   6.082   0.409   7.797  0.4920 -0.4512  0.2401
 6885TIP3   OH244849   7.272   0.293   0.283 -0.1376 -0.0378  0.3377
 6885TIP3    H144850   7.193   0.343   0.262 -0.1066 -0.0076  0.2927
 6885TIP3    H244851   7.338   0.358   0.304 -0.9298 -0.0860  3.4784
 6886TIP3   OH244852   0.048   4.171   8.038 -0.2054 -0.2596  0.0436
 6886TIP3    H144853   0.011   4.225   7.969  0.9276  0.4393 -0.0555
 6886TIP3    H244854  -0.021   4.110   8.061 -0.8697  0.0068 -1.1607
 6887TIP3   OH244855   5.056   0.100   1.540  0.2834  0.4170  0.4223
 6887TIP3    H144856   4.987   0.127   1.479 -1.7683  0.5249  2.6103
 6887TIP3    H244857   5.110   0.039   1.490 -1.5037  0.1828 -1.3746
 6888TIP3   OH244858   0.745   5.160   1.374 -0.0288  0.1205 -0.2620
 6888TIP3    H144859   0.808   5.096   1.407 -2.3336 -1.3048  1.7675
 6888TIP3    H244860   0.729   5.135   1.283 -0.6415 -2.1066  0.3948
 6889TIP3   OH244861   6.965   6.551   8.777  0.1238 -0.5927 -0.1393
 6889TIP3    H144862   7.042   6.520   8.825 -0.6069 -2.9617 -0.3349
 6889TIP3    H244863   7.000   6.599   8.702  1.2933  1.9317  1.8722
 6890TIP3   OH244864   7.202   3.119   8.281  0.1369  0.7845 -0.1825
 6890TIP3    H144865   7.121   3.170   8.271 -0.2287 -0.0731 -2.1240
 6890TIP3    H244866   7.179   3.051   8.344 -0.5087  0.8402 -0.3429
 6891TIP3   OH244867   6.137   7.074   2.107 -0.6020  0.1060 -0.1611
 6891TIP3    H144868   6.196   7.130   2.158 -2.4900  1.0377  1.1140
 6891TIP3    H244869   6.192   7.001   2.080  1.2571  1.1551  0.5352
 6892TIP3   OH244870   2.232   0.536   2.656 -0.5300 -0.0228 -0.6694
 6892TIP3    H144871   2.319   0.534   2.615 -0.3536 -1.3832 -0.2795
 6892TIP3    H244872   2.239   0.603   2.724 -0.8025  2.2355 -2.7149
 6893TIP3   OH244873   5.485   5.105   7.414 -0.0155  0.0136  0.4972
 6893TIP3    H144874   5.406   5.103   7.359 -0.9139 -0.0888  1.7368
 6893TIP3    H244875   5.546   5.160   7.366 -0.5133 -0.6290 -0.9230
 6894TIP3   OH244876   5.855   4.053   7.961  0.3338  0.1033  0.0226
 6894TIP3    H144877   5.934   4.066   7.908  1.0145 -1.7735  0.4970
 6894TIP3    H244878   5.874   4.095   8.044 -0.4334  2.3747 -0.8652
 6895TIP3   OH244879   1.466   7.109   2.213 -0.3362  0.0018 -0.0217
 6895TIP3    H144880   1.475   7.041   2.146 -0.6990  2.3706 -2.6415
 6895TIP3    H244881   1.554   7.118   2.249  0.2509 -0.2550 -1.3168
 6896TIP3   OH244882   5.693   5.535   9.104  0.3600  0.5106  0.6850
 6896TIP3    H144883   5.775   5.506   9.063 -0.7240  0.6738 -1.7677
 6896TIP3    H244884   5.676   5.621   9.064 -0.1679  1.2857  2.4648
 6897TIP3   OH244885   4.778   3.906   1.247  0.1972 -0.4025  0.3601
 6897TIP3    H144886   4.704   3.956   1.212 -0.5788 -0.8348  1.3615
 6897TIP3    H244887   4.774   3.822   1.200  1.3380  0.3045 -1.1198
 6898TIP3   OH244888   4.135   3.027   0.891  0.3376  0.5075  0.0437
 6898TIP3    H144889   4.136   3.004   0.798  1.8726  0.5176  0.0366
 6898TIP3    H244890   4.043   3.021   0.916 -0.2754  1.6596 -1.7544
 6899TIP3   OH244891   4.162   0.663   8.630  0.0640  0.2676 -0.3185
 6899TIP3    H144892   4.151   0.703   8.716  0.9280 -0.2867  0.0637
 6899TIP3    H244893   4.205   0.579   8.647 -1.2685 -0.6247 -1.1536
 6900TIP3   OH244894   6.196   7.171   2.418  0.4633 -0.5027  0.4447
 6900TIP3    H144895   6.121   7.126   2.378 -1.3429  1.4104  1.4628
 6900TIP3    H244896   6.262   7.174   2.349 -1.6594  0.6918 -1.6998
 6901TIP3   OH244897   2.762   5.284   7.407  0.2576  0.4366 -0.0872
 6901TIP3    H144898   2.713   5.363   7.431  1.3232  0.4941  2.1148
 6901TIP3    H244899   2.791   5.301   7.317 -1.5554  1.4809 -0.5458
 6902TIP3   OH244900   5.323   1.157   0.862  0.1490  0.6708  0.8110
 6902TIP3    H144901   5.235   1.120   0.854 -0.0797  0.6837  2.8796
 6902TIP3    H244902   5.382   1.083   0.854  0.1022  0.8334 -2.0872
 6903TIP3   OH244903   1.529   3.436   1.237 -0.0233  0.5836 -0.1734
 6903TIP3    H144904   1.502   3.525   1.214  0.4058  0.3743 -1.5950
 6903TIP3    H244905   1.522   3.387   1.155  0.0499 -0.6253  0.5200
 6904TIP3   OH244906   6.676   2.975   1.558  0.7756 -0.3291 -0.2851
 6904TIP3    H144907   6.586   2.981   1.590  0.7925 -2.4923  0.3283
 6904TIP3    H244908   6.681   3.040   1.488 -0.7387  1.0303  0.7931
 6905TIP3   OH244909   5.108   4.169   1.580  0.1796  0.1593 -0.4829
 6905TIP3    H144910   5.027   4.129   1.612 -0.2897 -0.5079 -2.3659
 6905TIP3    H244911   5.115   4.251   1.628 -0.4627 -0.7687  1.2732
 6906TIP3   OH244912   1.833   5.481   7.546  0.3511  0.0095  0.0697
 6906TIP3    H144913   1.862   5.432   7.622 -2.9603  0.2908  1.6848
 6906TIP3    H244914   1.824   5.571   7.576  2.2595  0.9014 -1.7042
 6907TIP3   OH244915   5.777   4.146   7.112 -0.2685  0.3570  0.3939
 6907TIP3    H144916   5.776   4.053   7.091  1.0085  0.5828 -0.7978
 6907TIP3    H244917   5.809   4.151   7.202 -0.3568 -0.3471  0.4642
 6908TIP3   OH244918   6.077   6.311   7.435 -0.4544 -0.7657  0.4281
 6908TIP3    H144919   6.009   6.348   7.492 -0.7723  0.6483 -0.8084
 6908TIP3    H244920   6.056   6.344   7.348  2.3694  0.5965  0.1582
 6909TIP3   OH244921   1.957   6.559   9.231 -0.4003  0.4982  0.8699
 6909TIP3    H144922   1.875   6.604   9.250 -0.8913  1.0391 -2.0371
 6909TIP3    H244923   2.015   6.627   9.197  0.8376 -0.1089  1.6731
 6910TIP3   OH244924   1.669   6.323   2.754  0.3501 -0.1906 -0.9622
 6910TIP3    H144925   1.625   6.395   2.709  0.1153 -1.1540 -2.3501
 6910TIP3    H244926   1.629   6.244   2.716 -2.6858 -1.2206  3.5942
 6911TIP3   OH244927   1.345   0.412   1.607 -0.5178 -0.3355  0.4972
 6911TIP3    H144928   1.281   0.464   1.559 -0.2768  0.9156  1.4835
 6911TIP3    H244929   1.304   0.326   1.617 -1.2331 -0.1307 -0.5248
 6912TIP3   OH244930   3.822   3.440   0.725  0.5021  0.0892 -0.0277
 6912TIP3    H144931   3.833   3.437   0.630 -2.2612  1.0300 -0.4968
 6912TIP3    H244932   3.728   3.427   0.738  0.1894  3.3341  2.2966
 6913TIP3   OH244933   3.026   5.143   8.720 -0.3907  0.5118 -0.1675
 6913TIP3    H144934   3.007   5.223   8.769  1.7112 -0.2554  2.1166
 6913TIP3    H244935   3.052   5.174   8.634  0.0405  2.3101  0.5508
 6914TIP3   OH244936   5.537   4.619   1.628  0.1077 -0.6199 -0.5227
 6914TIP3    H144937   5.514   4.534   1.664  1.0800 -0.2651  1.0056
 6914TIP3    H244938   5.609   4.650   1.682 -0.2343  1.1994 -1.0278
 6915TIP3   OH244939   0.340   3.979   8.647  0.3779 -0.1520  0.3663
 6915TIP3    H144940   0.355   3.957   8.739  0.8109 -1.2081  0.0649
 6915TIP3    H244941   0.428   3.990   8.610  0.1886  1.1450  0.2630
 6916TIP3   OH244942   7.099   1.831   9.593  0.3446 -0.2058  0.7089
 6916TIP3    H144943   7.117   1.744   9.628 -0.1592 -0.9944 -0.9034
 6916TIP3    H244944   7.162   1.888   9.637  1.6989 -1.6335  0.6909
 6917TIP3   OH244945   1.016   5.678   1.295 -0.8209  0.0096  0.1231
 6917TIP3    H144946   1.057   5.764   1.295 -0.2071 -0.2756  0.1914
 6917TIP3    H244947   1.084   5.619   1.328 -0.5374 -0.8388 -1.8456
 6918TIP3   OH244948   4.385   0.132   0.467  0.4828  0.1536  0.1714
 6918TIP3    H144949   4.461   0.086   0.432  0.0833  0.1905 -0.7986
 6918TIP3    H244950   4.322   0.131   0.395  0.1222  1.4133  0.4400
 6919TIP3   OH244951   4.178   0.492   8.029  0.1025 -0.0832 -0.0278
 6919TIP3    H144952   4.168   0.587   8.024 -2.9834 -0.3895 -2.1978
 6919TIP3    H244953   4.251   0.472   7.970  1.4355  0.9453  1.2101
 6920TIP3   OH244954   0.936   4.212   2.102  0.1128  0.4490 -0.2577
 6920TIP3    H144955   0.927   4.284   2.164  3.2380  1.5500 -0.9186
 6920TIP3    H244956   1.017   4.167   2.128  0.5575 -0.1536 -2.4292
 6921TIP3   OH244957   4.420   3.769   0.962 -0.1031 -0.1254 -0.0387
 6921TIP3    H144958   4.453   3.740   0.876  1.5293 -0.7751  0.7640
 6921TIP3    H244959   4.470   3.848   0.981  0.9033 -0.9948  1.0978
 6922TIP3   OH244960   4.111   2.599   0.474 -0.2017  0.1949  0.7561
 6922TIP3    H144961   4.205   2.620   0.471 -0.0032 -0.6481  0.8657
 6922TIP3    H244962   4.078   2.626   0.388 -0.0727  1.4256  1.0737
 6923TIP3   OH244963   3.828   2.183   0.586 -0.1381 -0.1306  0.0711
 6923TIP3    H144964   3.734   2.202   0.593 -0.5108 -0.9766 -1.9935
 6923TIP3    H244965   3.868   2.269   0.572 -0.6688  0.1703  0.3464
 6924TIP3   OH244966   7.085   4.274   1.077 -0.3260  0.2663 -0.0260
 6924TIP3    H144967   7.121   4.271   0.988  0.2105  0.0604  0.1949
 6924TIP3    H244968   7.133   4.207   1.125  0.3716  1.3269  0.7876
 6925TIP3   OH244969   4.964   6.693   7.506  0.0542  0.1406 -0.7111
 6925TIP3    H144970   4.904   6.745   7.559  1.1912  1.1690 -0.3804
 6925TIP3    H244971   4.978   6.613   7.556 -2.3176 -0.9105 -1.5770
 6926TIP3   OH244972   0.965   6.347   7.584  0.1823 -0.4027 -0.1873
 6926TIP3    H144973   0.887   6.390   7.548 -0.7920 -1.8842  0.0726
 6926TIP3    H244974   0.989   6.400   7.660 -0.9312 -0.2440  0.0660
 6927TIP3   OH244975   0.262   5.517   3.230  0.1487 -0.2301  0.3168
 6927TIP3    H144976   0.193   5.452   3.216 -1.3682  1.4075 -0.1176
 6927TIP3    H244977   0.331   5.492   3.169 -0.3544 -1.4784  0.2364
 6928TIP3   OH244978   4.300   2.285   0.625  0.3024 -0.5197 -0.4975
 6928TIP3    H144979   4.314   2.363   0.572 -0.3568  0.0946  0.1976
 6928TIP3    H244980   4.371   2.225   0.601  0.1824 -0.1458 -1.8298
 6929TIP3   OH244981   5.226   2.265   6.707 -0.0217 -0.2856 -0.0707
 6929TIP3    H144982   5.320   2.260   6.689  0.2868 -0.4766  1.4157
 6929TIP3    H244983   5.205   2.179   6.745 -1.2207 -0.9487 -2.0877
 6930TIP3   OH244984   2.825   3.975   7.256  0.7424  0.6002 -0.1874
 6930TIP3    H144985   2.749   4.007   7.208  0.1151 -1.4078 -0.6458
 6930TIP3    H244986   2.794   3.964   7.346 -0.0307 -1.5725 -0.6492
 6931TIP3   OH244987   4.928   7.132   2.813 -0.1820 -0.8219  0.1824
 6931TIP3    H144988   4.844   7.150   2.770  0.1848 -0.8341 -0.5493
 6931TIP3    H244989   4.927   7.037   2.826  0.4068 -1.0541 -1.3142
 6932TIP3   OH244990   1.831   4.670   9.635 -0.4053  0.9143  0.7786
 6932TIP3    H144991   1.897   4.671   9.565  0.1202 -0.6024  1.2112
 6932TIP3    H244992   1.762   4.728   9.604  0.4707  1.3932 -0.3444
 6933TIP3   OH244993   0.210   4.188   7.330  0.5303  0.2452 -0.2460
 6933TIP3    H144994   0.197   4.097   7.303 -1.5687  0.3441  0.3176
 6933TIP3    H244995   0.219   4.237   7.248 -0.3103 -0.2080 -0.6184
 6934TIP3   OH244996   3.536   0.076   0.922 -0.0967 -0.0356  0.4025
 6934TIP3    H144997   3.534  -0.017   0.944  0.6167 -0.4357 -1.0930
 6934TIP3    H244998   3.612   0.086   0.865 -0.7189  1.2818 -0.2504
 6935TIP3   OH244999   6.959   2.665   7.152 -0.1427 -0.1371  0.7714
 6935TIP3    H145000   6.930   2.708   7.072 -1.0315 -1.5112  0.3349
 6935TIP3    H245001   7.054   2.676   7.151 -0.2860  1.3267  0.4143
 6936TIP3   OH245002   6.735   3.708   2.815 -0.4827 -0.0636  0.5618
 6936TIP3    H145003   6.685   3.634   2.852 -1.8184  1.1033  1.1811
 6936TIP3    H245004   6.687   3.733   2.737  1.2020 -1.1970 -0.9271
 6937TIP3   OH245005   1.553   0.215   0.957 -0.0364  0.6106 -0.1562
 6937TIP3    H145006   1.463   0.216   0.926  0.2374  1.7504 -0.9902
 6937TIP3    H245007   1.575   0.122   0.964 -1.3105  0.3142  0.2219
 6938TIP3   OH245008   2.452   2.156   2.880  0.0756  0.2042  0.2937
 6938TIP3    H145009   2.446   2.100   2.803  1.2912  0.2403  0.1547
 6938TIP3    H245010   2.381   2.126   2.937 -0.7414  0.0830 -0.7662
 6939TIP3   OH245011   0.510   0.702   8.032 -0.2350 -0.0760 -0.8392
 6939TIP3    H145012   0.421   0.731   8.049 -0.0138 -0.0555  0.3736
 6939TIP3    H245013   0.565   0.774   8.062  0.2626 -1.0555  0.7058
 6940TIP3   OH245014   4.087   7.317   9.387  0.0650  0.0496  0.1980
 6940TIP3    H145015   4.126   7.257   9.324 -2.9877 -1.7838 -0.1716
 6940TIP3    H245016   4.115   7.285   9.472  1.1484  0.2248 -0.0731
 6941TIP3   OH245017   0.000   2.526   8.496 -0.3116 -0.1686 -0.1010
 6941TIP3    H145018  -0.022   2.550   8.586  1.5827 -0.9651  0.6375
 6941TIP3    H245019  -0.010   2.431   8.493 -1.2042 -0.0617 -1.0084
 6942TIP3   OH245020   6.418   4.351   8.110  0.3784  0.6512 -0.0942
 6942TIP3    H145021   6.441   4.264   8.143 -0.7712  1.0724  1.9825
 6942TIP3    H245022   6.377   4.335   8.025  0.6407 -0.7799  0.0255
 6943TIP3   OH245023   4.543   3.730   0.709  0.1028  0.4234 -0.3718
 6943TIP3    H145024   4.601   3.654   0.711  0.5957  0.7805 -0.6698
 6943TIP3    H245025   4.534   3.751   0.616 -0.1486  0.6395 -0.3007
 6944TIP3   OH245026   0.751   6.649   1.402 -0.4134  0.5690  0.4210
 6944TIP3    H145027   0.718   6.735   1.426  0.2093  0.3697  2.1105
 6944TIP3    H245028   0.782   6.611   1.484  1.8219 -0.1812 -0.6878
 6945TIP3   OH245029   2.053   3.793   0.037  0.4216 -0.0241  0.3476
 6945TIP3    H145030   2.074   3.817  -0.053  0.1117  0.8254  0.4965
 6945TIP3    H245031   2.115   3.843   0.091  1.3926 -1.4190  0.5710
 6946TIP3   OH245032   0.057   0.822   0.717 -0.1765  0.0767 -0.0664
 6946TIP3    H145033   0.059   0.765   0.639 -1.7748  0.9964 -0.8318
 6946TIP3    H245034   0.042   0.910   0.682  1.0947  0.8403  1.1769
 6947TIP3   OH245035   4.458   5.986   0.946  0.2900 -0.1622  0.2430
 6947TIP3    H145036   4.517   6.041   0.895 -1.8050  1.1165 -0.9613
 6947TIP3    H245037   4.501   5.977   1.031  2.5079  0.0902 -0.7843
 6948TIP3   OH245038   1.257   5.955   8.709 -0.0057 -0.0144 -0.2181
 6948TIP3    H145039   1.228   5.960   8.801  1.6093 -0.6391  0.3708
 6948TIP3    H245040   1.298   5.868   8.702  1.7017  0.7982 -0.9506
 6949TIP3   OH245041   2.733   2.060   2.022  0.2619  0.2114 -0.2002
 6949TIP3    H145042   2.750   2.020   2.108 -2.2525  0.7075  0.6219
 6949TIP3    H245043   2.794   2.133   2.017  2.1761 -1.2758  0.0146
 6950TIP3   OH245044   6.590   4.825   8.993  0.2325  0.2902  0.7359
 6950TIP3    H145045   6.561   4.859   8.908 -1.9658  0.0153  1.3072
 6950TIP3    H245046   6.632   4.742   8.972  1.7488  1.2564 -0.2581
 6951TIP3   OH245047   3.166   4.064   8.088  0.1908 -0.0587  0.2813
 6951TIP3    H145048   3.107   4.006   8.039  0.1392  2.1629 -2.5230
 6951TIP3    H245049   3.234   4.006   8.121 -0.0563 -1.8216 -2.0497
 6952TIP3   OH245050   4.961   4.656   6.391 -0.1354 -0.1908 -0.1100
 6952TIP3    H145051   5.014   4.715   6.338  0.7909  0.6874  1.6941
 6952TIP3    H245052   4.938   4.708   6.469  0.5406 -2.1126  1.4454
 6953TIP3   OH245053   2.732   7.212   9.406  0.2886  0.1850 -0.1575
 6953TIP3    H145054   2.791   7.192   9.333  0.8350  0.0021  0.3256
 6953TIP3    H245055   2.785   7.265   9.466  0.0646 -0.2642  0.4422
 6954TIP3   OH245056   5.214   2.685   9.067 -0.1523 -0.6993 -0.1675
 6954TIP3    H145057   5.261   2.768   9.059  0.3599 -0.9163  0.4964
 6954TIP3    H245058   5.261   2.625   9.009 -0.5812 -0.5140 -0.7221
 6955TIP3   OH245059   5.545   3.608   7.890  0.4027 -0.0231  0.0449
 6955TIP3    H145060   5.455   3.599   7.859  0.1351 -0.6050  0.9328
 6955TIP3    H245061   5.550   3.698   7.922 -0.0115 -0.1227  0.4053
 6956TIP3   OH245062   0.241   0.283   1.062 -0.0056 -0.1682 -0.2572
 6956TIP3    H145063   0.281   0.219   1.004 -1.9941 -0.4234 -1.4424
 6956TIP3    H245064   0.153   0.249   1.080  0.0537  0.5930  1.8238
 6957TIP3   OH245065   7.193   0.516   9.528  0.4461  0.1038 -0.1167
 6957TIP3    H145066   7.098   0.525   9.519  0.4457 -1.2850 -2.0105
 6957TIP3    H245067   7.210   0.424   9.508  2.0889  0.0124  1.4446
 6958TIP3   OH245068   1.211   1.307   0.639 -0.7196  0.4993 -0.0617
 6958TIP3    H145069   1.262   1.261   0.705 -0.1722 -1.4376 -1.7054
 6958TIP3    H245070   1.121   1.306   0.672 -0.6315 -1.3458  0.2308
 6959TIP3   OH245071   1.010   1.994   2.261 -0.0009 -0.6176  0.2496
 6959TIP3    H145072   0.982   2.063   2.201 -1.1467  0.4505  1.9187
 6959TIP3    H245073   1.089   2.028   2.303 -0.7298 -0.1410  1.2877
 6960TIP3   OH245074   0.593   6.972   1.919  0.7326  0.1274 -0.0183
 6960TIP3    H145075   0.614   6.934   2.004  1.3847 -1.1370 -0.7137
 6960TIP3    H245076   0.519   6.921   1.887  1.0367  0.0197 -0.5736
 6961TIP3   OH245077   0.632   6.461   0.180 -0.2419  0.4466  0.1336
 6961TIP3    H145078   0.612   6.442   0.272 -0.7402  0.6411  0.0654
 6961TIP3    H245079   0.561   6.420   0.131 -1.5586  2.6972 -0.0051
 6962TIP3   OH245080   4.858   1.604   1.054  0.2367 -0.3781  0.3934
 6962TIP3    H145081   4.830   1.530   1.108  1.1950 -0.7469  0.4033
 6962TIP3    H245082   4.784   1.665   1.057 -1.3157 -2.0572 -1.0381
 6963TIP3   OH245083   7.167   5.139   1.182  0.1820 -0.2000 -0.7082
 6963TIP3    H145084   7.141   5.102   1.266  2.0331  0.6139  0.2766
 6963TIP3    H245085   7.206   5.065   1.134 -1.8402 -0.9172 -1.3356
 6964TIP3   OH245086   1.516   2.561   1.037  0.1751 -0.2109  1.0187
 6964TIP3    H145087   1.466   2.513   0.971  1.2746  0.1504 -0.0937
 6964TIP3    H245088   1.601   2.517   1.039  0.0018 -0.5506  2.5914
 6965TIP3   OH245089   5.490   5.464   1.800 -0.4164 -0.0058 -0.7687
 6965TIP3    H145090   5.494   5.369   1.802 -1.5553 -0.0550  0.5701
 6965TIP3    H245091   5.580   5.493   1.814 -0.4201 -0.9137  1.5971
 6966TIP3   OH245092   6.802   2.641   9.205 -0.1357 -0.2009  0.5591
 6966TIP3    H145093   6.825   2.621   9.114  0.8621  0.8944  0.5466
 6966TIP3    H245094   6.781   2.556   9.243 -0.0041 -0.7481 -0.5509
 6967TIP3   OH245095   5.244   1.080   2.116 -0.1790  0.6461  0.4971
 6967TIP3    H145096   5.201   1.155   2.157 -0.9350  0.9745 -0.8270
 6967TIP3    H245097   5.211   1.004   2.164 -0.4210  1.0593  1.0005
 6968TIP3   OH245098   1.501   0.292   1.233 -0.3720  0.3573  0.1606
 6968TIP3    H145099   1.520   0.292   1.140 -0.4540 -2.4287  0.0598
 6968TIP3    H245100   1.464   0.205   1.250  1.3105  0.0916  3.1026
 6969TIP3   OH245101   1.085   4.825   1.126  0.7426 -0.4257  0.7052
 6969TIP3    H145102   1.020   4.789   1.065  0.5844 -2.1207  1.7873
 6969TIP3    H245103   1.117   4.748   1.174 -0.1222  0.9492  3.6956
 6970TIP3   OH245104   6.061   1.612   6.953 -0.4887 -0.7650  0.0283
 6970TIP3    H145105   6.115   1.534   6.969  0.4413 -0.0956  0.2475
 6970TIP3    H245106   6.120   1.674   6.911 -1.4589 -0.4861 -0.9610
 6971TIP3   OH245107   0.204   1.652   7.169 -0.4501 -0.3619  0.1044
 6971TIP3    H145108   0.114   1.672   7.143 -1.3996 -1.4274  2.3517
 6971TIP3    H245109   0.201   1.561   7.199  1.3615 -0.3739  0.3810
 6972TIP3   OH245110   4.899   2.990   2.626  0.0746  0.2100 -0.3354
 6972TIP3    H145111   4.868   3.033   2.547 -1.5134  3.7356  1.9500
 6972TIP3    H245112   4.826   2.933   2.652 -0.5447  1.0839 -0.0879
 6973TIP3   OH245113   5.304   4.393   0.157 -0.3104 -0.8505 -0.0869
 6973TIP3    H145114   5.281   4.467   0.213 -0.2315 -1.4470  0.7588
 6973TIP3    H245115   5.230   4.386   0.096  0.0504  0.3964 -0.6961
 6974TIP3   OH245116   6.083   2.492   7.901 -0.0521 -0.2845 -0.2343
 6974TIP3    H145117   6.162   2.441   7.887 -0.6224 -1.2297 -0.0883
 6974TIP3    H245118   6.015   2.445   7.853 -0.7545 -0.1089  0.5606
 6975TIP3   OH245119   0.538   2.670   0.873 -0.5437 -0.2203 -0.3700
 6975TIP3    H145120   0.456   2.663   0.824 -0.7411  1.1661 -0.2802
 6975TIP3    H245121   0.562   2.580   0.894 -3.1332 -0.6149  1.3943
 6976TIP3   OH245122   6.239   4.244   0.720 -0.2424 -0.4090  0.2064
 6976TIP3    H145123   6.295   4.183   0.671 -0.8306 -0.4274 -0.4743
 6976TIP3    H245124   6.239   4.324   0.667 -2.0970 -0.9244 -0.6622
 6977TIP3   OH245125   2.775   4.649   7.885 -0.3072  0.5613  0.4907
 6977TIP3    H145126   2.762   4.713   7.815 -1.7141 -0.2146 -0.0113
 6977TIP3    H245127   2.784   4.702   7.964  1.9958  1.4867 -0.3084
 6978TIP3   OH245128   7.245   6.605   0.065  0.1965  0.3018  0.5158
 6978TIP3    H145129   7.195   6.685   0.080 -2.6952 -1.0881 -0.8476
 6978TIP3    H245130   7.265   6.607  -0.029 -0.2936 -0.7186  0.3734
 6979TIP3   OH245131   3.933   3.563   1.695 -0.2038 -0.4134 -0.0998
 6979TIP3    H145132   3.850   3.530   1.729  0.1434  0.5096  1.8014
 6979TIP3    H245133   3.915   3.654   1.673  0.3415 -0.1531  0.5100
 6980TIP3   OH245134   4.285   5.601   9.161  0.6911  0.3831 -0.2643
 6980TIP3    H145135   4.194   5.626   9.143  0.7409  1.8748  1.2902
 6980TIP3    H245136   4.283   5.505   9.164 -0.5609  0.3364 -1.4766
 6981TIP3   OH245137   4.828   3.122   7.018 -0.0530  0.0840 -0.0130
 6981TIP3    H145138   4.872   3.040   6.997 -0.0526  0.5976 -2.2997
 6981TIP3    H245139   4.752   3.125   6.960 -0.6547  1.2084  0.7864
 6982TIP3   OH245140   3.578   6.902   1.856 -0.2451 -0.1309 -0.3336
 6982TIP3    H145141   3.570   6.987   1.898 -0.8256 -1.5681  2.7520
 6982TIP3    H245142   3.672   6.886   1.850 -0.1166 -0.3798  1.7015
 6983TIP3   OH245143   1.292   1.122   7.749  0.4028  0.0980 -0.3585
 6983TIP3    H145144   1.384   1.139   7.771  0.6760 -0.2085 -1.2356
 6983TIP3    H245145   1.263   1.200   7.702 -0.0480  0.5534  0.6318
 6984TIP3   OH245146   4.727   4.440   0.176 -0.0425  0.4844  0.4708
 6984TIP3    H145147   4.679   4.509   0.130 -0.9946 -0.5540 -0.1626
 6984TIP3    H245148   4.693   4.444   0.266 -0.8656  0.1778  0.1837
 6985TIP3   OH245149   5.827   1.080   6.783  0.2442  0.2858 -0.2927
 6985TIP3    H145150   5.898   1.091   6.847  0.5166  0.5807 -0.6358
 6985TIP3    H245151   5.864   1.022   6.716  0.5610  1.3076 -1.0363
 6986TIP3   OH245152   5.794   5.464   8.246  0.0140  0.0802 -0.4772
 6986TIP3    H145153   5.801   5.467   8.151 -3.7330  1.6025 -0.8738
 6986TIP3    H245154   5.794   5.555   8.274  0.6693 -0.3229  0.9636
 6987TIP3   OH245155   6.431   5.984   2.037  0.3961 -0.3434  0.8816
 6987TIP3    H145156   6.407   5.921   1.969 -0.4391 -0.6694  1.4543
 6987TIP3    H245157   6.359   6.047   2.038  1.6521  1.1899 -0.3093
 6988TIP3   OH245158   2.991   6.219   1.462  0.4929 -0.1488 -0.2475
 6988TIP3    H145159   3.084   6.237   1.450  0.5221 -1.0318 -1.5365
 6988TIP3    H245160   2.960   6.290   1.518  2.1026 -0.2864  0.8868
 6989TIP3   OH245161   6.890   0.663   8.007 -0.2898 -0.3952 -0.4985
 6989TIP3    H145162   6.953   0.713   7.956  0.5919 -1.1987 -0.2350
 6989TIP3    H245163   6.824   0.636   7.944 -0.3971  0.4992 -0.7699
 6990TIP3   OH245164   6.763   0.291   9.289 -0.7253 -0.2733  0.3094
 6990TIP3    H145165   6.729   0.228   9.225 -1.6310 -0.8326  1.3008
 6990TIP3    H245166   6.808   0.237   9.354  0.4779  0.3152 -0.0090
 6991TIP3   OH245167   4.300   6.966   1.044  0.1914 -0.0840 -0.0867
 6991TIP3    H145168   4.249   7.025   0.989  1.4850  0.7158 -0.4757
 6991TIP3    H245169   4.316   6.889   0.988 -0.0624 -0.0652 -0.1833
 6992TIP3   OH245170   4.781   1.755   0.403  0.1242  0.0104 -0.7933
 6992TIP3    H145171   4.795   1.826   0.466  0.3145 -1.1176  0.4877
 6992TIP3    H245172   4.686   1.753   0.390 -0.2699 -1.4887  1.6585
 6993TIP3   OH245173   1.146   7.182   7.191  0.3229 -0.4537 -0.5334
 6993TIP3    H145174   1.185   7.103   7.153  0.2984 -0.0245 -1.4854
 6993TIP3    H245175   1.186   7.254   7.142 -1.3103  0.0142 -1.2436
 6994TIP3   OH245176   5.895   1.255   9.240  0.0060  0.4276 -0.6465
 6994TIP3    H145177   5.877   1.324   9.304  0.9122 -0.3125  0.4591
 6994TIP3    H245178   5.990   1.243   9.245  0.0322  0.0544 -1.8296
 6995TIP3   OH245179   1.920   4.787   0.968  0.2895  0.1418 -0.0878
 6995TIP3    H145180   1.865   4.864   0.982 -0.3390 -0.1430 -0.8651
 6995TIP3    H245181   1.999   4.804   1.019  1.0123  2.1801 -1.7035
 6996TIP3   OH245182   0.021   5.859   1.084  0.3731  0.1507 -0.0116
 6996TIP3    H145183   0.039   5.851   0.990 -0.6654  2.4265 -0.4753
 6996TIP3    H245184   0.107   5.851   1.125  1.0234  0.3298 -1.2759
 6997TIP3   OH245185   1.441   5.951   1.834 -0.9475  0.2579 -0.2627
 6997TIP3    H145186   1.422   5.981   1.923 -1.1885 -0.0661 -0.1995
 6997TIP3    H245187   1.417   5.858   1.835  1.6161 -0.4876  0.1161
 6998TIP3   OH245188   6.700   0.986   9.111 -0.3488  0.1932 -0.2114
 6998TIP3    H145189   6.689   0.962   9.203  0.4941  0.8482  0.0863
 6998TIP3    H245190   6.791   1.015   9.106 -0.4992  0.5212 -1.1737
 6999TIP3   OH245191   2.897   1.238   1.015 -0.1702 -0.6261  0.4031
 6999TIP3    H145192   2.824   1.180   0.992 -0.3408 -0.8350  1.4442
 6999TIP3    H245193   2.970   1.180   1.031 -0.3928 -0.5913  1.6492
 7000TIP3   OH245194   4.488   1.776   0.257 -0.4202  0.5780 -0.6985
 7000TIP3    H145195   4.554   1.844   0.263  0.4246 -0.2190 -0.6793
 7000TIP3    H245196   4.414   1.809   0.308  0.2982  1.1171  0.0073
 7001TIP3   OH245197   6.352   7.228   8.054 -0.6809  0.2343  0.3901
 7001TIP3    H145198   6.446   7.230   8.069 -0.6249 -0.0644  0.0957
 7001TIP3    H245199   6.315   7.287   8.120 -0.2984  0.2706  0.5715
 7002TIP3   OH245200   6.708   2.289   1.351 -0.4723  0.4961 -0.3307
 7002TIP3    H145201   6.802   2.292   1.328 -0.2266  0.4086  0.6323
 7002TIP3    H245202   6.703   2.228   1.425 -1.9132 -3.2400 -3.1797
 7003TIP3   OH245203   2.496   0.669   7.469 -0.2431 -0.2044  0.1379
 7003TIP3    H145204   2.443   0.590   7.460 -1.1049  0.2751  0.9154
 7003TIP3    H245205   2.570   0.655   7.409 -1.2446 -0.8623 -0.9790
 7004TIP3   OH245206   6.073   6.703   9.094  0.6512  0.5728  0.3288
 7004TIP3    H145207   6.107   6.644   9.162  0.7209  0.6741  0.3840
 7004TIP3    H245208   6.041   6.645   9.026  2.7854  0.4465 -0.6565
 7005TIP3   OH245209   1.565   2.078   1.700  0.0964 -0.2444  0.2329
 7005TIP3    H145210   1.589   2.035   1.618  0.1241 -1.2156  0.7294
 7005TIP3    H245211   1.533   2.006   1.755  0.9981  0.2366  1.4154
 7006TIP3   OH245212   0.766   2.783   0.649 -0.2471 -0.6679 -0.2256
 7006TIP3    H145213   0.739   2.870   0.678  0.5358 -0.5647  0.2333
 7006TIP3    H245214   0.855   2.796   0.615  0.7449 -1.6456  1.8474
 7007TIP3   OH245215   1.431   2.417   7.846  0.0688  0.0446  0.2445
 7007TIP3    H145216   1.339   2.439   7.862 -0.1878 -0.2091 -0.8171
 7007TIP3    H245217   1.427   2.342   7.787  0.9641 -0.2497  0.5439
 7008TIP3   OH245218   4.824   4.228   0.383  0.0156  0.0379 -0.1152
 7008TIP3    H145219   4.767   4.154   0.405  0.7727 -0.0469  1.7834
 7008TIP3    H245220   4.785   4.266   0.305 -2.6301 -0.0405  1.0562
 7009TIP3   OH245221   3.744   6.416   6.968 -0.2008  0.0345 -0.3906
 7009TIP3    H145222   3.681   6.372   7.024  0.7101  0.4833  1.0242
 7009TIP3    H245223   3.692   6.479   6.918 -0.9006  0.2436  0.5875
 7010TIP3   OH245224   6.784   1.555   8.709  0.2753 -0.7027 -0.6301
 7010TIP3    H145225   6.711   1.611   8.681 -0.1046 -0.2976  1.0735
 7010TIP3    H245226   6.765   1.470   8.669 -0.9861 -0.5282 -0.4460
 7011TIP3   OH245227   7.047   3.006   1.946  0.0500  0.0888  0.3112
 7011TIP3    H145228   6.994   3.028   1.869  1.3635 -2.9455 -1.6472
 7011TIP3    H245229   7.123   3.065   1.940 -0.4588  0.7265  0.0142
 7012TIP3   OH245230   6.852   5.057   2.064 -0.1571 -0.5448  0.2151
 7012TIP3    H145231   6.897   5.128   2.018  0.9011  0.2589  2.3602
 7012TIP3    H245232   6.765   5.055   2.025 -0.1730  1.8584 -0.0044
 7013TIP3   OH245233   0.761   0.680   7.417  0.1242  0.0167  0.0992
 7013TIP3    H145234   0.737   0.731   7.340 -0.0888 -0.0346  0.1316
 7013TIP3    H245235   0.856   0.669   7.410 -0.0831 -1.3014 -0.9665
 7014TIP3   OH245236   6.828   6.432   8.296 -0.1363 -0.2664  0.4963
 7014TIP3    H145237   6.776   6.490   8.240 -0.5981 -0.2216  0.9678
 7014TIP3    H245238   6.841   6.482   8.376 -0.5768 -0.8365  0.9240
 7015TIP3   OH245239   3.740   1.958   2.193 -0.4367 -0.3299  0.0688
 7015TIP3    H145240   3.788   2.002   2.264 -0.7341  1.1746 -0.6319
 7015TIP3    H245241   3.738   2.022   2.122 -0.0866 -1.8243 -1.3468
 7016TIP3   OH245242   6.628   6.211   2.203 -0.3418 -0.0736 -0.4982
 7016TIP3    H145243   6.643   6.155   2.279 -0.2375  0.2229 -0.2994
 7016TIP3    H245244   6.582   6.155   2.141 -0.1684 -0.4027 -0.3306
 7017TIP3   OH245245   6.681   7.167   2.407 -0.2389 -0.3767  0.2129
 7017TIP3    H145246   6.612   7.160   2.473  0.2119 -0.2577  0.7004
 7017TIP3    H245247   6.759   7.130   2.450 -0.0229 -0.5941 -0.3626
 7018TIP3   OH245248   0.410   2.118   9.328  0.2245 -0.2280  0.8158
 7018TIP3    H145249   0.489   2.087   9.373  1.0657 -0.1790 -0.5644
 7018TIP3    H245250   0.345   2.129   9.398  1.2468 -0.8576  1.9005
 7019TIP3   OH245251   3.659   2.281   0.164  0.3364 -0.2313  0.2547
 7019TIP3    H145252   3.735   2.333   0.191  0.5746  0.1529 -1.1235
 7019TIP3    H245253   3.584   2.336   0.184  0.5188  0.1265 -0.0411
 7020TIP3   OH245254   2.827   1.257   8.197 -0.0891  0.5271  0.0814
 7020TIP3    H145255   2.909   1.211   8.181 -0.2061  0.4611 -0.3290
 7020TIP3    H245256   2.850   1.350   8.196  0.3730  0.4724  2.1160
 7021TIP3   OH245257   4.525   6.186   9.205 -0.3795 -0.0463 -0.1701
 7021TIP3    H145258   4.605   6.162   9.158 -1.0618 -0.8505 -0.9500
 7021TIP3    H245259   4.457   6.131   9.167 -1.6510  1.7913 -0.6873
 7022TIP3   OH245260   4.317   2.192   0.152  0.3615  0.5190 -0.2537
 7022TIP3    H145261   4.406   2.196   0.188  0.0379 -2.1955  1.0428
 7022TIP3    H245262   4.260   2.192   0.229 -0.6330 -0.2535 -0.9790
 7023TIP3   OH245263   4.466   3.590   8.495 -0.0663  0.0222 -0.5443
 7023TIP3    H145264   4.488   3.497   8.489  0.7149  0.2409 -1.3068
 7023TIP3    H245265   4.449   3.605   8.588 -1.1164 -1.0755 -0.5326
 7024TIP3   OH245266   6.749   0.864   8.748 -0.4831  0.0858  0.4485
 7024TIP3    H145267   6.786   0.922   8.816 -0.1325  0.6488 -0.2083
 7024TIP3    H245268   6.657   0.893   8.741  0.7129  4.0174 -3.2273
 7025TIP3   OH245269   2.992   7.415   2.602 -0.3386 -0.1918  0.5513
 7025TIP3    H145270   3.036   7.391   2.684 -0.0737  0.1042  0.4995
 7025TIP3    H245271   2.910   7.455   2.630 -0.0054  0.4127  0.6991
 7026TIP3   OH245272   5.273   3.799   2.254 -0.0246  0.3398  0.0315
 7026TIP3    H145273   5.192   3.772   2.211 -1.3492  1.8125  1.4743
 7026TIP3    H245274   5.266   3.764   2.342  1.1945  0.0031  0.0112
 7027TIP3   OH245275   4.607   7.266   8.242  0.4645  0.1700 -0.3741
 7027TIP3    H145276   4.534   7.327   8.229 -1.2613 -2.1112 -2.4574
 7027TIP3    H245277   4.669   7.289   8.173 -0.0429 -0.2193 -0.9672
 7028TIP3   OH245278   4.899   2.835   0.578 -0.5645 -0.5656  0.7060
 7028TIP3    H145279   4.912   2.837   0.483 -0.7767 -1.4042  0.6534
 7028TIP3    H245280   4.940   2.916   0.609 -0.0159 -0.5429 -0.0380
 7029TIP3   OH245281   2.092   0.890   0.963  0.4669 -0.2053  0.3966
 7029TIP3    H145282   2.083   0.795   0.961 -1.1927 -0.0832 -1.3863
 7029TIP3    H245283   2.182   0.906   0.936  0.3699 -1.2646 -0.6381
 7030TIP3   OH245284   0.697   4.217   1.098 -0.0955 -0.4761  0.1039
 7030TIP3    H145285   0.739   4.255   1.176  0.3670 -0.9722  0.1036
 7030TIP3    H245286   0.651   4.140   1.131  0.3437 -0.8539 -0.1537
 7031TIP3   OH245287   7.242   7.268   1.458  0.7193  0.3019  0.6258
 7031TIP3    H145288   7.311   7.237   1.399  0.4440 -0.1262  0.5207
 7031TIP3    H245289   7.289   7.304   1.533  1.0827  0.9907  0.0867
 7032TIP3   OH245290   4.942   0.410   1.031  0.2995 -0.0077 -0.3463
 7032TIP3    H145291   4.959   0.503   1.015 -0.8192  0.8946  2.8693
 7032TIP3    H245292   4.851   0.407   1.061  0.4188 -2.1100 -0.0072
 7033TIP3   OH245293   0.824   3.165   8.946 -0.4400 -0.0091 -0.2702
 7033TIP3    H145294   0.912   3.199   8.964 -0.4101 -0.0933 -0.2586
 7033TIP3    H245295   0.765   3.233   8.979 -0.4180 -0.7853  1.5006
 7034TIP3   OH245296   5.434   5.369   7.004 -0.2600  0.6891  0.0854
 7034TIP3    H145297   5.363   5.331   6.952  0.6162  1.1449 -1.5072
 7034TIP3    H245298   5.434   5.462   6.981  1.2545  0.5797 -0.4725
 7035TIP3   OH245299   3.062   0.763   8.449 -0.3493  0.7819 -0.2988
 7035TIP3    H145300   3.074   0.732   8.538  1.2106  1.4648 -0.2400
 7035TIP3    H245301   2.981   0.720   8.419 -0.0572 -0.6789  0.8847
 7036TIP3   OH245302   1.060   7.222   1.448  0.1901  0.7501  0.1484
 7036TIP3    H145303   0.979   7.271   1.430  0.6400  0.8458 -1.8786
 7036TIP3    H245304   1.050   7.142   1.396  1.3340  0.7117 -0.0267
 7037TIP3   OH245305   6.772   5.969   8.256 -0.0377 -0.4167 -0.4245
 7037TIP3    H145306   6.710   6.041   8.252  1.9317  1.6127  2.0245
 7037TIP3    H245307   6.797   5.952   8.165  1.1569  3.6883 -1.0412
 7038TIP3   OH245308   2.938   4.365   1.422 -0.0978 -0.2271 -0.2821
 7038TIP3    H145309   2.882   4.347   1.346 -0.0931  2.0446 -0.8816
 7038TIP3    H245310   3.027   4.356   1.389 -0.0825 -0.9620 -0.0673
 7039TIP3   OH245311   6.034   5.060   9.027 -0.2655 -0.4438  0.2206
 7039TIP3    H145312   5.944   5.047   8.998 -0.2850  1.6370 -0.7989
 7039TIP3    H245313   6.026   5.104   9.112 -0.2498  0.9565 -0.4805
 7040TIP3   OH245314   0.466   0.600   8.351 -0.0510 -0.0720  0.1755
 7040TIP3    H145315   0.427   0.655   8.419  0.6244  0.9401 -0.2207
 7040TIP3    H245316   0.556   0.586   8.380 -0.0894 -0.6033  0.0486
 7041TIP3   OH245317   6.739   4.172   2.113 -0.6776  0.6805  0.5945
 7041TIP3    H145318   6.645   4.179   2.133 -0.7870 -1.4071  1.0799
 7041TIP3    H245319   6.743   4.112   2.038  0.2956 -0.4994  1.5376
 7042TIP3   OH245320   4.364   6.066   9.623  0.3515  0.3217  0.2464
 7042TIP3    H145321   4.313   5.994   9.660 -0.0383  1.2035  1.5044
 7042TIP3    H245322   4.454   6.034   9.623  0.3253  0.1708  1.7528
 7043TIP3   OH245323   1.009   6.261   8.758  0.0017  0.8239 -0.3132
 7043TIP3    H145324   0.982   6.319   8.687  0.3027  0.8625 -0.3965
 7043TIP3    H245325   1.095   6.228   8.731 -0.5629 -0.3895 -0.7126
 7044TIP3   OH245326   0.208   6.025   2.232  0.2694 -0.1793 -0.4930
 7044TIP3    H145327   0.223   6.044   2.325  0.9946  0.1389 -0.6647
 7044TIP3    H245328   0.159   5.943   2.232  0.2667 -0.1819  0.1752
 7045TIP3   OH245329   0.777   6.965   8.562 -0.6025  0.2715 -0.1862
 7045TIP3    H145330   0.865   6.941   8.535 -0.2678  0.6286  0.5738
 7045TIP3    H245331   0.788   7.040   8.621 -1.3214 -0.3083  0.7265
 7046TIP3   OH245332   4.035   0.236   0.308 -0.0540 -0.1530 -0.4831
 7046TIP3    H145333   4.070   0.221   0.396  0.2308  0.4192 -0.4957
 7046TIP3    H245334   3.995   0.322   0.313 -1.0678 -0.6051 -0.5977
 7047TIP3   OH245335   2.082   3.908   0.954  0.3220  0.7735 -0.5197
 7047TIP3    H145336   2.148   3.841   0.971 -0.3832 -0.2029 -1.4498
 7047TIP3    H245337   2.123   3.990   0.980  0.4704 -0.1913  2.6557
 7048TIP3   OH245338   2.267   1.014   8.338 -0.2909  0.3141 -0.3083
 7048TIP3    H145339   2.186   1.016   8.389  0.1186 -0.2511  0.3875
 7048TIP3    H245340   2.276   1.103   8.304 -1.0778  0.4467 -0.1977
 7049TIP3   OH245341   6.960   1.199   9.256 -0.1090 -0.0071 -0.1491
 7049TIP3    H145342   6.939   1.182   9.164 -0.9855 -0.6129  0.1407
 7049TIP3    H245343   7.043   1.246   9.254 -0.8840  1.3744 -1.3155
 7050TIP3   OH245344   3.563   2.506   1.478 -0.0060 -0.1857 -0.5083
 7050TIP3    H145345   3.568   2.448   1.402  0.8731 -0.1840 -0.4659
 7050TIP3    H245346   3.653   2.508   1.512 -0.2301  0.4396  0.0608
 7051TIP3   OH245347   4.766   2.121   9.395  0.3335 -0.3244  0.1853
 7051TIP3    H145348   4.760   2.176   9.316 -0.3150  1.3945  1.3633
 7051TIP3    H245349   4.857   2.127   9.422  0.3459 -0.0929  0.0978
 7052TIP3   OH245350   3.117   1.446   0.125 -0.2889 -0.0243 -0.5371
 7052TIP3    H145351   3.198   1.443   0.177 -0.3010 -1.4474 -0.5726
 7052TIP3    H245352   3.054   1.491   0.182  0.4156  0.8003 -0.3760
 7053TIP3   OH245353   5.121   5.226   0.947 -0.7402  0.5642 -0.2948
 7053TIP3    H145354   5.136   5.132   0.953  2.3613  1.0213  0.5897
 7053TIP3    H245355   5.086   5.250   1.032 -0.8639  0.3252 -0.2773
 7054TIP3   OH245356   1.603   7.178   6.731 -0.4681 -0.0763 -0.1805
 7054TIP3    H145357   1.528   7.213   6.682 -1.1826  1.1273  1.6323
 7054TIP3    H245358   1.566   7.107   6.783 -0.2170  0.0980  0.2410
 7055TIP3   OH245359   5.204   2.866   7.557  0.2810 -0.2717 -0.1179
 7055TIP3    H145360   5.262   2.790   7.563 -0.9200 -1.3386 -1.3053
 7055TIP3    H245361   5.120   2.834   7.588  0.2183  1.1738  1.2981
 7056TIP3   OH245362   7.299   2.528   1.720 -0.1479 -0.1528 -0.0076
 7056TIP3    H145363   7.374   2.556   1.668 -0.2392 -0.3515 -0.2479
 7056TIP3    H245364   7.225   2.577   1.683 -0.1475  0.0018  0.1928
 7057TIP3   OH245365   2.463   6.192   0.528 -0.1642 -0.1654 -0.0701
 7057TIP3    H145366   2.522   6.138   0.476  1.4242  0.1207  1.3830
 7057TIP3    H245367   2.520   6.251   0.576 -1.7463  1.3960 -0.0047
 7058TIP3   OH245368   2.397   2.432   1.444  0.6300 -0.1189 -0.4723
 7058TIP3    H145369   2.454   2.373   1.395 -0.3365 -1.4825 -0.0156
 7058TIP3    H245370   2.319   2.380   1.463  0.3266  0.8462  1.1752
 7059TIP3   OH245371   0.955   3.053   8.718  0.1795  0.2405  0.0850
 7059TIP3    H145372   0.895   2.983   8.693  1.5579 -0.5395 -1.2426
 7059TIP3    H245373   0.955   3.053   8.813  0.3308 -1.7357  0.1090
 7060TIP3   OH245374   5.281   0.466   6.405 -0.1045  0.2744  0.9039
 7060TIP3    H145375   5.363   0.422   6.426 -0.2154  0.1129  0.9991
 7060TIP3    H245376   5.214   0.414   6.448 -0.5787 -1.3302 -1.5426
 7061TIP3   OH245377   6.860   3.301   2.013 -0.0289 -0.1753 -0.0208
 7061TIP3    H145378   6.843   3.293   1.919  1.9591 -1.4128 -0.3389
 7061TIP3    H245379   6.938   3.355   2.020 -0.1095 -0.1534  0.9160
 7062TIP3   OH245380   4.953   6.136   8.331  0.3436  0.2285 -1.1315
 7062TIP3    H145381   4.874   6.093   8.364  0.9802 -0.0659  0.0870
 7062TIP3    H245382   4.958   6.110   8.240  0.6386 -2.2602 -0.4833
 7063TIP3   OH245383   2.899   6.186   0.544  0.2354 -0.2815 -0.4409
 7063TIP3    H145384   2.975   6.241   0.527 -1.2705  1.5400 -1.8102
 7063TIP3    H245385   2.870   6.211   0.631  1.0985 -0.8737  0.0233
 7064TIP3   OH245386   5.078   4.754   0.777  1.1053  0.1255 -0.4772
 7064TIP3    H145387   5.104   4.817   0.709  1.2654  0.3312 -0.2257
 7064TIP3    H245388   5.146   4.687   0.775  0.5276 -0.4528 -1.2790
 7065TIP3   OH245389   6.841   5.416   3.156 -0.0909  0.4437  0.0718
 7065TIP3    H145390   6.850   5.393   3.064 -0.3253 -2.0135  0.6032
 7065TIP3    H245391   6.930   5.421   3.190  0.0370 -3.4246  0.7034
 7066TIP3   OH245392   1.837   6.827   2.609 -0.0076  0.0296  0.1102
 7066TIP3    H145393   1.888   6.813   2.529 -2.0112 -0.8974 -1.0983
 7066TIP3    H245394   1.767   6.763   2.603 -2.2838  2.2879  0.8214
 7067TIP3   OH245395   3.773   5.394   9.227 -0.5570 -0.1695 -0.8679
 7067TIP3    H145396   3.858   5.429   9.201 -0.6671  0.6855 -0.1207
 7067TIP3    H245397   3.734   5.462   9.281 -1.5279 -0.7417 -0.8132
 7068TIP3   OH245398   3.312   4.184   9.520  0.0104 -0.3253  0.4660
 7068TIP3    H145399   3.376   4.133   9.569 -1.6297 -2.0616  0.9355
 7068TIP3    H245400   3.245   4.121   9.496 -0.9231  1.1711 -1.0967
 7069TIP3   OH245401   0.273   3.365   9.499 -0.2068  0.0529 -0.0745
 7069TIP3    H145402   0.329   3.297   9.462  1.8123  0.4085  2.1013
 7069TIP3    H245403   0.274   3.435   9.433  1.3370 -0.2532 -0.4201
 7070TIP3   OH245404   5.371   0.639   0.342 -0.7933  0.3315 -0.2909
 7070TIP3    H145405   5.395   0.662   0.432 -0.9639 -2.3235  0.5126
 7070TIP3    H245406   5.278   0.661   0.336 -1.2902 -1.2806  0.8806
 7071TIP3   OH245407   5.135   4.470   8.521 -0.4818  0.3582  0.2189
 7071TIP3    H145408   5.194   4.545   8.515  1.1354 -0.8897 -0.0845
 7071TIP3    H245409   5.078   4.478   8.445 -0.2937  1.2319  0.1526
 7072TIP3   OH245410   6.602   6.643   0.091 -0.2165 -0.5999  0.4001
 7072TIP3    H145411   6.618   6.722   0.040 -3.0100 -0.2439 -0.0836
 7072TIP3    H245412   6.617   6.571   0.030 -1.2642 -0.2652 -0.2691
 7073TIP3   OH245413   0.185   4.710   6.544  0.0519  0.3248 -0.4353
 7073TIP3    H145414   0.206   4.767   6.470  2.1218  1.0554  0.6302
 7073TIP3    H245415   0.108   4.751   6.585 -0.0615  0.8780 -1.1870
 7074TIP3   OH245416   6.076   4.938   9.306 -0.2538  0.3335  0.8148
 7074TIP3    H145417   6.044   5.026   9.327  1.5665  0.6857  2.3590
 7074TIP3    H245418   6.033   4.916   9.224 -1.1380  2.4736  0.6468
 7075TIP3   OH245419   3.039   6.603   7.757 -0.3799 -0.3999  0.3199
 7075TIP3    H145420   2.980   6.626   7.830  1.4803 -0.0080  1.7972
 7075TIP3    H245421   3.000   6.525   7.718 -1.7064 -0.3353  1.4222
 7076TIP3   OH245422   0.305   4.288   0.700 -0.2174  0.1792 -0.2675
 7076TIP3    H145423   0.298   4.215   0.639 -0.7677 -1.4865  1.7136
 7076TIP3    H245424   0.398   4.290   0.725  0.0864  1.1003 -1.3681
 7077TIP3   OH245425   0.969   0.862   0.391 -0.5990  0.6439  0.1655
 7077TIP3    H145426   0.989   0.909   0.310  0.8444  1.2851  0.8377
 7077TIP3    H245427   0.891   0.905   0.425 -2.3836 -0.8616 -1.7672
 7078TIP3   OH245428   5.085   4.955   7.394 -0.0206  0.5673 -0.1853
 7078TIP3    H145429   5.144   5.022   7.427  1.6451 -0.5640 -0.7456
 7078TIP3    H245430   5.077   4.892   7.466 -0.0878  0.4363 -0.3062
 7079TIP3   OH245431   3.618   1.409   8.522  0.1871  0.1545  0.1795
 7079TIP3    H145432   3.555   1.463   8.569 -1.0219 -1.1446  0.1054
 7079TIP3    H245433   3.687   1.392   8.586  0.5724  1.6994  0.2211
 7080TIP3   OH245434   1.997   2.976   2.295  0.3173 -0.0863 -0.4567
 7080TIP3    H145435   1.947   3.047   2.255 -0.5205  0.5696  1.6469
 7080TIP3    H245436   1.946   2.951   2.372  0.8053 -2.7093 -0.9066
 7081TIP3   OH245437   3.765   6.040   0.672 -0.1362 -0.2311 -0.2192
 7081TIP3    H145438   3.839   6.073   0.622  0.2135 -1.1824 -0.3610
 7081TIP3    H245439   3.688   6.069   0.624  0.1073  1.4516  0.3612
 7082TIP3   OH245440   5.934   3.377   0.984 -0.4108 -0.4615 -0.3630
 7082TIP3    H145441   5.947   3.365   1.078 -2.4625 -1.4789 -0.1479
 7082TIP3    H245442   5.981   3.304   0.943 -0.6548 -0.8147 -0.0218
 7083TIP3   OH245443   6.009   7.172   6.582  0.2544 -0.1147  0.1834
 7083TIP3    H145444   6.009   7.234   6.655  1.4115 -1.2721  1.2128
 7083TIP3    H245445   6.097   7.177   6.547  0.1208 -0.6091 -0.2243
 7084TIP3   OH245446   1.206   0.772   0.466  0.5684 -0.5369 -0.1372
 7084TIP3    H145447   1.233   0.861   0.491  0.9360 -0.5725 -0.4070
 7084TIP3    H245448   1.120   0.784   0.426  0.6679 -0.2889 -0.2797
 7085TIP3   OH245449   4.088   6.607   9.480  0.4536  0.0388  0.2700
 7085TIP3    H145450   4.035   6.674   9.523 -1.4587 -0.0609 -1.7596
 7085TIP3    H245451   4.177   6.622   9.514 -0.1654  2.6360  0.9961
 7086TIP3   OH245452   7.312   3.943   6.566 -0.1702  0.0823 -0.0595
 7086TIP3    H145453   7.244   3.900   6.618 -1.0514  1.4409 -0.0534
 7086TIP3    H245454   7.265   4.007   6.512  1.0714  0.8733 -0.2453
 7087TIP3   OH245455   2.561   1.403   8.652 -0.5578  0.0417 -0.3852
 7087TIP3    H145456   2.640   1.390   8.600 -0.8833  0.3451 -0.9549
 7087TIP3    H245457   2.586   1.372   8.740  0.3739  0.6463 -0.4129
 7088TIP3   OH245458   4.762   1.722   8.976 -0.8850 -0.2483 -0.8089
 7088TIP3    H145459   4.679   1.680   8.998 -1.5034  1.6444  0.7077
 7088TIP3    H245460   4.816   1.712   9.055 -0.2385 -0.1210 -1.2267
 7089TIP3   OH245461   5.651   1.101   8.141  0.3246 -0.1463 -0.0889
 7089TIP3    H145462   5.730   1.112   8.087  0.2483  1.0709  0.0195
 7089TIP3    H245463   5.611   1.020   8.109  1.8002 -0.9910  0.0986
 7090TIP3   OH245464   1.333   2.808   1.494 -0.1272  0.6502  0.1385
 7090TIP3    H145465   1.353   2.781   1.404 -0.2115  1.8925 -0.2644
 7090TIP3    H245466   1.291   2.731   1.533  1.3483 -0.4655 -0.3718
 7091TIP3   OH245467   1.476   6.218   8.917  0.4211 -0.2171  0.4414
 7091TIP3    H145468   1.447   6.251   8.833  1.3092 -2.3686 -0.7993
 7091TIP3    H245469   1.571   6.233   8.917  0.2737  0.8688  1.6162
 7092TIP3   OH245470   5.391   5.083   8.165 -0.2274 -0.0293  0.0313
 7092TIP3    H145471   5.330   5.157   8.162 -0.7115 -0.3956  0.6657
 7092TIP3    H245472   5.378   5.044   8.251  1.4334  0.3239  0.4751
 7093TIP3   OH245473   0.705   3.569   2.003 -0.7121 -0.2919 -0.4850
 7093TIP3    H145474   0.666   3.484   1.983 -0.4450  0.0194 -2.5060
 7093TIP3    H245475   0.667   3.629   1.939  1.0743  0.5530 -0.8133
 7094TIP3   OH245476   0.041   1.413   0.236  0.0047 -0.4309  0.0037
 7094TIP3    H145477   0.060   1.404   0.329  0.0921 -0.9763 -0.0650
 7094TIP3    H245478   0.127   1.404   0.193 -0.1059 -0.7198 -0.1608
 7095TIP3   OH245479   6.260   0.356   7.557  0.6617  0.1938 -0.2147
 7095TIP3    H145480   6.174   0.315   7.548 -0.3780  1.7237  1.9547
 7095TIP3    H245481   6.255   0.434   7.501  0.7139  0.1961 -0.2164
 7096TIP3   OH245482   6.197   2.113   7.567  0.0120  0.3113 -0.0709
 7096TIP3    H145483   6.160   2.078   7.648  2.5596 -2.7484  0.0105
 7096TIP3    H245484   6.130   2.096   7.500  0.0190 -2.4973  0.4953
 7097TIP3   OH245485   2.146   4.430   1.676 -0.6979  0.1447  0.0697
 7097TIP3    H145486   2.165   4.490   1.748  0.1872  0.9275 -0.7832
 7097TIP3    H245487   2.125   4.347   1.719  3.1970 -0.4343  1.2562
 7098TIP3   OH245488   2.457   1.548   9.026  0.2853 -0.1105  0.3486
 7098TIP3    H145489   2.410   1.510   9.100 -1.1390 -0.2411 -0.5790
 7098TIP3    H245490   2.388   1.579   8.967  1.3778  1.5292 -0.1523
 7099TIP3   OH245491   6.920   4.497   8.725  0.4322 -0.0357 -0.4866
 7099TIP3    H145492   6.864   4.444   8.668 -0.1384 -0.7727  0.7298
 7099TIP3    H245493   6.988   4.436   8.754  0.8976  0.4179 -0.6100
 7100TIP3   OH245494   3.624   0.654   0.306 -0.4172 -0.1579 -0.3211
 7100TIP3    H145495   3.567   0.603   0.249 -1.0435 -1.3256  1.2897
 7100TIP3    H245496   3.575   0.735   0.323 -0.6796 -0.2649 -0.5576
 7101TIP3   OH245497   7.090   3.547   1.018  0.5983  0.6804 -0.1157
 7101TIP3    H145498   7.034   3.545   0.940 -1.3079 -0.4401  1.2082
 7101TIP3    H245499   7.159   3.610   0.996 -0.7935  1.6189 -2.0674
 7102TIP3   OH245500   2.180   3.712   1.588  0.6378 -0.2158 -0.4136
 7102TIP3    H145501   2.207   3.726   1.497  0.1635 -1.1053 -0.7051
 7102TIP3    H245502   2.167   3.618   1.594 -1.5673  0.0676 -0.0605
 7103TIP3   OH245503   1.630   1.463   7.260  0.1773 -0.2498 -0.1277
 7103TIP3    H145504   1.586   1.415   7.190 -0.1362  0.2406 -0.2722
 7103TIP3    H245505   1.702   1.509   7.217 -1.7006  2.3391 -0.6864
 7104TIP3   OH245506   3.823   2.545   0.935  0.4451  0.5150 -0.2600
 7104TIP3    H145507   3.736   2.542   0.974 -0.2711 -2.2200 -1.7956
 7104TIP3    H245508   3.821   2.622   0.878 -1.5448 -0.3282 -1.4159
 7105TIP3   OH245509   0.924   5.404   9.067  0.2038  0.0112 -0.6231
 7105TIP3    H145510   1.019   5.394   9.069  0.0183 -2.5371  1.2871
 7105TIP3    H245511   0.891   5.315   9.054 -1.9242  0.7564 -0.6990
 7106TIP3   OH245512   6.861   4.139   2.347  0.0579  0.3005  0.2389
 7106TIP3    H145513   6.817   4.061   2.383  0.4416 -0.0308 -0.0038
 7106TIP3    H245514   6.824   4.150   2.260 -2.0124  2.0099  1.2431
 7107TIP3   OH245515   6.978   4.989   0.106 -0.0191  0.8435  0.1182
 7107TIP3    H145516   6.990   5.034   0.190 -0.2360 -1.6370  1.5547
 7107TIP3    H245517   6.885   4.998   0.087 -0.3044  0.0156  1.0312
 7108TIP3   OH245518   0.700   0.743   9.035 -0.2119 -0.4788 -0.0121
 7108TIP3    H145519   0.682   0.829   8.999 -1.6863 -1.3113 -1.4152
 7108TIP3    H245520   0.672   0.748   9.126 -0.8948  0.3262 -0.2621
 7109TIP3   OH245521   4.719   2.432   8.775  0.5677  0.1936 -0.1996
 7109TIP3    H145522   4.752   2.507   8.825  2.3306 -0.6943  0.0493
 7109TIP3    H245523   4.788   2.366   8.781 -1.1399 -1.6959  0.0700
 7110TIP3   OH245524   2.822   2.238   0.573  0.3345  0.6934  0.0481
 7110TIP3    H145525   2.844   2.294   0.498  0.2966 -0.2902 -0.7295
 7110TIP3    H245526   2.729   2.222   0.564  0.8487 -1.9794 -1.5774
 7111TIP3   OH245527   4.296   4.416   8.302 -0.0867  0.1226 -0.2558
 7111TIP3    H145528   4.384   4.451   8.292  0.0242 -0.1487 -0.2401
 7111TIP3    H245529   4.299   4.330   8.259 -0.2480 -0.0360  0.0475
 7112TIP3   OH245530   2.774   4.220   1.240  0.4927  0.2914  0.0309
 7112TIP3    H145531   2.807   4.144   1.191  2.2870  1.1988 -0.2381
 7112TIP3    H245532   2.692   4.189   1.279  1.1117 -1.7475 -0.1753
 7113TIP3   OH245533   3.267   2.441   1.561 -0.1767 -1.0258 -0.0292
 7113TIP3    H145534   3.361   2.454   1.546 -0.5294 -0.3215 -1.9549
 7113TIP3    H245535   3.234   2.409   1.477 -2.1398  1.7499 -0.4654
 7114TIP3   OH245536   0.683   1.968   1.318  0.1221 -0.4963  0.1328
 7114TIP3    H145537   0.627   2.031   1.272 -0.3779 -1.8879 -1.2602
 7114TIP3    H245538   0.635   1.946   1.397  0.4811  1.1361  0.8348
 7115TIP3   OH245539   6.850   3.048   1.771  0.2722  0.1081 -0.4820
 7115TIP3    H145540   6.815   3.005   1.693 -1.9197  0.9601 -0.0447
 7115TIP3    H245541   6.776   3.097   1.806  1.6375  1.0286  1.2534
 7116TIP3   OH245542   4.711   2.039   8.128 -0.0234  0.1892 -0.6252
 7116TIP3    H145543   4.743   2.029   8.038 -1.6871 -0.7269 -1.1605
 7116TIP3    H245544   4.726   1.954   8.168 -0.5730  0.1652 -0.4747
 7117TIP3   OH245545   6.013   5.962   0.902  0.3069  0.5489  0.3665
 7117TIP3    H145546   6.066   5.893   0.861  0.2781  0.7320  0.0143
 7117TIP3    H245547   6.077   6.020   0.943  0.4276  1.0835 -0.5466
 7118TIP3   OH245548   1.207   0.744   6.975  0.4343  0.5262  0.0555
 7118TIP3    H145549   1.151   0.689   6.920  1.1871 -0.1870 -0.0206
 7118TIP3    H245550   1.151   0.771   7.047 -0.4877  1.2406 -0.8988
 7119TIP3   OH245551   0.715   4.057   8.774  0.1718 -0.3866  0.5879
 7119TIP3    H145552   0.790   4.049   8.833 -0.0413  1.0027  1.0882
 7119TIP3    H245553   0.650   4.104   8.825 -0.6823 -0.7073 -0.1797
 7120TIP3   OH245554   1.895   7.248   9.202 -0.1272 -0.5294  0.2203
 7120TIP3    H145555   1.850   7.285   9.278 -0.9952 -0.2257 -0.4175
 7120TIP3    H245556   1.827   7.200   9.155  0.4121 -0.7832 -0.3208
 7121TIP3   OH245557   2.654   6.114   9.262 -0.2325 -0.2192 -0.3398
 7121TIP3    H145558   2.612   6.183   9.314  0.7261 -0.0980  0.3233
 7121TIP3    H245559   2.626   6.130   9.172 -1.4109 -0.0314  0.0448
 7122TIP3   OH245560   2.976   2.935   0.744 -0.5495 -0.3740 -0.6142
 7122TIP3    H145561   2.952   2.954   0.835 -0.3203  0.0089 -0.6334
 7122TIP3    H245562   3.016   2.848   0.747 -1.8494 -0.9937 -0.5621
 7123TIP3   OH245563   3.243   3.252   9.257  0.0317  0.5443  0.5698
 7123TIP3    H145564   3.186   3.193   9.207  0.2899  0.1397  0.7442
 7123TIP3    H245565   3.213   3.243   9.347 -0.4123  1.2486  0.4946
 7124TIP3   OH245566   4.704   2.852   7.122  0.1480 -0.2846 -0.0609
 7124TIP3    H145567   4.663   2.883   7.203  1.4683 -2.1249  1.4035
 7124TIP3    H245568   4.632   2.845   7.059 -0.7525  2.1636  0.5930
 7125TIP3   OH245569   6.876   3.135   0.461 -0.5732  0.1145 -0.6437
 7125TIP3    H145570   6.780   3.138   0.453 -0.4659  0.6297 -2.0154
 7125TIP3    H245571   6.893   3.156   0.553 -1.6994  2.2566 -0.8613
 7126TIP3   OH245572   4.145   3.589   0.062  0.0252  0.4643 -0.4474
 7126TIP3    H145573   4.074   3.530   0.035  0.5177 -0.6610  0.6855
 7126TIP3    H245574   4.119   3.620   0.148  0.6400  0.4902 -0.2674
 7127TIP3   OH245575   4.133   2.842   8.906 -0.0847 -0.0350 -0.2151
 7127TIP3    H145576   4.048   2.856   8.949 -0.0746  0.3971 -0.3389
 7127TIP3    H245577   4.196   2.888   8.962  0.1219 -0.6549  0.0731
 7128TIP3   OH245578   7.239   0.993   0.542 -0.1697  0.2324  0.6878
 7128TIP3    H145579   7.287   1.024   0.619  0.0317  1.8731 -0.0630
 7128TIP3    H245580   7.256   0.899   0.541  1.8908  0.5433  1.2523
 7129TIP3   OH245581   4.156   7.405   2.160  0.3763  0.1309 -0.2218
 7129TIP3    H145582   4.239   7.363   2.180  0.1528 -0.1124  0.2104
 7129TIP3    H245583   4.169   7.497   2.184  1.6644  0.9170 -3.3836
 7130TIP3   OH245584   0.036   4.798   7.028  0.4261 -0.6941 -0.5558
 7130TIP3    H145585   0.120   4.753   7.027  0.2974 -0.9715  0.2713
 7130TIP3    H245586   0.055   4.884   6.989  0.6743 -1.4271 -2.1089
 7131TIP3   OH245587   4.103   4.927   8.208 -0.4737  0.3106 -0.0366
 7131TIP3    H145588   4.183   4.912   8.158 -1.1620 -0.8875 -0.8285
 7131TIP3    H245589   4.066   5.007   8.171  0.6776  1.2342  0.7778
 7132TIP3   OH245590   7.083   5.926   8.559 -0.1565  0.0979 -0.3831
 7132TIP3    H145591   7.161   5.934   8.504 -0.8053  2.3017 -1.0897
 7132TIP3    H245592   7.025   5.996   8.528 -1.2594  0.3149  1.9981
 7133TIP3   OH245593   1.573   2.591   0.489 -0.1611 -0.5161 -0.4287
 7133TIP3    H145594   1.624   2.514   0.467  1.1281  0.0196  0.5437
 7133TIP3    H245595   1.497   2.557   0.537 -0.3013 -1.2597 -1.1620
 7134TIP3   OH245596   1.463   1.215   6.556  0.2640  0.2809  0.1841
 7134TIP3    H145597   1.388   1.155   6.561 -0.2194  0.6085 -1.9521
 7134TIP3    H245598   1.523   1.173   6.495  1.2247  0.6650  0.8432
 7135TIP3   OH245599   0.121   2.988   0.468  1.0089  0.4266  0.1922
 7135TIP3    H145600   0.126   2.903   0.424  0.3366  0.3192  0.3102
 7135TIP3    H245601   0.211   3.018   0.473  1.2454 -0.2536  0.0848
 7136TIP3   OH245602   0.263   4.885   6.326 -0.2306 -0.2341 -0.1438
 7136TIP3    H145603   0.268   4.935   6.245  1.0920 -0.5333 -0.2641
 7136TIP3    H245604   0.276   4.950   6.395 -0.6418 -0.0909 -0.1981
 7137TIP3   OH245605   6.347   4.115   8.908  0.3882  0.5963 -0.0754
 7137TIP3    H145606   6.354   4.166   8.828  2.5768 -0.0943 -0.4041
 7137TIP3    H245607   6.391   4.169   8.974 -0.0677  0.5053  0.3030
 7138TIP3   OH245608   1.446   5.053   9.514  0.1578  0.1395  0.0630
 7138TIP3    H145609   1.371   5.033   9.569  0.0712 -0.4202 -0.2443
 7138TIP3    H245610   1.423   5.016   9.429  1.0368 -0.6046  0.1327
 7139TIP3   OH245611   3.658   3.274   9.578  0.2525  0.4055  0.4202
 7139TIP3    H145612   3.713   3.311   9.509 -0.5191 -0.7094 -0.8447
 7139TIP3    H245613   3.623   3.350   9.623 -0.0186  1.2160 -1.0693
 7140TIP3   OH245614   0.448   7.142   8.562 -0.1882 -0.8889 -0.2400
 7140TIP3    H145615   0.492   7.090   8.629  0.8570 -0.4736 -0.5733
 7140TIP3    H245616   0.441   7.230   8.600  1.3531 -0.3825 -1.0222
 7141TIP3   OH245617   7.252   1.128   6.654  0.3813  0.5336 -0.0284
 7141TIP3    H145618   7.293   1.211   6.629  1.6598 -0.5114 -1.6062
 7141TIP3    H245619   7.194   1.107   6.580  3.0800 -1.8623 -1.7035
 7142TIP3   OH245620   2.464   2.326   7.529  0.4619  0.4754 -0.1683
 7142TIP3    H145621   2.455   2.421   7.539  1.8786  0.6131  0.0486
 7142TIP3    H245622   2.529   2.315   7.460 -0.2276 -0.3646 -0.7151
 7143TIP3   OH245623   4.674   2.896   0.965  0.0915  0.2289 -0.1274
 7143TIP3    H145624   4.689   2.825   0.903 -0.2107  0.0501 -0.0007
 7143TIP3    H245625   4.589   2.933   0.939  0.6449  1.0992 -0.7175
 7144TIP3   OH245626   2.129   5.464   0.638  0.2715  0.2375 -0.0301
 7144TIP3    H145627   2.170   5.545   0.669  1.5816 -0.0488 -0.9577
 7144TIP3    H245628   2.198   5.399   0.639  0.3695  0.1346 -3.1862
 7145TIP3   OH245629   5.796   3.872   0.298 -0.8836 -0.4193  0.3685
 7145TIP3    H145630   5.734   3.817   0.347 -1.7153  0.7642  0.6663
 7145TIP3    H245631   5.745   3.948   0.271  0.1649  0.0512 -0.3460
 7146TIP3   OH245632   1.248   1.186   7.413  0.1616 -0.0477  0.1118
 7146TIP3    H145633   1.344   1.185   7.412  0.1727 -1.7879 -0.6302
 7146TIP3    H245634   1.224   1.235   7.334  0.4797 -1.3995 -0.8587
 7147TIP3   OH245635   2.626   0.798   9.200 -0.2708  0.0425 -0.1438
 7147TIP3    H145636   2.714   0.804   9.238  0.7208 -0.0496 -2.2785
 7147TIP3    H245637   2.568   0.789   9.275  1.5779 -0.2784  1.3156
 7148TIP3   OH245638   2.991   5.829   8.753 -0.2661  0.2266 -0.2405
 7148TIP3    H145639   3.022   5.792   8.670 -1.1949 -2.0085  0.3479
 7148TIP3    H245640   3.050   5.792   8.819  0.7395  2.3305  0.1375
 7149TIP3   OH245641   6.998   5.162   2.341 -0.1582  0.7761 -0.4758
 7149TIP3    H145642   7.069   5.123   2.291 -0.6025  0.3206 -0.7707
 7149TIP3    H245643   6.978   5.097   2.409 -1.2904  0.1957 -1.3248
 7150TIP3   OH245644   1.966   2.303   0.311  0.4001 -0.3617 -0.2109
 7150TIP3    H145645   1.971   2.377   0.251  1.6196 -0.8730 -0.7767
 7150TIP3    H245646   1.966   2.226   0.253  0.3679 -0.8273  0.4044
 7151TIP3   OH245647   2.217   3.355   9.279 -0.2076 -0.1786  0.4071
 7151TIP3    H145648   2.155   3.394   9.341  0.9947  0.1368  1.4413
 7151TIP3    H245649   2.280   3.424   9.262  0.7535 -0.9828  0.6082
 7152TIP3   OH245650   6.206   5.349   0.080  0.8432  0.1545  0.1812
 7152TIP3    H145651   6.190   5.285   0.150  0.1940  0.7135  0.5526
 7152TIP3    H245652   6.186   5.434   0.120  0.0408  0.4474 -0.7957
 7153TIP3   OH245653   5.787   1.134   9.590 -0.1504  0.5304 -0.2314
 7153TIP3    H145654   5.762   1.063   9.649  0.2399  0.0198 -0.6647
 7153TIP3    H245655   5.707   1.155   9.541 -0.8346  1.8776  1.3834
 7154TIP3   OH245656   3.119   2.846   0.158 -0.3430  0.5190 -0.6171
 7154TIP3    H145657   3.042   2.871   0.209 -0.3488  2.1180 -1.3454
 7154TIP3    H245658   3.091   2.858   0.067  0.6647  0.8121 -0.8932
 7155TIP3   OH245659   4.407   7.341   0.634  0.0347 -0.8619  0.2639
 7155TIP3    H145660   4.356   7.341   0.715  0.7704  0.2221  0.7576
 7155TIP3    H245661   4.409   7.433   0.607 -0.9473 -1.3003 -1.4927
 7156TIP3   OH245662   5.136   5.787   0.267 -0.0910  0.6411 -0.5617
 7156TIP3    H145663   5.190   5.821   0.196  0.6059 -1.1225 -0.9496
 7156TIP3    H245664   5.107   5.864   0.316  2.5527  1.6863 -0.5094
 7157TIP3   OH245665   5.766   7.187   0.476 -0.4299  0.0040 -0.0338
 7157TIP3    H145666   5.748   7.113   0.534 -1.7051  0.4459  0.1805
 7157TIP3    H245667   5.846   7.164   0.430 -0.5596 -1.2986  0.3718
 7158TIP3   OH245668   3.858   1.474   9.444 -0.3515  0.2263 -0.4221
 7158TIP3    H145669   3.920   1.402   9.437 -0.1144  0.2201  1.2896
 7158TIP3    H245670   3.911   1.553   9.439 -0.4733  0.2792 -1.0535
 7159TIP3   OH245671   3.327   3.479   8.099 -0.0518 -0.0670  0.2777
 7159TIP3    H145672   3.346   3.400   8.151  1.1157  0.6760  1.0401
 7159TIP3    H245673   3.407   3.495   8.049 -0.8465 -0.2518 -1.1052
 7160TIP3   OH245674   5.093   1.905   0.619 -0.3000  0.5547 -0.1427
 7160TIP3    H145675   5.001   1.878   0.619 -0.8380  2.2216 -0.2473
 7160TIP3    H245676   5.105   1.946   0.533  0.8111 -0.4354 -0.4781
 7161TIP3   OH245677   2.715   1.866   2.982 -0.0202 -0.2095 -0.3238
 7161TIP3    H145678   2.654   1.877   2.909 -0.5484 -1.2044 -0.0686
 7161TIP3    H245679   2.683   1.787   3.027  0.8739 -0.1742  0.4025
 7162TIP3   OH245680   5.737   2.799   1.796  0.2978 -0.4138  0.2632
 7162TIP3    H145681   5.783   2.784   1.713 -0.4935 -2.0299  0.0719
 7162TIP3    H245682   5.803   2.835   1.854  1.1281 -0.2339 -0.7609
 7163TIP3   OH245683   3.695   6.681   7.170 -0.2356 -0.1766 -0.3427
 7163TIP3    H145684   3.765   6.728   7.126  0.5397 -0.4052  0.5976
 7163TIP3    H245685   3.628   6.669   7.103  0.7025 -0.1290 -1.3267
 7164TIP3   OH245686   1.617   1.972   2.294  0.6070  0.2562  0.1114
 7164TIP3    H145687   1.708   1.963   2.267  0.0194  0.6088 -2.1806
 7164TIP3    H245688   1.601   1.895   2.349  2.0295 -0.2633 -0.1531
 7165TIP3   OH245689   2.643   5.236   1.527 -0.1798 -0.2369  0.0459
 7165TIP3    H145690   2.614   5.326   1.541  3.1065  0.7594  1.4987
 7165TIP3    H245691   2.606   5.188   1.601 -0.6021  0.3093  0.1961
 7166TIP3   OH245692   6.245   6.825   2.003  0.5414 -0.6449 -0.2840
 7166TIP3    H145693   6.338   6.847   2.006  0.7728 -1.6503  0.3598
 7166TIP3    H245694   6.223   6.801   2.092 -0.5441  0.3148 -0.2667
 7167TIP3   OH245695   6.486   6.514   9.454  0.1737 -0.6197  0.5162
 7167TIP3    H145696   6.521   6.594   9.414  1.8907 -0.3500  2.3996
 7167TIP3    H245697   6.422   6.545   9.518  0.1072 -0.8042  0.5407
 7168TIP3   OH245698   0.652   4.734   7.826  0.6941  0.2280  0.7158
 7168TIP3    H145699   0.723   4.724   7.889 -0.2825  0.4327  1.8990
 7168TIP3    H245700   0.577   4.694   7.869 -0.2667  1.3609  0.1533
 7169TIP3   OH245701   3.300   3.484   9.143 -0.6676 -0.0177 -0.0195
 7169TIP3    H145702   3.298   3.393   9.173  0.4896 -0.2053 -0.4588
 7169TIP3    H245703   3.257   3.482   9.057 -1.4703  0.0207  0.3776
 7170TIP3   OH245704   0.024   1.198   8.487  0.4928  0.1927 -0.0661
 7170TIP3    H145705  -0.041   1.245   8.539  1.5373  1.4727  0.1384
 7170TIP3    H245706   0.081   1.157   8.551  0.1425 -0.5686 -0.2391
 7171TIP3   OH245707   2.113   3.885   7.787  0.2064  0.0819  0.4052
 7171TIP3    H145708   2.066   3.944   7.728  0.2354  0.7060  0.9977
 7171TIP3    H245709   2.045   3.851   7.845 -0.0885 -1.6645 -0.8556
 7172TIP3   OH245710   2.166   6.860   8.032 -0.3609  0.4331 -0.2168
 7172TIP3    H145711   2.107   6.930   8.060 -0.0432  0.1970  1.0884
 7172TIP3    H245712   2.254   6.897   8.039 -0.2428  0.2004 -0.4205
 7173TIP3   OH245713   1.135   2.877   8.670 -0.9493  0.3785  0.1970
 7173TIP3    H145714   1.104   2.965   8.651  0.2541  0.6318 -0.7330
 7173TIP3    H245715   1.099   2.823   8.600 -1.0273  0.2820  0.3114
 7174TIP3   OH245716   5.937   3.193   2.178 -0.1958  0.5975  0.2922
 7174TIP3    H145717   5.884   3.117   2.155  0.2804  0.4716 -0.4020
 7174TIP3    H245718   6.024   3.158   2.194  0.5430  1.1963 -2.0242
 7175TIP3   OH245719   5.731   1.334   6.795  0.4713 -0.0643 -0.8407
 7175TIP3    H145720   5.747   1.243   6.769 -0.3120 -0.0404 -1.4452
 7175TIP3    H245721   5.694   1.327   6.883  2.3866 -0.1908 -0.0028
 7176TIP3   OH245722   5.370   0.279   0.197 -0.7454 -0.6188  0.1276
 7176TIP3    H145723   5.453   0.325   0.211 -0.1521 -2.0128  1.4663
 7176TIP3    H245724   5.309   0.347   0.171  0.5756  0.5954  0.0893
 7177TIP3   OH245725   4.581   0.747   0.936 -0.5915 -0.4247 -0.3614
 7177TIP3    H145726   4.631   0.809   0.882 -1.1238 -0.1859 -0.5912
 7177TIP3    H245727   4.606   0.768   1.026  0.8957 -1.3457 -0.5318
 7178TIP3   OH245728   5.270   3.574   8.092 -0.4619  0.0829 -0.4042
 7178TIP3    H145729   5.296   3.609   8.007  1.2666  1.0482  0.4816
 7178TIP3    H245730   5.198   3.630   8.120  1.7029  2.5502  0.6113
 7179TIP3   OH245731   4.121   3.000   8.163 -0.1643  0.0010  0.0625
 7179TIP3    H145732   4.077   3.062   8.223  1.1822  0.4744  0.6032
 7179TIP3    H245733   4.193   2.964   8.215 -1.3692 -2.6956  0.0366
 7180TIP3   OH245734   2.845   7.149   8.309 -0.3499  0.3364  0.0162
 7180TIP3    H145735   2.751   7.169   8.305 -0.4752 -0.4370 -1.2970
 7180TIP3    H245736   2.882   7.193   8.233  0.2257 -0.0382  0.0759
 7181TIP3   OH245737   1.474   4.888   0.964 -0.1596  0.5466 -0.1955
 7181TIP3    H145738   1.397   4.831   0.962  0.2523 -0.0229  0.0823
 7181TIP3    H245739   1.492   4.907   0.871  0.0272 -0.2289 -0.3251
 7182TIP3   OH245740   4.773   3.049   2.378 -0.0882  0.4026 -0.3192
 7182TIP3    H145741   4.755   3.110   2.306 -0.5905  1.4129  0.6216
 7182TIP3    H245742   4.734   2.966   2.350 -0.3142  0.7930 -1.1869
 7183TIP3   OH245743   5.411   0.285   9.339  0.0396 -0.2543 -0.1146
 7183TIP3    H145744   5.366   0.349   9.393 -0.2677 -0.9025  0.4034
 7183TIP3    H245745   5.342   0.230   9.304  0.3718 -0.8757  0.1960
 7184TIP3   OH245746   4.307   5.234   8.520 -0.1746 -0.4731 -0.1436
 7184TIP3    H145747   4.229   5.254   8.572 -0.2377  0.1476 -0.4616
 7184TIP3    H245748   4.275   5.231   8.430  0.3348  0.7917 -0.3874
 7185TIP3   OH245749   5.081   4.359   8.226  0.6549  0.2495 -0.3848
 7185TIP3    H145750   5.056   4.373   8.135  0.9551 -0.8925 -0.6558
 7185TIP3    H245751   5.172   4.391   8.232  0.7999 -0.1241 -0.6037
 7186TIP3   OH245752   1.388   5.135   1.078  0.2014  0.4512 -0.1368
 7186TIP3    H145753   1.450   5.203   1.051 -0.6962  0.4093 -2.6233
 7186TIP3    H245754   1.431   5.053   1.055  0.5675  0.2285  1.2594
 7187TIP3   OH245755   2.324   5.217   9.081  0.3043  0.2222 -0.4077
 7187TIP3    H145756   2.236   5.215   9.043 -0.7480 -0.4292  1.8887
 7187TIP3    H245757   2.315   5.270   9.160  1.5032 -1.3954  0.8943
 7188TIP3   OH245758   0.666   6.126   9.603  0.1124  0.0330  0.5902
 7188TIP3    H145759   0.671   6.034   9.632 -0.3101 -0.3180 -0.4136
 7188TIP3    H245760   0.752   6.162   9.623  0.8948 -1.0816 -0.6173
 7189TIP3   OH245761   2.481   2.347   9.392  0.4153 -0.1899  0.0557
 7189TIP3    H145762   2.521   2.391   9.317 -0.9421 -0.4179 -0.8466
 7189TIP3    H245763   2.502   2.403   9.467  0.7441  0.7073 -0.6907
 7190TIP3   OH245764   6.670   7.266   1.924  0.2047 -0.2582 -0.2518
 7190TIP3    H145765   6.744   7.280   1.865  0.6933 -0.8397  0.2086
 7190TIP3    H245766   6.709   7.226   2.002 -0.5199 -0.0692  0.2172
 7191TIP3   OH245767   5.394   6.219   1.020  0.2391 -0.2745 -0.2777
 7191TIP3    H145768   5.447   6.289   1.058  0.6191 -1.0477  0.6495
 7191TIP3    H245769   5.348   6.261   0.947  2.6403  0.2447 -1.5619
 7192TIP3   OH245770   2.350   6.650   8.693 -0.3390  0.3397 -0.2000
 7192TIP3    H145771   2.370   6.626   8.603 -2.3481  0.3454 -0.6965
 7192TIP3    H245772   2.313   6.738   8.688  1.4444  1.1959  0.9034
 7193TIP3   OH245773   5.518   2.698   7.315  0.1137 -0.2882  0.3893
 7193TIP3    H145774   5.549   2.611   7.339  1.3172  0.3664  1.3168
 7193TIP3    H245775   5.428   2.701   7.346 -0.4888 -1.7359 -1.0813
 7194TIP3   OH245776   4.909   1.388   1.709  0.6927 -0.3035 -0.5355
 7194TIP3    H145777   4.994   1.371   1.750  0.9008  0.5151 -0.6130
 7194TIP3    H245778   4.931   1.415   1.620  0.2326 -2.4322 -1.3674
 7195TIP3   OH245779   0.476   7.205   1.818 -0.1839  0.1453 -0.1052
 7195TIP3    H145780   0.519   7.145   1.879  1.7723  0.3069 -1.2387
 7195TIP3    H245781   0.417   7.149   1.768 -1.2725 -0.1142  1.3818
 7196TIP3   OH245782   6.462   3.581   1.800 -0.3474 -0.2960 -0.0514
 7196TIP3    H145783   6.526   3.617   1.862 -0.2099  1.2965 -1.0436
 7196TIP3    H245784   6.425   3.659   1.756 -2.1253 -1.2419 -0.3212
 7197TIP3   OH245785   6.905   5.592   9.541 -0.2225 -0.8527 -0.1588
 7197TIP3    H145786   6.915   5.575   9.634 -0.6120 -0.3808 -0.0238
 7197TIP3    H245787   6.830   5.538   9.515 -1.2921  0.3934  0.2143
 7198TIP3   OH245788   0.507   5.923   6.838 -0.5909 -0.3893 -0.3727
 7198TIP3    H145789   0.464   5.920   6.753  0.5511  0.5553 -1.0002
 7198TIP3    H245790   0.587   5.872   6.827  1.0188  2.0512 -0.7656
 7199TIP3   OH245791   5.262   2.299   8.445 -0.2994 -0.2907 -0.0944
 7199TIP3    H145792   5.262   2.232   8.513 -0.0079  1.2659  1.5169
 7199TIP3    H245793   5.330   2.361   8.473  1.8412 -0.9824 -3.2855
 7200TIP3   OH245794   2.019   4.007   1.917 -0.0878  0.2907  0.3299
 7200TIP3    H145795   1.933   3.965   1.919  0.1348 -0.2808 -1.1325
 7200TIP3    H245796   2.078   3.943   1.957 -0.1415  0.1803  0.2309
 7201TIP3   OH245797   1.681   4.460   1.784 -0.0098  0.2273  0.2006
 7201TIP3    H145798   1.667   4.367   1.802 -1.2797  0.3219 -0.2583
 7201TIP3    H245799   1.664   4.470   1.690  1.1659  0.7451  0.0184
 7202TIP3   OH245800   2.224   3.241   0.361  0.0686 -0.2266  0.4185
 7202TIP3    H145801   2.318   3.258   0.358  0.2472 -1.2796 -1.5164
 7202TIP3    H245802   2.198   3.268   0.449  1.7734  2.0236  0.3363
 7203TIP3   OH245803   2.716   2.833   7.081  0.9615  0.0914 -0.0596
 7203TIP3    H145804   2.729   2.898   7.149  1.0327  0.0019  0.0130
 7203TIP3    H245805   2.653   2.873   7.021  0.0330 -0.2729  0.6451
 7204TIP3   OH245806   1.327   1.163   1.609  0.0573 -0.3746  0.3232
 7204TIP3    H145807   1.274   1.094   1.568  0.8648 -1.7086  1.4480
 7204TIP3    H245808   1.273   1.196   1.680  0.6561 -1.6939  1.4330
 7205TIP3   OH245809   5.578   7.094   1.088  0.0233 -0.3531  0.1490
 7205TIP3    H145810   5.632   7.149   1.145 -2.0487  0.5927  1.3251
 7205TIP3    H245811   5.549   7.022   1.143  0.4155 -1.0947 -0.5871
 7206TIP3   OH245812   5.700   1.841   7.678  0.1214 -0.2601 -0.4923
 7206TIP3    H145813   5.653   1.861   7.597  0.6331 -0.6818 -0.8958
 7206TIP3    H245814   5.683   1.748   7.694 -0.6768  0.0100  0.3508
 7207TIP3   OH245815   0.671   1.746   6.663 -0.5067 -0.0343 -0.6726
 7207TIP3    H145816   0.654   1.807   6.735  0.5906 -1.0156  0.4458
 7207TIP3    H245817   0.660   1.659   6.701 -1.2893 -0.5872 -2.0580
 7208TIP3   OH245818   3.170   0.156   6.803  0.1825  0.1380 -0.0903
 7208TIP3    H145819   3.156   0.066   6.832 -0.2453 -0.0576 -0.8602
 7208TIP3    H245820   3.265   0.165   6.799  0.2297 -0.3843 -0.2811
 7209TIP3   OH245821   5.954   2.717   9.019  0.5201 -0.3961  0.2309
 7209TIP3    H145822   5.912   2.803   9.011  0.5321 -0.4808 -0.9635
 7209TIP3    H245823   5.995   2.718   9.106  1.2284  1.1403 -0.0747
 7210TIP3   OH245824   4.246   2.730   7.640 -0.6194 -0.0112 -0.3292
 7210TIP3    H145825   4.153   2.709   7.642 -0.5167 -0.4733 -0.3876
 7210TIP3    H245826   4.253   2.803   7.579 -0.8941 -0.2188 -0.6119
 7211TIP3   OH245827   0.704   7.223   1.286  0.0860  0.3041 -0.5005
 7211TIP3    H145828   0.728   7.138   1.324 -1.5815  0.1051  0.2072
 7211TIP3    H245829   0.612   7.213   1.260 -0.3877  2.0947  0.2905
 7212TIP3   OH245830   0.127   1.910   2.928 -0.1204  0.0459 -0.0796
 7212TIP3    H145831   0.139   1.834   2.870 -1.5580 -0.4762  0.2811
 7212TIP3    H245832   0.081   1.974   2.874 -2.4216 -0.8370  0.7317
 7213TIP3   OH245833   0.516   5.048   8.414 -0.0609 -0.0742  0.0953
 7213TIP3    H145834   0.510   5.051   8.318  0.7833 -4.2263 -0.2902
 7213TIP3    H245835   0.426   5.035   8.443 -0.4380  2.0047  0.0557
 7214TIP3   OH245836   6.761   7.173   2.156  0.1031 -0.1913  0.0231
 7214TIP3    H145837   6.728   7.175   2.246  0.2160  2.7988  0.0951
 7214TIP3    H245838   6.835   7.233   2.156  0.9401 -1.1414 -1.8099
 7215TIP3   OH245839   0.109   2.259   7.043 -0.5052 -0.5478  0.2561
 7215TIP3    H145840   0.039   2.303   7.092 -0.7820  2.1271 -2.2951
 7215TIP3    H245841   0.065   2.221   6.967  0.5023 -0.9431 -0.1414
 7216TIP3   OH245842   0.200   4.176   6.616  0.0894 -0.2722 -0.0187
 7216TIP3    H145843   0.262   4.211   6.552  0.0229 -0.8454 -0.3981
 7216TIP3    H245844   0.177   4.252   6.671  2.2156 -0.3289  1.0504
 7217TIP3   OH245845   4.174   5.160   2.049  0.0613  0.1512  0.4001
 7217TIP3    H145846   4.222   5.200   2.122  1.8120  0.5905 -0.9299
 7217TIP3    H245847   4.241   5.114   1.999 -1.2657 -0.9960 -0.4087
 7218TIP3   OH245848   3.523   3.417   0.702 -0.3412  0.4618  0.0695
 7218TIP3    H145849   3.531   3.395   0.609 -0.3398  1.3460 -0.1496
 7218TIP3    H245850   3.507   3.511   0.703 -1.7935  0.2298  0.9134
 7219TIP3   OH245851   2.452   1.576   2.399  0.0767 -0.1541  0.5855
 7219TIP3    H145852   2.388   1.607   2.334 -0.1682  0.1257  0.9522
 7219TIP3    H245853   2.488   1.657   2.436  1.0815 -0.3032 -0.0278
 7220TIP3   OH245854   4.396   0.013   6.579 -0.1905  0.4993  0.0395
 7220TIP3    H145855   4.446  -0.051   6.630 -0.6904 -0.9285 -1.1741
 7220TIP3    H245856   4.305  -0.016   6.587 -0.2510  0.0336 -1.8687
 7221TIP3   OH245857   0.326   0.739   0.181 -0.0714 -0.3144 -0.0997
 7221TIP3    H145858   0.361   0.653   0.203  0.1124  0.1757  1.6689
 7221TIP3    H245859   0.359   0.797   0.250  0.3752  1.3315 -1.6074
 7222TIP3   OH245860   0.086   6.367   8.316  0.1615 -0.2386  0.2457
 7222TIP3    H145861   0.041   6.285   8.340  0.7985 -0.2851  1.3231
 7222TIP3    H245862   0.092   6.363   8.220  1.8684 -2.3793  0.3606
 7223TIP3   OH245863   1.824   2.908   8.896  0.0269 -0.1215  0.0143
 7223TIP3    H145864   1.834   2.816   8.871  1.3533  0.1654 -0.6249
 7223TIP3    H245865   1.733   2.916   8.924 -0.2941 -1.4780 -0.5637
 7224TIP3   OH245866   4.631   6.417   7.522  0.4361 -0.4626 -0.2657
 7224TIP3    H145867   4.535   6.423   7.521  0.4849  0.4628  0.0517
 7224TIP3    H245868   4.653   6.378   7.437 -0.2824 -1.9286  0.1837
 7225TIP3   OH245869   5.578   3.529   2.423  0.0248 -0.2695  0.2761
 7225TIP3    H145870   5.575   3.436   2.402 -1.3018  0.2195 -1.9930
 7225TIP3    H245871   5.640   3.566   2.361 -0.7449  0.6090  0.0108
 7226TIP3   OH245872   4.301   3.411   9.235 -0.2813 -0.2310  0.4455
 7226TIP3    H145873   4.208   3.390   9.251 -0.6809  1.8152  1.0152
 7226TIP3    H245874   4.346   3.377   9.312 -0.9307  1.0838  1.4367
 7227TIP3   OH245875   4.019   0.523   7.145  0.0328  0.1919 -0.1396
 7227TIP3    H145876   3.925   0.503   7.149  0.0720  0.0784  0.2127
 7227TIP3    H245877   4.039   0.521   7.051 -0.5568  1.3543 -0.3103
 7228TIP3   OH245878   5.463   1.400   7.919  0.5847 -0.3277  0.4029
 7228TIP3    H145879   5.450   1.494   7.931 -1.2665 -0.4857 -0.0276
 7228TIP3    H245880   5.395   1.359   7.973  1.4335 -1.4474  0.6782
 7229TIP3   OH245881   4.979   0.185   1.807 -0.4028  0.2199  0.1425
 7229TIP3    H145882   5.038   0.151   1.740 -0.1705 -0.3169  0.6104
 7229TIP3    H245883   5.012   0.273   1.826 -0.4173  0.3412 -0.3737
 7230TIP3   OH245884   4.925   2.312   8.343  0.0919 -0.1203  0.4427
 7230TIP3    H145885   4.890   2.227   8.367  2.5128 -0.6399  2.6237
 7230TIP3    H245886   5.010   2.293   8.303  0.3306  1.2438  0.2333
 7231TIP3   OH245887   5.117   4.125   8.322 -0.3251 -0.3580  0.0184
 7231TIP3    H145888   5.123   4.148   8.414 -0.5219  0.0220 -0.0600
 7231TIP3    H245889   5.090   4.206   8.279  2.1680  0.1835 -0.6977
 7232TIP3   OH245890   0.618   1.316   8.367  0.0389  0.3924  0.1203
 7232TIP3    H145891   0.649   1.228   8.389  0.0834  0.6054  0.9338
 7232TIP3    H245892   0.682   1.375   8.406 -0.6095  0.8085  0.5852
 7233TIP3   OH245893   1.359   4.362   0.621 -0.0190  0.7230  0.2438
 7233TIP3    H145894   1.268   4.345   0.644 -0.1297  0.4636 -0.3602
 7233TIP3    H245895   1.387   4.282   0.577  1.4135 -0.4432  2.9974
 7234TIP3   OH245896   1.776   2.487   1.072  0.1490  0.3804 -0.3144
 7234TIP3    H145897   1.848   2.550   1.079  1.5845 -1.2874  1.1728
 7234TIP3    H245898   1.778   2.459   0.980 -1.4894  3.4374 -1.4113
 7235TIP3   OH245899   2.575   4.141   7.591 -0.3576  0.0735  0.3019
 7235TIP3    H145900   2.570   4.148   7.496  0.8156  0.7172  0.2733
 7235TIP3    H245901   2.489   4.107   7.617 -0.4141 -0.8989 -1.0463
 7236TIP3   OH245902   3.156   3.335   0.612  0.2807 -0.1680  0.4759
 7236TIP3    H145903   3.186   3.323   0.702  1.2851 -2.0890 -0.0695
 7236TIP3    H245904   3.061   3.327   0.617  0.2435  0.6371  1.4653
 7237TIP3   OH245905   5.583   0.517   0.823 -0.5130  0.3213  0.0326
 7237TIP3    H145906   5.521   0.555   0.761 -2.0972 -0.5602  0.9955
 7237TIP3    H245907   5.528   0.470   0.886  1.1524 -0.5735  0.8973
 7238TIP3   OH245908   6.488   3.757   0.919  0.6732 -0.1258 -0.2125
 7238TIP3    H145909   6.488   3.680   0.863  1.6247  0.0303 -0.4384
 7238TIP3    H245910   6.560   3.810   0.887 -0.7058  1.4529 -0.8432
 7239TIP3   OH245911   1.127   5.289   7.506  0.2920 -0.1354 -0.1533
 7239TIP3    H145912   1.197   5.248   7.456  0.9759 -0.9970  1.4641
 7239TIP3    H245913   1.049   5.236   7.486  0.6304 -0.6834 -0.0292
 7240TIP3   OH245914   0.067   3.965   8.636 -0.0143  0.0457  0.0412
 7240TIP3    H145915   0.163   3.971   8.641 -0.0239 -0.1807  0.5455
 7240TIP3    H245916   0.039   3.958   8.727 -0.6905  2.4947  0.0722
 7241TIP3   OH245917   3.150   0.301   0.707 -0.2678  0.1686 -0.7444
 7241TIP3    H145918   3.169   0.394   0.713 -1.1203  0.3824 -1.2823
 7241TIP3    H245919   3.055   0.294   0.712 -0.2325 -0.6511 -0.9106
 7242TIP3   OH245920   3.857   3.017   6.471 -0.3102 -0.7776  0.0934
 7242TIP3    H145921   3.862   2.926   6.502 -0.5537 -0.6671  0.4662
 7242TIP3    H245922   3.947   3.050   6.479 -0.2747 -0.9038  0.2200
 7243TIP3   OH245923   5.334   3.872   7.655  0.3553 -0.0706  0.0429
 7243TIP3    H145924   5.369   3.833   7.574 -0.3181  0.4252 -0.5070
 7243TIP3    H245925   5.367   3.961   7.654  0.3546 -0.0680  0.3268
 7244TIP3   OH245926   2.120   4.184   1.053  0.1828 -0.8301  0.0981
 7244TIP3    H145927   2.071   4.202   1.133 -0.5363  0.6240 -0.6432
 7244TIP3    H245928   2.204   4.228   1.066  0.7781 -2.0897  0.7542
 7245TIP3   OH245929   2.212   0.323   8.715 -0.0277 -0.0223 -0.0341
 7245TIP3    H145930   2.184   0.414   8.716 -0.0110 -0.0128  1.0052
 7245TIP3    H245931   2.297   0.323   8.759 -1.3924 -0.9087  2.8710
 7246TIP3   OH245932   0.197   1.784   8.065  0.0420 -0.4587  0.6203
 7246TIP3    H145933   0.190   1.738   7.982 -1.0323 -0.3012  0.6154
 7246TIP3    H245934   0.237   1.720   8.124  0.2130 -0.7891  0.1507
 7247TIP3   OH245935   0.124   5.573   8.078 -0.1328  0.7390  0.1056
 7247TIP3    H145936   0.094   5.543   8.163 -1.4279 -0.6745 -0.7889
 7247TIP3    H245937   0.122   5.494   8.023  0.2642  1.6893 -1.3216
 7248TIP3   OH245938   3.023   6.409   1.751  0.1555 -0.3607  0.3697
 7248TIP3    H145939   2.963   6.483   1.761  0.2660  0.4777 -3.5630
 7248TIP3    H245940   3.110   6.449   1.753  0.2369 -0.4141 -1.1968
 7249TIP3   OH245941   6.537   5.680   8.902  0.1968  0.5666 -0.0636
 7249TIP3    H145942   6.510   5.711   8.988 -0.1308  2.0273 -0.6536
 7249TIP3    H245943   6.597   5.747   8.870  0.9231 -0.3442 -0.6700
 7250TIP3   OH245944   4.720   0.480   7.184  0.0946 -0.2731 -0.0496
 7250TIP3    H145945   4.757   0.402   7.142 -1.9669 -0.2249 -2.1711
 7250TIP3    H245946   4.772   0.553   7.150  0.1017 -0.4793 -0.4861
 7251TIP3   OH245947   5.775   5.953   9.591 -0.2268 -0.0413  0.2679
 7251TIP3    H145948   5.756   5.864   9.564  2.2940 -0.9163  1.0512
 7251TIP3    H245949   5.720   5.967   9.668 -0.5453 -0.9795  0.2171
 7252TIP3   OH245950   4.126   1.815   0.092  0.0257  0.9450  0.0321
 7252TIP3    H145951   4.191   1.843   0.028  0.1993  0.6224  0.0660
 7252TIP3    H245952   4.134   1.720   0.095  0.5558  1.0072  1.0810
 7253TIP3   OH245953   5.643   5.150   9.376 -0.6586  0.3109  0.1655
 7253TIP3    H145954   5.547   5.148   9.382 -0.7225 -0.5289 -0.7329
 7253TIP3    H245955   5.661   5.188   9.290 -0.1552  1.1484  0.6298
 7254TIP3   OH245956   0.878   5.636   7.219  0.5016 -0.3474  0.2301
 7254TIP3    H145957   0.934   5.704   7.256  0.6622  0.0002 -0.6171
 7254TIP3    H245958   0.887   5.647   7.124  0.1168 -1.2135  0.0840
 7255TIP3   OH245959   5.379   1.958   2.046 -0.3013 -0.0331 -0.1075
 7255TIP3    H145960   5.444   1.924   2.106 -0.1951 -0.5619 -0.5234
 7255TIP3    H245961   5.352   1.883   1.993 -0.5655  0.3757 -0.5645
 7256TIP3   OH245962   3.179   7.334   2.983  0.0192  0.1741  0.4784
 7256TIP3    H145963   3.157   7.246   2.952 -1.4401 -1.0134  4.3052
 7256TIP3    H245964   3.147   7.392   2.913 -0.4254 -2.2331 -1.4669
 7257TIP3   OH245965   5.369   1.129   7.455  0.1414  0.0642  0.2772
 7257TIP3    H145966   5.393   1.164   7.540 -0.4961 -1.6614  1.2208
 7257TIP3    H245967   5.289   1.175   7.430 -1.0745 -1.1313  1.8077
 7258TIP3   OH245968   4.026   5.462   8.077 -0.4629  0.2885  1.1858
 7258TIP3    H145969   3.960   5.528   8.060 -0.8472  0.3000  2.6604
 7258TIP3    H245970   4.050   5.473   8.169  1.4540  0.1547  0.7592
 7259TIP3   OH245971   2.715   3.895   9.103  0.5245 -0.5034 -0.2358
 7259TIP3    H145972   2.675   3.928   9.183 -0.2187 -1.0060 -0.3804
 7259TIP3    H245973   2.766   3.968   9.069 -0.3611  0.2079 -0.0837
 7260TIP3   OH245974   6.164   3.782   8.738 -0.4490  0.2169 -0.1288
 7260TIP3    H145975   6.219   3.704   8.744  0.4951  0.8987  0.2721
 7260TIP3    H245976   6.154   3.796   8.644 -0.3857 -0.2068 -0.2040
 7261TIP3   OH245977   0.405   3.301   0.143  0.0099  0.4013  0.2553
 7261TIP3    H145978   0.396   3.264   0.230 -0.9016  0.0701  0.0313
 7261TIP3    H245979   0.324   3.351   0.130 -0.5759 -0.7998 -0.9812
 7262TIP3   OH245980   5.152   0.025   8.195  0.3433  0.5516  0.1199
 7262TIP3    H145981   5.173   0.105   8.243 -1.4038  0.5389  1.0015
 7262TIP3    H245982   5.059   0.010   8.214  0.6920 -1.8424  0.1769
 7263TIP3   OH245983   2.734   0.757   0.164  0.0000 -0.1703  0.1169
 7263TIP3    H145984   2.695   0.757   0.076 -0.3619 -0.0967  0.2760
 7263TIP3    H245985   2.782   0.839   0.169 -1.1482  0.4963  0.4957
 7264TIP3   OH245986   5.245   4.139   1.074  0.1124 -0.1395 -0.6468
 7264TIP3    H145987   5.154   4.117   1.054 -0.3186 -1.2828  2.2245
 7264TIP3    H245988   5.240   4.192   1.154  1.9185  0.9229 -1.1781
 7265TIP3   OH245989   6.700   1.151   0.986  0.4204 -0.8912 -0.2115
 7265TIP3    H145990   6.661   1.157   1.073 -0.4280 -1.4313 -0.5468
 7265TIP3    H245991   6.644   1.205   0.930  0.8985 -0.6326 -0.4516
 7266TIP3   OH245992   3.098   5.318   8.494 -0.2562  0.6103  0.0770
 7266TIP3    H145993   3.171   5.379   8.483 -0.4441  0.7587 -0.3771
 7266TIP3    H245994   3.105   5.259   8.418  1.3667 -1.4740  1.7063
 7267TIP3   OH245995   1.264   0.448   7.750  0.1014 -0.5157  0.3981
 7267TIP3    H145996   1.222   0.534   7.758  0.0073 -0.7100  2.5679
 7267TIP3    H245997   1.331   0.461   7.682 -0.8602  0.8508 -0.3410
 7268TIP3   OH245998   2.004   0.230   0.361 -0.6448  0.4203 -0.1834
 7268TIP3    H145999   1.987   0.319   0.330 -0.9169  0.5312  0.2718
 7268TIP3    H246000   1.981   0.232   0.454 -0.2842 -0.0251 -0.0784
 7269TIP3   OH246001   1.244   2.096   6.581 -0.2972  0.0303  0.2295
 7269TIP3    H146002   1.164   2.059   6.545 -0.2929  0.5638 -0.3385
 7269TIP3    H246003   1.314   2.043   6.544 -0.3934 -0.6096  0.9397
 7270TIP3   OH246004   6.160   3.747   6.568  0.0353  0.4606 -0.4265
 7270TIP3    H146005   6.158   3.801   6.646  0.3153 -0.6561  0.3815
 7270TIP3    H246006   6.071   3.751   6.533 -0.3792  0.1196  0.5633
 7271TIP3   OH246007   6.464   2.321   6.874  0.1527  0.4738 -0.3535
 7271TIP3    H146008   6.461   2.261   6.800  1.2515 -1.5170  1.1048
 7271TIP3    H246009   6.553   2.355   6.874  0.3644 -0.0526  0.4084
 7272TIP3   OH246010   0.658   2.266   8.803 -0.0803  0.2741 -0.4089
 7272TIP3    H146011   0.610   2.188   8.777 -1.0668  0.3351  1.0923
 7272TIP3    H246012   0.598   2.338   8.783 -0.1652  0.4398  0.3815
 7273TIP3   OH246013   2.669   2.002   0.457 -0.0577  0.8014 -0.3975
 7273TIP3    H146014   2.641   2.089   0.485 -0.1270  1.4338 -2.2531
 7273TIP3    H246015   2.686   2.012   0.363  1.7987 -0.7302 -0.2798
 7274TIP3   OH246016   6.285   5.736   7.788  0.3112 -0.4353 -0.6617
 7274TIP3    H146017   6.238   5.658   7.758 -0.1729 -1.1540  1.7134
 7274TIP3    H246018   6.273   5.736   7.883  0.9350  2.1503 -0.4986
 7275TIP3   OH246019   1.697   5.297   7.383 -0.5428 -0.0429  0.3855
 7275TIP3    H146020   1.754   5.355   7.433  0.1797 -0.1380 -0.3139
 7275TIP3    H246021   1.729   5.209   7.405  0.0609 -0.0699 -0.5656
 7276TIP3   OH246022   2.038   6.952   0.610  0.0031  0.1009 -0.5689
 7276TIP3    H146023   1.989   6.917   0.535 -1.7479 -0.0306  0.5942
 7276TIP3    H246024   2.019   6.891   0.681  1.1299  0.5807  0.1616
 7277TIP3   OH246025   2.401   7.323   7.018 -0.2300  0.1395 -0.0689
 7277TIP3    H146026   2.435   7.236   6.998  0.7075  0.2755  0.8589
 7277TIP3    H246027   2.374   7.318   7.110  0.0338  0.8866  0.0549
 7278TIP3   OH246028   2.397   4.444   7.427  0.3885  0.1208  0.4488
 7278TIP3    H146029   2.460   4.495   7.376  1.5105 -1.5572  0.0831
 7278TIP3    H246030   2.322   4.434   7.368  0.7993  0.0317 -0.0730
 7279TIP3   OH246031   5.331   6.486   7.521  0.5711  0.4747 -0.4472
 7279TIP3    H146032   5.266   6.519   7.460  1.4618  2.3383 -0.4498
 7279TIP3    H246033   5.395   6.557   7.529  2.4603 -1.1476 -0.2253
 7280TIP3   OH246034   2.799   4.204   2.368  0.2721 -0.3572  0.2199
 7280TIP3    H146035   2.748   4.124   2.361 -0.9025  0.4162 -0.2997
 7280TIP3    H246036   2.734   4.273   2.379  1.2155  0.6443 -0.3416
 7281TIP3   OH246037   5.943   7.207   6.960  0.1082 -0.0545 -0.9019
 7281TIP3    H146038   5.934   7.248   7.046  0.5082  1.5612 -1.6119
 7281TIP3    H246039   5.952   7.113   6.980  1.8475  0.4372  0.9241
 7282TIP3   OH246040   1.673   3.226   7.239 -0.1399 -0.2107  0.5700
 7282TIP3    H146041   1.676   3.134   7.264  0.4095 -0.4078 -0.1889
 7282TIP3    H246042   1.582   3.252   7.254 -1.0254 -1.6465 -1.8627
 7283TIP3   OH246043   5.443   2.502   6.825  0.4111 -0.0194  0.1051
 7283TIP3    H146044   5.374   2.542   6.877 -1.3969 -1.0164 -1.4209
 7283TIP3    H246045   5.426   2.531   6.736  0.7816 -1.8278 -0.5957
 7284TIP3   OH246046   6.571   6.799   6.914  0.0047 -0.2914 -0.0826
 7284TIP3    H146047   6.617   6.755   6.986  0.2955  0.3482  0.1292
 7284TIP3    H246048   6.639   6.845   6.866 -0.3578  0.3643  0.0189
 7285TIP3   OH246049   5.413   1.634   8.789 -0.3240  0.1343  0.2020
 7285TIP3    H146050   5.493   1.647   8.738 -1.2390  0.8913 -1.0783
 7285TIP3    H246051   5.392   1.541   8.778 -1.2021  0.5394 -1.9031
 7286TIP3   OH246052   6.476   1.333   7.457  0.2700  0.7059 -0.3308
 7286TIP3    H146053   6.425   1.414   7.455  0.2258  0.6723 -1.1995
 7286TIP3    H246054   6.563   1.359   7.486 -0.0509  0.8768  0.4856
 7287TIP3   OH246055   4.207   4.899   7.602  0.1077  0.1218 -1.1834
 7287TIP3    H146056   4.302   4.899   7.595  0.2203  0.8732 -0.0532
 7287TIP3    H246057   4.188   4.828   7.664 -0.1124 -0.3564 -1.7935
 7288TIP3   OH246058   1.984   4.234   7.304 -0.0488  0.1265  0.3692
 7288TIP3    H146059   2.073   4.201   7.314  0.2898  0.5920 -0.9286
 7288TIP3    H246060   1.985   4.320   7.345  0.2635  0.3809 -0.1677
 7289TIP3   OH246061   3.855   3.531   9.547 -0.0087  0.5268  0.2018
 7289TIP3    H146062   3.874   3.624   9.557 -0.7082  0.9479 -1.7788
 7289TIP3    H246063   3.778   3.516   9.601 -0.3145  1.2812 -0.0096
 7290TIP3   OH246064   0.448   2.303   0.632 -0.3531  0.1879  0.0407
 7290TIP3    H146065   0.424   2.315   0.541 -0.4792  0.9272  0.1625
 7290TIP3    H246066   0.536   2.266   0.630 -1.0830 -1.6241 -0.3956
 7291TIP3   OH246067   2.335   4.739   1.294 -0.0991  0.6282  0.4367
 7291TIP3    H146068   2.277   4.742   1.371  2.4071  1.5294  2.4185
 7291TIP3    H246069   2.408   4.796   1.317  1.1639  0.2603 -2.3228
 7292TIP3   OH246070   4.007   1.934   8.300 -0.1848 -0.0297  0.5338
 7292TIP3    H146071   4.073   1.947   8.368  0.3600  0.8388 -0.1393
 7292TIP3    H246072   3.984   2.023   8.272 -1.8091 -0.3028  0.9071
 7293TIP3   OH246073   1.295   2.528   1.594  0.5570 -0.0919 -1.0841
 7293TIP3    H146074   1.296   2.433   1.590 -0.6855 -0.1340 -0.5965
 7293TIP3    H246075   1.366   2.550   1.654  1.4591 -0.6543 -1.9193
 7294TIP3   OH246076   5.776   3.048   6.637 -0.5238  0.6878 -0.5194
 7294TIP3    H146077   5.774   3.119   6.573  0.5306  0.0978 -1.2450
 7294TIP3    H246078   5.690   3.050   6.678 -0.8374  1.7825 -1.1807
 7295TIP3   OH246079   4.217   3.099   6.880  0.3970 -0.0882 -0.2920
 7295TIP3    H146080   4.212   3.194   6.878 -0.4104 -0.1231 -0.1299
 7295TIP3    H246081   4.156   3.073   6.949  0.1671 -0.7470 -0.7299
 7296TIP3   OH246082   4.230   7.222   9.157 -0.2421 -0.4973  0.4334
 7296TIP3    H146083   4.219   7.232   9.062  1.0256  0.0141  0.3196
 7296TIP3    H246084   4.189   7.138   9.177  0.5596 -1.2150 -0.7837
 7297TIP3   OH246085   5.334   2.671   1.438  0.2203 -0.6405 -0.5360
 7297TIP3    H146086   5.368   2.755   1.408  1.6746 -0.3310  1.7758
 7297TIP3    H246087   5.333   2.678   1.534 -2.4046 -2.2220 -0.3367
 7298TIP3   OH246088   5.438   1.281   8.415 -0.1381  0.5670 -0.0569
 7298TIP3    H146089   5.508   1.297   8.352 -0.8667  0.3225 -0.9452
 7298TIP3    H246090   5.447   1.351   8.480  1.1702  0.2949  0.0699
 7299TIP3   OH246091   6.695   1.412   7.939  0.4543 -0.2569  0.4553
 7299TIP3    H146092   6.763   1.445   7.881 -0.2388  0.4859  0.0492
 7299TIP3    H246093   6.619   1.399   7.883  0.0640 -0.4612  1.0184
 7300TIP3   OH246094   1.600   1.646   8.718  0.8463 -0.1546 -0.0402
 7300TIP3    H146095   1.594   1.598   8.801  3.4138 -0.3988  0.0935
 7300TIP3    H246096   1.579   1.581   8.651 -1.9104  0.2094  0.3647
 7301TIP3   OH246097   4.010   1.116   0.506 -0.0261  0.2133  0.7386
 7301TIP3    H146098   4.091   1.082   0.546  0.3231  1.7504  1.4168
 7301TIP3    H246099   3.981   1.046   0.448  1.5345 -0.5760  0.8517
 7302TIP3   OH246100   1.899   2.533   8.762  0.5312  0.1639  0.1708
 7302TIP3    H146101   1.884   2.489   8.679 -1.1148 -1.9339  1.4653
 7302TIP3    H246102   1.966   2.599   8.743  0.4638 -0.4797 -2.6886
 7303TIP3   OH246103   5.720   2.548   0.241 -0.2315 -0.3186  0.3821
 7303TIP3    H146104   5.658   2.607   0.283  0.4297  1.1920 -0.6985
 7303TIP3    H246105   5.693   2.545   0.149  1.1560  0.2126 -0.0692
 7304TIP3   OH246106   2.415   2.690   2.262 -0.1985  0.7598 -0.5396
 7304TIP3    H146107   2.404   2.638   2.342  1.1826 -0.0340 -0.8496
 7304TIP3    H246108   2.325   2.712   2.236 -0.7873 -0.8723 -0.0147
 7305TIP3   OH246109   0.203   2.030   6.431 -0.9558  0.7131  0.0800
 7305TIP3    H146110   0.200   1.951   6.377  0.9736 -0.4918  1.6124
 7305TIP3    H246111   0.295   2.058   6.427 -1.3434  2.1567  0.6094
 7306TIP3   OH246112   1.642   5.363   1.974  0.3419  0.5785 -0.1399
 7306TIP3    H146113   1.681   5.344   2.059  0.7649 -0.7684 -0.5990
 7306TIP3    H246114   1.594   5.445   1.987 -1.0370 -0.4625  1.8516
 7307TIP3   OH246115   5.679   5.560   0.480 -0.2027 -0.2324  0.1729
 7307TIP3    H146116   5.691   5.581   0.387  1.2858  1.2305  0.6554
 7307TIP3    H246117   5.761   5.517   0.505 -1.6761 -3.3815  0.1764
 7308TIP3   OH246118   3.565   2.740   0.400 -0.2137  0.3701  0.2445
 7308TIP3    H146119   3.613   2.763   0.321  0.3589 -0.0110  0.4714
 7308TIP3    H246120   3.477   2.774   0.386 -0.5074 -0.8915 -1.1447
 7309TIP3   OH246121   0.258   2.033   0.694 -0.4667 -0.8581  0.4561
 7309TIP3    H146122   0.304   2.097   0.639 -0.3917 -0.6119  0.7972
 7309TIP3    H246123   0.174   2.021   0.652 -0.9696  0.3908  1.0354
 7310TIP3   OH246124   2.633   6.629   8.977 -0.3402 -0.0293  0.0894
 7310TIP3    H146125   2.668   6.688   8.909  0.7896  0.1636  0.8061
 7310TIP3    H246126   2.622   6.685   9.054 -1.0228 -0.3777  0.2525
 7311TIP3   OH246127   6.594   2.665   1.872  0.5974 -0.1085 -0.1503
 7311TIP3    H146128   6.586   2.590   1.813  0.7277 -0.4788  0.2954
 7311TIP3    H246129   6.689   2.677   1.881  0.5754  0.6315 -0.8737
 7312TIP3   OH246130   3.706   2.903   1.367 -0.6725 -0.0856  0.4727
 7312TIP3    H146131   3.730   2.994   1.380  0.4217 -0.0913 -1.2134
 7312TIP3    H246132   3.671   2.874   1.451  0.1914  1.5084  1.3993
 7313TIP3   OH246133   6.701   2.244   7.642 -0.0550 -0.0523  0.1677
 7313TIP3    H146134   6.742   2.331   7.638  0.1446 -0.1934 -1.3461
 7313TIP3    H246135   6.610   2.259   7.617  0.2089 -0.3920 -1.0714
 7314TIP3   OH246136   7.147   0.661   6.728 -0.1798 -0.7430  0.1659
 7314TIP3    H146137   7.112   0.721   6.794 -0.9384 -1.8448  0.8183
 7314TIP3    H246138   7.093   0.676   6.651  1.0434  0.9203 -0.4261
 7315TIP3   OH246139   3.513   6.450   7.271 -0.7337 -0.4601 -0.4736
 7315TIP3    H146140   3.438   6.499   7.235 -0.2712 -0.4873 -1.5093
 7315TIP3    H246141   3.535   6.387   7.203  1.1412  0.4955 -0.8248
 7316TIP3   OH246142   6.885   6.858   1.355  0.1535  0.0456  0.1949
 7316TIP3    H146143   6.966   6.889   1.397  0.2697  0.3790 -0.2646
 7316TIP3    H246144   6.838   6.938   1.333 -0.1194 -0.1412  0.0947
 7317TIP3   OH246145   0.453   1.669   6.518  0.4248 -0.2540 -0.0621
 7317TIP3    H146146   0.461   1.669   6.423  0.3860 -0.0885 -0.0646
 7317TIP3    H246147   0.529   1.720   6.548  0.4598 -0.3408 -0.0025
 7318TIP3   OH246148   3.518   0.111   1.602  0.8347  0.1207 -0.0502
 7318TIP3    H146149   3.466   0.031   1.606  0.6062  0.2002 -1.1689
 7318TIP3    H246150   3.578   0.104   1.676 -0.9110  0.1400  1.4376
 7319TIP3   OH246151   2.645   6.986   0.887 -0.2690 -0.2922 -0.3057
 7319TIP3    H146152   2.649   7.024   0.799  0.1209 -0.0737 -0.1972
 7319TIP3    H246153   2.736   6.981   0.914 -0.3207 -1.2459 -0.2857
 7320TIP3   OH246154   6.137   2.180   1.758  0.7012 -0.8731  0.4495
 7320TIP3    H146155   6.158   2.173   1.851 -0.4088 -2.6771  0.6083
 7320TIP3    H246156   6.041   2.185   1.755  0.7791  1.3517 -0.5278
 7321TIP3   OH246157   0.663   6.662   7.533 -0.2351 -0.0846 -0.3148
 7321TIP3    H146158   0.704   6.582   7.497 -0.7992 -0.5815  0.1256
 7321TIP3    H246159   0.604   6.691   7.464  1.2417  0.9708 -1.2015
 7322TIP3   OH246160   3.795   6.151   0.231 -0.1296 -0.1585  0.2361
 7322TIP3    H146161   3.725   6.095   0.265  1.3647 -3.0993 -1.1437
 7322TIP3    H246162   3.847   6.093   0.175  2.4213  2.3085 -0.1810
 7323TIP3   OH246163   5.219   5.957   0.507  0.2906  0.4402  0.3130
 7323TIP3    H146164   5.261   6.021   0.450  1.3029  0.0702  0.6277
 7323TIP3    H246165   5.195   6.007   0.585 -0.1625  0.7222 -0.0016
 7324TIP3   OH246166   1.671   3.066   2.327  0.4324  0.2968  0.4357
 7324TIP3    H146167   1.709   3.135   2.382 -1.2655  0.4275  1.5479
 7324TIP3    H246168   1.662   2.991   2.385 -2.0301  0.6457  0.6487
 7325TIP3   OH246169   1.101   4.292   9.382 -0.0500  0.6422  0.2545
 7325TIP3    H146170   1.125   4.232   9.311 -2.6437 -1.2594  0.8847
 7325TIP3    H246171   1.184   4.334   9.405  1.2279  0.0125 -2.6414
 7326TIP3   OH246172   2.311   6.527   8.921  0.0424 -0.4206 -0.4408
 7326TIP3    H146173   2.324   6.582   8.997  0.5713 -1.1059 -0.0201
 7326TIP3    H246174   2.323   6.585   8.846  2.1714 -0.2642 -0.0412
 7327TIP3   OH246175   6.525   4.319   7.778 -0.2427  0.4340  0.6269
 7327TIP3    H146176   6.488   4.231   7.775  0.7290  0.0219  0.3561
 7327TIP3    H246177   6.464   4.373   7.728 -0.7898 -0.1010  0.7049
 7328TIP3   OH246178   2.425   2.535   2.981 -0.1911  0.3461  0.1957
 7328TIP3    H146179   2.464   2.583   2.909  1.2517 -1.7445 -0.5259
 7328TIP3    H246180   2.338   2.510   2.950  1.0995 -2.1647 -1.7109
 7329TIP3   OH246181   7.189   6.439   8.575 -0.0714 -0.1253 -0.3483
 7329TIP3    H146182   7.156   6.367   8.629  1.9673 -0.6252  0.3083
 7329TIP3    H246183   7.150   6.425   8.489 -0.9271 -1.1008  0.1754
 7330TIP3   OH246184   0.602   5.109   0.401 -0.1694  0.0144 -0.2074
 7330TIP3    H146185   0.679   5.117   0.457  0.1517  1.0137 -0.7559
 7330TIP3    H246186   0.568   5.198   0.393  0.7597  0.2369 -2.8913
 7331TIP3   OH246187   3.589   6.439   1.607  0.0073 -0.3155 -0.4150
 7331TIP3    H146188   3.511   6.403   1.649 -0.2839  1.5418  0.7115
 7331TIP3    H246189   3.660   6.381   1.634 -0.6475 -0.8279  0.2466
 7332TIP3   OH246190   0.212   3.046   0.996 -0.5764  0.2047 -0.6298
 7332TIP3    H146191   0.307   3.035   1.000 -0.3351  2.1663  0.5460
 7332TIP3    H246192   0.186   3.007   0.913  1.1040 -1.2968 -0.5030
 7333TIP3   OH246193   3.398   2.697   1.085  0.4624 -0.3679  0.4763
 7333TIP3    H146194   3.404   2.791   1.099 -0.1193 -0.0390 -1.3030
 7333TIP3    H246195   3.343   2.666   1.156 -0.5465  0.8631  0.2708
 7334TIP3   OH246196   0.795   0.003   2.273  0.2474 -0.2175 -0.1334
 7334TIP3    H146197   0.740  -0.002   2.195  2.1550 -0.6689 -1.5363
 7334TIP3    H246198   0.743  -0.037   2.342 -0.8555 -1.3679 -1.5700
 7335TIP3   OH246199   7.162   1.933   8.751 -0.2405 -0.3172  0.5182
 7335TIP3    H146200   7.192   1.964   8.665 -1.3899  1.6036  0.7402
 7335TIP3    H246201   7.132   2.013   8.795 -2.0591 -1.6027  1.7273
 7336TIP3   OH246202   1.149   2.731   9.481  0.4140  0.2393 -0.3543
 7336TIP3    H146203   1.094   2.655   9.499 -0.7842  1.1561  0.0091
 7336TIP3    H246204   1.180   2.760   9.567  1.1539 -0.0256 -0.5201
 7337TIP3   OH246205   1.775   7.318   0.566  0.1326 -0.3125 -0.4547
 7337TIP3    H146206   1.822   7.394   0.599 -0.2971 -0.0657 -0.4048
 7337TIP3    H246207   1.787   7.322   0.471  0.2032 -0.2442 -0.4429
 7338TIP3   OH246208   1.252   5.754   8.338  0.2810  0.1079  0.6836
 7338TIP3    H146209   1.166   5.717   8.357 -0.3429  0.2398 -1.6395
 7338TIP3    H246210   1.238   5.849   8.340  0.5314  0.1403  0.9563
 7339TIP3   OH246211   3.469   4.062   1.317  0.0012  0.0860  1.0585
 7339TIP3    H146212   3.375   4.048   1.308 -0.0280  1.5006 -2.4274
 7339TIP3    H246213   3.477   4.154   1.344  0.4217 -0.4335  2.8108
 7340TIP3   OH246214   3.399   3.021   0.366 -0.4183 -0.1852  0.3490
 7340TIP3    H146215   3.468   3.059   0.312 -0.3593  0.3693  0.8120
 7340TIP3    H246216   3.319   3.063   0.337 -0.0221  2.8109  2.9849
 7341TIP3   OH246217   4.865   5.267   7.536  0.1173  1.0502  0.0652
 7341TIP3    H146218   4.851   5.361   7.522  1.7278  1.4556  0.9450
 7341TIP3    H246219   4.955   5.251   7.507 -0.8789 -0.7608 -2.3502
 7342TIP3   OH246220   5.077   3.748   8.969  0.4315 -0.0747  0.3018
 7342TIP3    H146221   5.119   3.815   9.022 -1.3073  2.3541 -1.2016
 7342TIP3    H246222   5.143   3.724   8.903  0.6974  1.0662  0.1328
 7343TIP3   OH246223   1.271   6.421   2.014  0.0435  0.5472  0.0724
 7343TIP3    H146224   1.343   6.477   2.043 -1.7488  2.5112  0.9813
 7343TIP3    H246225   1.254   6.448   1.924  1.1015 -0.6828 -0.5219
 7344TIP3   OH246226   7.105   1.092   6.419  0.2708  0.4200 -0.0022
 7344TIP3    H146227   7.055   1.020   6.382  2.7841 -0.8061 -1.2560
 7344TIP3    H246228   7.041   1.163   6.429 -2.0029 -1.5326  0.0665
 7345TIP3   OH246229   6.409   1.651   1.352  0.6401  0.1312  0.0207
 7345TIP3    H146230   6.412   1.699   1.435  2.4757  0.2860 -0.0994
 7345TIP3    H246231   6.390   1.718   1.286  2.2143  0.5795 -0.0243
 7346TIP3   OH246232   5.890   5.117   8.492 -0.1524  0.3797  0.5688
 7346TIP3    H146233   5.892   5.115   8.588  1.3703 -0.4877  0.5469
 7346TIP3    H246234   5.805   5.078   8.469 -0.0946 -0.3824  1.5630
 7347TIP3   OH246235   4.330   6.157   2.219 -1.0852  0.2908  0.0342
 7347TIP3    H146236   4.403   6.207   2.255 -0.3896 -0.1509 -0.7263
 7347TIP3    H246237   4.299   6.210   2.146 -0.9919  0.0944 -0.1499
 7348TIP3   OH246238   4.919   0.732   1.961  0.0860 -0.2274 -0.0279
 7348TIP3    H146239   4.981   0.665   1.989  0.5826 -0.1128 -0.8395
 7348TIP3    H246240   4.934   0.805   2.021  2.3389  0.6798 -1.5832
 7349TIP3   OH246241   3.160   7.085   6.833  0.1915  0.4011  0.3361
 7349TIP3    H146242   3.251   7.104   6.810 -0.0728 -1.0944 -2.2071
 7349TIP3    H246243   3.153   6.990   6.826 -1.2414  0.3504  1.9330
 7350TIP3   OH246244   1.205   2.191   7.629  0.0464 -0.3067  0.6545
 7350TIP3    H146245   1.294   2.164   7.651  0.1760 -0.0382  0.4613
 7350TIP3    H246246   1.214   2.278   7.592 -0.4701  0.4985  2.3030
 7351TIP3   OH246247   6.911   5.898   1.279  0.5201  0.6448  0.2986
 7351TIP3    H146248   6.914   5.992   1.296  0.1901  1.0264 -1.5352
 7351TIP3    H246249   7.001   5.869   1.295  0.8504  1.4599  0.0086
 7352TIP3   OH246250   3.325   4.381   8.916 -0.0477 -0.1434  0.4257
 7352TIP3    H146251   3.296   4.319   8.849  0.9057  1.6773 -1.7985
 7352TIP3    H246252   3.253   4.384   8.979 -1.1646 -1.6364 -0.7056
 7353TIP3   OH246253   2.521   2.300   6.920  0.1793 -0.6382  0.0159
 7353TIP3    H146254   2.578   2.330   6.991  1.3782 -2.0257 -0.3089
 7353TIP3    H246255   2.487   2.381   6.882  1.3522  0.2214  0.6951
 7354TIP3   OH246256   5.235   4.311   7.989 -0.3548 -0.3512  0.1359
 7354TIP3    H146257   5.209   4.281   7.902  0.3541 -0.9555  0.1200
 7354TIP3    H246258   5.237   4.231   8.042  2.4733 -0.5408 -0.1281
 7355TIP3   OH246259   3.562   5.481   1.100  0.1023  0.4000 -0.1675
 7355TIP3    H146260   3.556   5.427   1.021  1.8209 -1.5140  0.9030
 7355TIP3    H246261   3.507   5.435   1.164  0.5726  0.6302  0.4069
 7356TIP3   OH246262   2.321   0.736   8.266 -0.5921 -0.5533 -0.3808
 7356TIP3    H146263   2.384   0.741   8.193  0.0132 -0.3779  0.1402
 7356TIP3    H246264   2.315   0.826   8.297  0.9349 -0.9507  1.2451
 7357TIP3   OH246265   1.171   7.380   3.076 -0.5280  0.0945  0.1184
 7357TIP3    H146266   1.138   7.470   3.081 -0.5074  0.0515  1.2779
 7357TIP3    H246267   1.238   7.376   3.143 -1.6624 -1.2363  1.2306
 7358TIP3   OH246268   6.385   0.258   9.448  0.0020  0.2319 -0.6079
 7358TIP3    H146269   6.452   0.192   9.433 -0.8030 -0.7782  0.1508
 7358TIP3    H246270   6.362   0.249   9.540 -2.5261 -0.7920 -1.2457
 7359TIP3   OH246271   0.717   1.315   1.188 -0.3751 -0.0070  0.5684
 7359TIP3    H146272   0.715   1.239   1.129 -0.0607 -0.4937  1.1751
 7359TIP3    H246273   0.692   1.280   1.273  2.1904  0.0203  1.4222
 7360TIP3   OH246274   7.338   3.390   6.833  0.0848  0.3432 -0.4426
 7360TIP3    H146275   7.245   3.372   6.815 -0.5603  0.0219  2.6008
 7360TIP3    H246276   7.345   3.485   6.830 -0.8865  0.5115  1.1883
 7361TIP3   OH246277   5.295   2.312   9.190  0.0126  0.9064 -0.5933
 7361TIP3    H146278   5.215   2.310   9.138 -0.1159 -0.9998 -0.4110
 7361TIP3    H246279   5.362   2.277   9.132  0.6303  2.0459 -0.5882
 7362TIP3   OH246280   3.126   3.782   1.508  0.1406  0.0026  0.0936
 7362TIP3    H146281   3.057   3.822   1.455  0.3341 -0.7408 -0.7392
 7362TIP3    H246282   3.149   3.702   1.461 -0.6335 -1.4096  1.9855
 7363TIP3   OH246283   4.569   3.659   2.416  0.3376  0.1279  0.2827
 7363TIP3    H146284   4.625   3.611   2.354 -1.5506 -0.8605 -0.7437
 7363TIP3    H246285   4.624   3.731   2.446  1.8006 -0.1500 -1.5094
 7364TIP3   OH246286   6.320   0.591   1.061  0.1870 -0.4672 -0.1188
 7364TIP3    H146287   6.290   0.661   1.003  0.6349 -0.1636  0.0097
 7364TIP3    H246288   6.328   0.633   1.147  0.0364 -0.7849  0.0520
 7365TIP3   OH246289   1.231   4.127   8.204  0.0200  0.4660 -0.0154
 7365TIP3    H146290   1.307   4.157   8.155  0.7152  1.0878  1.3924
 7365TIP3    H246291   1.224   4.034   8.183 -0.1392  0.8534 -1.8203
 7366TIP3   OH246292   6.264   3.744   1.732 -0.3444 -0.1973  0.0703
 7366TIP3    H146293   6.233   3.656   1.710 -1.8754  0.0190  1.2183
 7366TIP3    H246294   6.185   3.798   1.729  0.7749  1.4489 -1.9474
 7367TIP3   OH246295   2.167   5.296   1.095 -0.2646  0.3214 -0.0270
 7367TIP3    H146296   2.238   5.355   1.073  0.2359  0.5735  2.0586
 7367TIP3    H246297   2.143   5.319   1.185 -2.2600 -0.4718 -0.2977
 7368TIP3   OH246298   3.856   0.759   8.378  0.5896 -0.1986 -0.2248
 7368TIP3    H146299   3.850   0.855   8.384  0.2839 -0.1885 -0.6615
 7368TIP3    H246300   3.811   0.728   8.456  2.7686  0.0362  1.2306
 7369TIP3   OH246301   4.488   5.453   8.364  0.0672 -0.3267  0.5431
 7369TIP3    H146302   4.464   5.365   8.392  0.6712 -0.5955  0.2427
 7369TIP3    H246303   4.447   5.511   8.428  0.1553 -0.8536  1.0810
 7370TIP3   OH246304   4.679   2.579   1.269 -0.5392  0.0632  0.2877
 7370TIP3    H146305   4.606   2.558   1.211  1.3567 -0.8710 -1.8979
 7370TIP3    H246306   4.652   2.546   1.355 -3.0289  0.6111 -0.1999
 7371TIP3   OH246307   6.670   4.000   0.580 -0.5713  0.2318  0.0758
 7371TIP3    H146308   6.631   4.035   0.660  0.5769 -0.4838  0.9716
 7371TIP3    H246309   6.765   4.008   0.593 -0.3330 -1.1740 -0.6188
 7372TIP3   OH246310   1.909   5.680   2.747 -0.0722  0.0387 -0.0246
 7372TIP3    H146311   1.894   5.587   2.729 -0.3157 -0.0335  0.5323
 7372TIP3    H246312   1.842   5.703   2.812 -0.6218  0.8405 -0.8544
 7373TIP3   OH246313   5.626   1.329   7.181 -0.1553  0.1501 -0.3015
 7373TIP3    H146314   5.691   1.374   7.127 -0.4591  1.1857  0.1694
 7373TIP3    H246315   5.563   1.293   7.118  0.1079  0.3593 -0.6888
 7374TIP3   OH246316   6.700   4.783   0.014  0.1506 -0.7139 -0.3844
 7374TIP3    H146317   6.792   4.765  -0.004  0.2391 -0.9388  0.2861
 7374TIP3    H246318   6.696   4.878   0.023  0.4012 -0.7450  0.0582
 7375TIP3   OH246319   1.409   4.058   0.495 -0.0019 -0.6248  0.2188
 7375TIP3    H146320   1.362   4.026   0.419  0.4871  1.0096 -0.8312
 7375TIP3    H246321   1.352   4.039   0.569 -1.0896 -1.0488 -0.7062
 7376TIP3   OH246322   0.730   4.878   8.591 -0.5443 -0.2485 -0.2069
 7376TIP3    H146323   0.656   4.879   8.530 -0.0071 -1.1714 -0.8796
 7376TIP3    H246324   0.695   4.918   8.670 -1.6687 -0.3473 -0.6345
 7377TIP3   OH246325   3.237   4.378   2.044  0.0431 -0.5954  0.8189
 7377TIP3    H146326   3.226   4.283   2.046  0.8314 -0.7660 -0.9389
 7377TIP3    H246327   3.320   4.392   2.000  0.0715  0.9249  1.2929
 7378TIP3   OH246328   2.271   0.303   0.125  0.4066 -0.2198  0.4619
 7378TIP3    H146329   2.245   0.216   0.154  0.7587 -0.4032  0.2294
 7378TIP3    H246330   2.280   0.353   0.207 -2.3189  0.3488  0.5001
 7379TIP3   OH246331   1.786   5.267   2.215  0.2946 -0.2642 -0.7056
 7379TIP3    H146332   1.763   5.175   2.225  0.8555 -0.4714 -1.2638
 7379TIP3    H246333   1.881   5.266   2.199  0.5423  0.4835  0.5019
 7380TIP3   OH246334   7.386   1.218   8.104  0.7880 -0.5141 -0.0315
 7380TIP3    H146335   7.469   1.254   8.137  1.1030 -0.4651 -0.8548
 7380TIP3    H246336   7.355   1.161   8.175  0.6385  0.8104  1.0019
 7381TIP3   OH246337   4.909   5.490   1.662 -0.4810  0.6416 -0.2080
 7381TIP3    H146338   4.942   5.566   1.710 -0.9783  2.2493 -2.2344
 7381TIP3    H246339   4.981   5.428   1.663  0.7508  2.0128 -0.2611
 7382TIP3   OH246340   6.261   0.110   1.586 -0.7001  0.0424  0.1361
 7382TIP3    H146341   6.166   0.114   1.584 -0.7480 -1.1531 -0.8942
 7382TIP3    H246342   6.283   0.026   1.546  0.8540  1.3584 -2.0040
 7383TIP3   OH246343   5.287   4.763   9.152 -0.0875  0.2668  0.2176
 7383TIP3    H146344   5.220   4.730   9.091 -1.3466  1.1558  1.0646
 7383TIP3    H246345   5.283   4.702   9.226  1.0210 -0.4653 -0.3026
 7384TIP3   OH246346   0.574   0.515   9.410 -0.3878  0.1051  0.2850
 7384TIP3    H146347   0.641   0.583   9.402  0.0147 -0.4368 -1.1804
 7384TIP3    H246348   0.558   0.509   9.504 -0.1320  1.9205  0.4957
 7385TIP3   OH246349   1.790   4.730   7.331  0.1897  0.8813 -0.3191
 7385TIP3    H146350   1.773   4.715   7.239 -1.2446  1.7149 -0.2159
 7385TIP3    H246351   1.860   4.796   7.332 -0.1113  1.2128 -0.8151
 7386TIP3   OH246352   0.498   2.608   0.286 -0.3000 -0.2305 -0.2574
 7386TIP3    H146353   0.539   2.613   0.372 -0.4191 -1.0899 -0.1461
 7386TIP3    H246354   0.566   2.635   0.225 -0.3002  0.6741  0.1193
 7387TIP3   OH246355   7.336   3.077   9.274 -0.1026  0.4763  0.8216
 7387TIP3    H146356   7.245   3.098   9.256  0.2516  0.5870 -1.0565
 7387TIP3    H246357   7.366   3.148   9.331 -0.8044  1.2166  0.2937
 7388TIP3   OH246358   3.447   3.631   0.299  0.5047  0.4517 -0.0723
 7388TIP3    H146359   3.508   3.557   0.300 -0.5427 -0.4750 -0.7680
 7388TIP3    H246360   3.482   3.690   0.232  0.9289  0.1932 -0.0798
 7389TIP3   OH246361   1.551   2.340   1.871 -0.6826 -0.2826  0.2507
 7389TIP3    H146362   1.533   2.278   1.800  2.5782 -1.2038  0.0710
 7389TIP3    H246363   1.525   2.294   1.950 -1.3560 -0.5270 -0.0998
 7390TIP3   OH246364   3.875   4.446   9.110  0.8592 -0.4876  0.1669
 7390TIP3    H146365   3.802   4.505   9.090 -0.4196 -1.3474  2.1044
 7390TIP3    H246366   3.933   4.454   9.034 -1.8163 -0.6923 -2.0650
 7391TIP3   OH246367   4.600   7.199   7.580 -0.0019 -0.3493  0.0601
 7391TIP3    H146368   4.611   7.110   7.545  1.2519 -0.5736  0.9636
 7391TIP3    H246369   4.686   7.239   7.570 -0.1097  0.2014  1.2019
 7392TIP3   OH246370   4.117   3.488   7.744  0.5245  0.4122 -0.2916
 7392TIP3    H146371   4.195   3.501   7.798  0.7485  0.6082 -0.6539
 7392TIP3    H246372   4.108   3.570   7.696  1.5345 -0.4649 -2.0919
 7393TIP3   OH246373   1.285   2.002   2.384  0.2132 -0.7939  0.3468
 7393TIP3    H146374   1.296   1.916   2.424  0.4967 -1.5718 -1.3069
 7393TIP3    H246375   1.314   1.990   2.293  0.7980  1.1915  0.2296
 7394TIP3   OH246376   6.366   6.990   7.639 -0.2376  0.1882  0.4979
 7394TIP3    H146377   6.460   6.973   7.649 -0.0558  0.1845 -0.9752
 7394TIP3    H246378   6.362   7.066   7.580 -1.1601  0.3035  0.7003
 7395TIP3   OH246379   5.008   2.758   8.290 -0.3927 -0.5669  0.2084
 7395TIP3    H146380   5.001   2.695   8.218 -0.3627  0.6730 -0.9070
 7395TIP3    H246381   4.919   2.793   8.300  0.4274  2.8875 -2.6503
 7396TIP3   OH246382   5.251   0.038   0.601  0.0502  0.0127 -0.5852
 7396TIP3    H146383   5.196  -0.037   0.580 -0.3996  0.7879 -2.3537
 7396TIP3    H246384   5.192   0.101   0.640  0.3464 -0.3521  0.4963
 7397TIP3   OH246385   5.972   2.026   0.935  0.5777 -0.5050 -0.4557
 7397TIP3    H146386   5.950   2.113   0.903  1.0354  0.7418  2.3293
 7397TIP3    H246387   6.052   2.038   0.986  0.4347 -2.4584  0.3553
 7398TIP3   OH246388   3.728   6.114   1.352  0.7155 -0.0053 -0.2829
 7398TIP3    H146389   3.746   6.095   1.260  4.7564 -0.8799  0.5104
 7398TIP3    H246390   3.677   6.039   1.383 -1.4218  0.6867 -1.8684
 7399TIP3   OH246391   3.129   4.777   2.906  0.4621 -0.5683  0.1136
 7399TIP3    H146392   3.054   4.777   2.847 -1.2493 -1.8121  2.1252
 7399TIP3    H246393   3.199   4.819   2.856 -1.5626  0.7275 -1.8510
 7400TIP3   OH246394   0.744   6.382   0.725  0.4805 -0.1213 -0.1815
 7400TIP3    H146395   0.811   6.449   0.714 -0.3595  0.7353 -0.1670
 7400TIP3    H246396   0.765   6.341   0.809 -0.1499  1.4789  0.7991
 7401TIP3   OH246397   0.186   2.705   2.313 -0.9898  0.4993 -0.0284
 7401TIP3    H146398   0.111   2.723   2.255 -1.2311 -1.3946 -0.3679
 7401TIP3    H246399   0.148   2.666   2.391 -0.3925 -0.2010 -0.0736
 7402TIP3   OH246400   3.860   0.943   9.299 -0.1322 -0.0374 -0.3977
 7402TIP3    H146401   3.766   0.957   9.313 -0.0853 -1.1109  1.2544
 7402TIP3    H246402   3.900   0.964   9.383  1.1961  0.8506 -1.2136
 7403TIP3   OH246403   2.196   0.830   3.073  0.1430  0.1087  0.3286
 7403TIP3    H146404   2.173   0.911   3.027  1.7404  0.9589  0.9341
 7403TIP3    H246405   2.164   0.844   3.162 -2.0042 -1.0970 -0.1891
 7404TIP3   OH246406   5.689   0.345   1.248  0.2711 -0.2797  0.1423
 7404TIP3    H146407   5.654   0.433   1.265 -1.0403 -0.7810  0.1190
 7404TIP3    H246408   5.660   0.324   1.160 -1.3506 -1.5926  0.9294
 7405TIP3   OH246409   2.799   3.140   8.614 -0.0033  0.0532  0.0418
 7405TIP3    H146410   2.802   3.050   8.581 -1.0936 -0.8504  2.2261
 7405TIP3    H246411   2.801   3.131   8.709  0.6398  2.4031  0.3090
 7406TIP3   OH246412   0.094   0.547   2.331 -0.0566 -0.5183  0.0383
 7406TIP3    H146413   0.143   0.476   2.292 -0.4690 -0.7140 -0.1316
 7406TIP3    H246414   0.161   0.607   2.365  0.2929 -0.8040 -0.1399
 7407TIP3   OH246415   4.955   3.828   7.131 -0.0509  0.0061  0.0646
 7407TIP3    H146416   4.910   3.750   7.163 -1.1745  0.6504  0.0933
 7407TIP3    H246417   4.895   3.900   7.149  0.1401  0.6498 -1.6305
 7408TIP3   OH246418   0.256   5.667   9.152 -0.1232 -0.0955 -0.5208
 7408TIP3    H146419   0.266   5.678   9.058  0.5375  0.6050 -0.3793
 7408TIP3    H246420   0.166   5.696   9.170 -0.5968 -1.1855 -1.0612
 7409TIP3   OH246421   1.276   0.986   1.974  0.0146  0.1333  0.5230
 7409TIP3    H146422   1.372   0.993   1.974 -0.0625  1.2734  0.3165
 7409TIP3    H246423   1.253   0.970   2.065  0.2924  1.5766  0.8603
 7410TIP3   OH246424   5.241   3.418   7.610  0.4050 -0.5340  0.1527
 7410TIP3    H146425   5.202   3.334   7.632  0.9742 -1.0475 -0.7167
 7410TIP3    H246426   5.323   3.395   7.565  0.9464  0.4889  0.5774
 7411TIP3   OH246427   6.569   2.068   6.697 -0.5814  0.2088  0.1909
 7411TIP3    H146428   6.547   1.976   6.683  2.3017 -0.1972 -2.9955
 7411TIP3    H246429   6.619   2.069   6.778  0.8534 -1.3835 -0.6266
 7412TIP3   OH246430   2.282   5.462   7.233 -0.1384 -0.1733  0.6579
 7412TIP3    H146431   2.240   5.379   7.213  0.5445 -0.4039  0.1290
 7412TIP3    H246432   2.241   5.491   7.314 -2.4371  0.3990 -0.6313
 7413TIP3   OH246433   3.106   6.282   7.709 -0.1186 -0.2050 -0.2641
 7413TIP3    H146434   3.109   6.318   7.797  1.2292 -0.6536 -0.0945
 7413TIP3    H246435   3.056   6.345   7.658 -1.8188 -0.4493  1.0325
 7414TIP3   OH246436   7.285   1.086   7.447  0.8202 -0.4408  0.5745
 7414TIP3    H146437   7.226   1.161   7.434  2.4042  0.7688  0.0750
 7414TIP3    H246438   7.237   1.012   7.410  0.1662  0.7627 -1.1521
 7415TIP3   OH246439   1.570   5.450   7.220 -0.2965 -0.3640  0.4152
 7415TIP3    H146440   1.614   5.405   7.292 -0.0418 -0.1397  0.4030
 7415TIP3    H246441   1.584   5.543   7.238 -0.4868 -0.3000  0.2343
 7416TIP3   OH246442   1.473   6.875   1.493 -0.5611 -0.0927  0.0106
 7416TIP3    H146443   1.553   6.884   1.442 -0.5156 -2.9634 -0.5843
 7416TIP3    H246444   1.435   6.963   1.495  2.3123  1.2370 -0.0910
 7417TIP3   OH246445   4.636   5.651   0.528 -0.1129  0.6116 -0.0393
 7417TIP3    H146446   4.552   5.680   0.563 -1.0143 -0.9275 -0.7917
 7417TIP3    H246447   4.665   5.584   0.589 -0.2431  0.0110 -0.6192
 7418TIP3   OH246448   1.831   5.050   9.224 -0.4356  0.4975  0.6097
 7418TIP3    H146449   1.875   5.018   9.302  2.9362  0.6323 -1.0820
 7418TIP3    H246450   1.848   5.144   9.222 -0.1753  0.4400 -0.4581
 7419TIP3   OH246451   5.685   5.500   9.383 -0.3599 -0.1359 -0.6867
 7419TIP3    H146452   5.734   5.418   9.388  1.6095  1.0474  0.8355
 7419TIP3    H246453   5.712   5.541   9.301 -0.0350 -0.2192 -0.6196
 7420TIP3   OH246454   4.913   0.896   9.444 -0.5422  0.9070 -0.1272
 7420TIP3    H146455   4.922   0.982   9.486 -1.4922  1.0419 -0.1561
 7420TIP3    H246456   4.846   0.851   9.496 -0.3884  0.3598 -0.3958
 7421TIP3   OH246457   3.917   0.036   1.398  0.4075  0.1074 -0.2493
 7421TIP3    H146458   3.923   0.103   1.466  1.0982 -0.9238  0.7334
 7421TIP3    H246459   3.887   0.083   1.320  1.4738  1.6727  0.2457
 7422TIP3   OH246460   4.728   6.065   1.267  0.2149 -0.0160  0.1167
 7422TIP3    H146461   4.634   6.045   1.272  0.0468  0.9244  1.2291
 7422TIP3    H246462   4.770   5.980   1.257 -0.7919 -0.3860 -1.2143
 7423TIP3   OH246463   0.309   2.426   0.834  0.0364 -0.2320  0.0578
 7423TIP3    H146464   0.379   2.363   0.817  1.9579  1.7107  0.2724
 7423TIP3    H246465   0.294   2.467   0.748  0.2468  0.3686  0.3016
 7424TIP3   OH246466   5.071   3.331   3.267  0.0131  0.1203 -0.0081
 7424TIP3    H146467   4.990   3.355   3.311  1.4662  2.1270  1.7614
 7424TIP3    H246468   5.129   3.406   3.280  2.5714 -1.6957 -0.1716
 7425TIP3   OH246469   6.476   1.023   1.664 -0.3836  0.4914  0.1820
 7425TIP3    H146470   6.537   1.022   1.738  0.1343  1.3931 -0.2065
 7425TIP3    H246471   6.414   0.952   1.682  0.7832 -0.4514  0.5885
 7426TIP3   OH246472   0.741   6.839   7.751 -0.3025  0.1083 -0.2744
 7426TIP3    H146473   0.707   6.811   7.836  0.9937 -0.8913 -0.0553
 7426TIP3    H246474   0.719   6.768   7.691  0.8934 -0.3045 -0.2411
 7427TIP3   OH246475   3.988   6.970   9.415  0.8081  0.1919  0.5353
 7427TIP3    H146476   3.969   7.060   9.443  0.9394  0.1724  0.6865
 7427TIP3    H246477   4.076   6.973   9.379  1.5115 -0.2197  2.1368
 7428TIP3   OH246478   3.439   0.084   7.653  0.6252  0.4163 -0.4763
 7428TIP3    H146479   3.503   0.132   7.601  0.1869  0.3573 -1.0786
 7428TIP3    H246480   3.355   0.105   7.613  0.3367 -0.0904 -0.1468
 7429TIP3   OH246481   2.973   3.450   9.600  0.0277 -0.2563  0.0772
 7429TIP3    H146482   2.987   3.500   9.520 -2.8419 -0.0292 -0.3837
 7429TIP3    H246483   2.978   3.515   9.670 -0.4965  0.0959 -0.2111
 7430TIP3   OH246484   2.374   6.764   8.387  0.8184  0.0721  0.2770
 7430TIP3    H146485   2.420   6.769   8.303  3.0438  3.3948  1.4787
 7430TIP3    H246486   2.332   6.850   8.396  1.9173  0.4139  3.1458
 7431TIP3   OH246487   4.054   3.480   0.879  0.2450  0.8784  0.0377
 7431TIP3    H146488   4.045   3.569   0.913 -0.5599  0.7266  0.2220
 7431TIP3    H246489   3.969   3.459   0.841  0.6241  0.4235 -0.5949
 7432TIP3   OH246490   1.557   0.289   0.230 -0.1832 -0.0633 -0.2734
 7432TIP3    H146491   1.485   0.226   0.221  0.3823 -0.7086 -0.3264
 7432TIP3    H246492   1.534   0.341   0.307 -0.7143 -0.2490 -0.3003
 7433TIP3   OH246493   1.594   2.078   7.927  0.3498 -0.3301 -0.1585
 7433TIP3    H146494   1.568   1.993   7.963 -4.3526  0.1126 -1.7068
 7433TIP3    H246495   1.580   2.140   7.998 -1.7539 -0.3128 -0.5214
 7434TIP3   OH246496   4.969   4.665   2.381  0.7603 -0.7364  0.1078
 7434TIP3    H146497   5.027   4.697   2.450  1.2111 -0.7794 -0.2454
 7434TIP3    H246498   4.935   4.582   2.415 -1.4882  0.7153  1.6147
 7435TIP3   OH246499   0.436   0.361   8.579 -0.0581  0.2503 -0.0168
 7435TIP3    H146500   0.464   0.269   8.581 -1.1284 -0.1054  2.7047
 7435TIP3    H246501   0.518   0.410   8.571  0.9610 -0.9072  2.1553
 7436TIP3   OH246502   0.902   6.971   9.522 -0.3229  0.2707 -0.3670
 7436TIP3    H146503   0.920   6.992   9.614 -0.7950  0.7448 -0.3749
 7436TIP3    H246504   0.821   7.018   9.503 -0.9454 -0.8962 -0.6582
 7437TIP3   OH246505   1.408   1.551   7.884  0.2721 -0.1317  0.2681
 7437TIP3    H146506   1.366   1.635   7.901  1.2894  0.6514 -0.8434
 7437TIP3    H246507   1.343   1.500   7.835  0.1682  0.5956 -0.3733
 7438TIP3   OH246508   1.216   3.855   8.245 -0.4997 -0.1659 -0.3876
 7438TIP3    H146509   1.224   3.760   8.248  0.8514 -0.0385  1.6582
 7438TIP3    H246510   1.139   3.874   8.299  0.7986  0.0005  1.4842
 7439TIP3   OH246511   4.637   1.797   9.649  0.1810 -0.1961 -0.3334
 7439TIP3    H146512   4.721   1.755   9.666  0.8765  1.4394  0.5341
 7439TIP3    H246513   4.603   1.818   9.737 -1.6240 -1.7082 -0.6213
 7440TIP3   OH246514   4.428   6.611   9.086 -0.7954  0.5651  0.2415
 7440TIP3    H146515   4.465   6.671   9.151 -2.1038  0.7819  0.8112
 7440TIP3    H246516   4.361   6.562   9.133 -0.2476 -0.8774 -0.3940
 7441TIP3   OH246517   5.153   0.179   7.319  0.1786 -0.5860 -0.0511
 7441TIP3    H146518   5.206   0.233   7.259  0.9717 -2.4260 -1.0924
 7441TIP3    H246519   5.096   0.242   7.363  2.0097  1.2753 -0.1761
 7442TIP3   OH246520   0.073   5.864   8.958  0.1491 -0.0740 -0.2059
 7442TIP3    H146521   0.113   5.905   9.035 -0.7891  0.7328 -0.1288
 7442TIP3    H246522   0.148   5.833   8.906  0.8092 -2.8684  2.1465
 7443TIP3   OH246523   1.214   5.735   1.020 -0.0206 -0.6132  0.5922
 7443TIP3    H146524   1.165   5.792   1.079 -1.3217 -0.3740 -0.6614
 7443TIP3    H246525   1.300   5.725   1.062 -0.8090 -0.2598  2.3692
 7444TIP3   OH246526   0.760   2.842   0.977  0.4773  0.8389  0.2754
 7444TIP3    H146527   0.685   2.801   0.935 -0.0553  1.1063  0.9356
 7444TIP3    H246528   0.836   2.790   0.950 -0.0541  0.0757  0.2515
 7445TIP3   OH246529   1.597   2.949   8.169 -0.3437  0.5120  0.3223
 7445TIP3    H146530   1.541   2.972   8.244 -0.1645 -0.0193  0.6222
 7445TIP3    H246531   1.684   2.982   8.192 -0.3548  0.6296  0.2032
 7446TIP3   OH246532   4.609   5.927   7.288 -0.4767  0.2343 -0.6953
 7446TIP3    H146533   4.536   5.985   7.311 -0.8385 -0.5139  0.1293
 7446TIP3    H246534   4.667   5.931   7.364  0.1240  0.4720 -1.1593
 7447TIP3   OH246535   5.050   4.791   7.096  0.8547  0.7287  0.2804
 7447TIP3    H146536   5.019   4.807   7.007  1.6286  0.0380 -0.1217
 7447TIP3    H246537   5.041   4.875   7.140 -1.3320  0.6332  0.1138
 7448TIP3   OH246538   6.349   0.131   0.070 -0.4049  0.2782  0.2448
 7448TIP3    H146539   6.336   0.050   0.021 -0.3104  0.9109 -0.8436
 7448TIP3    H246540   6.371   0.101   0.159  0.9849 -0.9240 -0.4539
 7449TIP3   OH246541   4.163   1.735   1.322 -0.0662 -0.5946  0.0029
 7449TIP3    H146542   4.089   1.729   1.383  1.3585 -1.3803  1.7151
 7449TIP3    H246543   4.147   1.665   1.259 -0.6128 -0.9792  0.5546
 7450TIP3   OH246544   4.828   1.997   1.218 -0.2599  0.3235  0.0780
 7450TIP3    H146545   4.819   1.905   1.244  0.6481  0.0195 -0.6207
 7450TIP3    H246546   4.737   2.027   1.207 -0.6150 -1.2941 -2.3174
 7451TIP3   OH246547   2.550   5.870   9.517  0.1620 -0.1058 -0.0732
 7451TIP3    H146548   2.538   5.807   9.588  2.0609 -0.7636 -0.2813
 7451TIP3    H246549   2.474   5.855   9.459  0.3864 -1.9996  0.0425
 7452TIP3   OH246550   3.551   0.637   1.717  0.0037 -0.1587 -0.5065
 7452TIP3    H146551   3.606   0.559   1.710  0.4463  0.1607 -0.6101
 7452TIP3    H246552   3.497   0.635   1.638  0.0562 -0.3306 -0.5381
 7453TIP3   OH246553   5.513   6.247   9.407 -0.6654 -0.3028  0.1415
 7453TIP3    H146554   5.479   6.266   9.319  1.1559  3.6127  0.0397
 7453TIP3    H246555   5.593   6.197   9.392 -0.3501  0.3670 -0.4787
 7454TIP3   OH246556   6.535   6.490   7.676  0.3458  0.1995 -0.1377
 7454TIP3    H146557   6.473   6.483   7.604  1.2104 -0.9161 -0.8076
 7454TIP3    H246558   6.498   6.557   7.733 -0.6605  0.6859 -1.3135
 7455TIP3   OH246559   4.898   3.509   7.714 -0.0146  0.4901  0.3751
 7455TIP3    H146560   4.969   3.567   7.685 -0.1524  0.4663 -0.0214
 7455TIP3    H246561   4.873   3.461   7.635 -0.3225  0.3385  0.5628
 7456TIP3   OH246562   6.723   5.443   9.380 -0.0990 -0.2050 -0.4825
 7456TIP3    H146563   6.657   5.475   9.319  0.1274  1.2635 -0.0070
 7456TIP3    H246564   6.782   5.390   9.326 -0.0706  0.8084 -1.4846
 7457TIP3   OH246565   0.381   6.171   1.350 -0.1150  0.6206 -0.3529
 7457TIP3    H146566   0.371   6.130   1.264  0.5520 -0.0585 -0.1279
 7457TIP3    H246567   0.442   6.243   1.335 -0.2399  0.6932 -0.5109
 7458TIP3   OH246568   0.711   2.373   2.657 -0.5024  0.8959  0.0502
 7458TIP3    H146569   0.798   2.382   2.617 -0.3617 -1.5057 -0.2802
 7458TIP3    H246570   0.710   2.286   2.695 -2.7543  0.8995  0.1491
 7459TIP3   OH246571   2.432   3.091   8.420 -0.0531 -0.0783 -0.2114
 7459TIP3    H146572   2.527   3.092   8.405 -0.0543 -0.0416 -0.2162
 7459TIP3    H246573   2.400   3.024   8.360 -0.0690  0.1301 -0.4372
 7460TIP3   OH246574   0.590   6.177   0.568  0.2741  0.2018  0.2564
 7460TIP3    H146575   0.584   6.139   0.656  0.0408  1.4788  0.8231
 7460TIP3    H246576   0.684   6.189   0.554  0.3423 -0.4562  0.1202
 7461TIP3   OH246577   0.626   5.208   7.623 -0.0716  0.0211  0.7616
 7461TIP3    H146578   0.555   5.194   7.686 -0.8382  2.6150  0.5961
 7461TIP3    H246579   0.583   5.250   7.548  1.3800  0.1185 -0.0438
 7462TIP3   OH246580   4.513   1.238   9.170  0.2134 -0.1602  0.3331
 7462TIP3    H146581   4.573   1.175   9.130  1.1782 -0.4220  2.0817
 7462TIP3    H246582   4.427   1.195   9.165  0.4408 -0.5260 -0.6940
 7463TIP3   OH246583   0.893   0.176   0.960 -0.2984  0.5694 -0.0237
 7463TIP3    H146584   0.852   0.106   1.012 -0.1031 -0.7818 -1.6212
 7463TIP3    H246585   0.942   0.227   1.025 -2.0785  0.4725  1.4950
 7464TIP3   OH246586   3.179   3.601   1.293  0.0408  0.9641  0.1809
 7464TIP3    H146587   3.135   3.562   1.217  0.5530  2.1052 -0.7397
 7464TIP3    H246588   3.226   3.528   1.334 -1.2924  0.0763  0.1737
 7465TIP3   OH246589   1.514   2.427   2.804  0.1941  0.2924  0.3765
 7465TIP3    H146590   1.428   2.397   2.774 -0.3235  0.8278  1.2839
 7465TIP3    H246591   1.561   2.450   2.724 -0.0482 -1.1764 -0.2136
 7466TIP3   OH246592   0.125   6.739   1.439 -0.0663 -1.0008  0.3423
 7466TIP3    H146593   0.092   6.743   1.349 -1.2895 -0.5602  0.7859
 7466TIP3    H246594   0.214   6.706   1.431  0.7013  1.2959 -1.2413
 7467TIP3   OH246595   4.580   6.964   2.543 -0.4895  0.2894  0.5670
 7467TIP3    H146596   4.487   6.964   2.524 -0.3341 -1.4516 -0.3894
 7467TIP3    H246597   4.621   6.936   2.461  0.5775 -2.6271  1.9730
 7468TIP3   OH246598   4.967   1.099   0.381 -0.6709 -0.1087 -0.4907
 7468TIP3    H146599   4.921   1.164   0.328 -2.5585 -1.4045 -0.5223
 7468TIP3    H246600   5.052   1.139   0.399 -1.7550  2.3685 -0.4719
 7469TIP3   OH246601   2.373   6.105   0.092 -0.4064  0.2418 -0.0334
 7469TIP3    H146602   2.296   6.159   0.077 -1.0530 -0.5598  0.3069
 7469TIP3    H246603   2.434   6.130   0.023 -0.9755  0.8715 -0.3227
 7470TIP3   OH246604   2.770   3.145   7.586 -0.1920 -0.3858 -0.0455
 7470TIP3    H146605   2.837   3.205   7.621  1.1691 -1.3887 -0.8403
 7470TIP3    H246606   2.692   3.163   7.639  0.4263  1.4448  0.3362
 7471TIP3   OH246607   5.758   3.896   9.194 -0.5048 -0.2825 -0.0312
 7471TIP3    H146608   5.674   3.851   9.203 -0.7230 -0.2722 -1.6468
 7471TIP3    H246609   5.799   3.855   9.118 -0.1856  1.4180 -0.8325
 7472TIP3   OH246610   4.528   2.014   8.658  0.4670 -0.7199  0.3083
 7472TIP3    H146611   4.442   2.001   8.617  0.4726  1.8164 -0.7189
 7472TIP3    H246612   4.589   1.972   8.599  0.1117 -0.4832 -0.2435
 7473TIP3   OH246613   7.200   0.589   0.947 -0.1890  0.1612 -0.4863
 7473TIP3    H146614   7.289   0.557   0.963 -0.5470 -0.2971  0.7091
 7473TIP3    H246615   7.151   0.510   0.922 -0.2676  0.4175 -1.1713
 7474TIP3   OH246616   5.660   3.857   8.785  0.0981 -0.1705 -0.1943
 7474TIP3    H146617   5.713   3.785   8.752 -1.5954 -2.1422  1.1143
 7474TIP3    H246618   5.570   3.831   8.766 -0.5555  1.8593 -0.1074
 7475TIP3   OH246619   6.608   3.131   9.404 -0.4157  0.0533  0.0898
 7475TIP3    H146620   6.604   3.053   9.459 -0.9897  0.5435  0.7704
 7475TIP3    H246621   6.552   3.111   9.329  0.3117 -0.5955 -0.2851
 7476TIP3   OH246622   0.212   2.542   9.465  0.2647 -0.2255  0.1660
 7476TIP3    H146623   0.256   2.625   9.448 -0.5451  0.5555  1.6040
 7476TIP3    H246624   0.170   2.554   9.550  1.4207 -2.6731  1.1868
 7477TIP3   OH246625   4.513   5.737   8.733 -0.1790  0.2397  0.4113
 7477TIP3    H146626   4.494   5.667   8.795 -1.5429  0.6119  0.4585
 7477TIP3    H246627   4.543   5.810   8.788  1.0514 -0.2175  0.3790
 7478TIP3   OH246628   0.836   0.660   0.716  0.7849  0.1530  0.0728
 7478TIP3    H146629   0.759   0.716   0.705  1.0625  0.6795  0.7071
 7478TIP3    H246630   0.801   0.576   0.745  0.3622 -0.0126 -0.8887
 7479TIP3   OH246631   4.915   1.166   9.191  0.0403 -0.0598 -0.1792
 7479TIP3    H146632   4.931   1.197   9.102 -1.8982  1.3164 -0.1133
 7479TIP3    H246633   4.839   1.108   9.182 -0.1155  0.0285  0.5629
 7480TIP3   OH246634   6.373   3.547   8.510 -0.2470  0.2595  0.2551
 7480TIP3    H146635   6.369   3.535   8.416 -0.9972 -0.3528  0.3586
 7480TIP3    H246636   6.381   3.459   8.546  0.4124  0.5053  0.7566
 7481TIP3   OH246637   5.509   7.335   9.099 -0.3985  0.3075  0.0915
 7481TIP3    H146638   5.513   7.346   9.194 -0.0598 -1.0024  0.2571
 7481TIP3    H246639   5.417   7.346   9.076 -0.3707  1.4125  0.4438
 7482TIP3   OH246640   2.968   4.890   9.374 -0.5783  0.4583  0.1114
 7482TIP3    H146641   3.047   4.845   9.404  0.0032  1.2896 -0.1136
 7482TIP3    H246642   2.903   4.873   9.441  0.2508  1.0149  1.0823
 7483TIP3   OH246643   6.342   1.542   9.655  0.4067 -0.6009 -0.6983
 7483TIP3    H146644   6.256   1.531   9.697  0.4635 -0.5223 -0.5635
 7483TIP3    H246645   6.335   1.626   9.610  0.2780 -0.7756 -1.0075
 7484TIP3   OH246646   5.531   5.394   8.268  0.2233  0.2259  0.4875
 7484TIP3    H146647   5.504   5.452   8.340  2.5041 -0.2850  1.8377
 7484TIP3    H246648   5.627   5.397   8.269  0.3485 -1.1091 -1.4849
 7485TIP3   OH246649   5.944   7.049   9.546 -0.2218  0.2946  0.4921
 7485TIP3    H146650   5.872   6.986   9.545  1.1516 -1.3606  0.1595
 7485TIP3    H246651   6.001   7.020   9.475  2.3473 -0.4213  2.6725
 7486TIP3   OH246652   1.381   5.214   8.748 -0.3091  0.0428  0.1800
 7486TIP3    H146653   1.316   5.232   8.816 -1.4784 -0.1173 -0.8476
 7486TIP3    H246654   1.387   5.118   8.747 -0.9816  0.0015 -0.5441
 7487TIP3   OH246655   3.113   3.282   7.356  0.4487  0.6534 -0.4134
 7487TIP3    H146656   3.172   3.321   7.292  0.8211  0.2892 -0.2989
 7487TIP3    H246657   3.117   3.341   7.432  0.4029  0.8110 -0.5338
 7488TIP3   OH246658   2.407   2.745   8.396 -0.3068  0.2899 -0.7849
 7488TIP3    H146659   2.493   2.702   8.396  0.1349  1.0984  0.6049
 7488TIP3    H246660   2.380   2.744   8.305  1.2174  0.0670 -1.2671
 7489TIP3   OH246661   5.543   1.886   2.258 -0.2666  0.2904 -0.0275
 7489TIP3    H146662   5.467   1.871   2.314 -0.4189 -0.0630 -0.3290
 7489TIP3    H246663   5.588   1.802   2.255  0.0733  0.4691  0.0542
 7490TIP3   OH246664   2.918   4.067   8.968 -0.1673  0.3783 -0.8600
 7490TIP3    H146665   2.897   4.157   8.943  0.0565  0.7326  0.1760
 7490TIP3    H246666   2.992   4.044   8.913  1.0025  1.5214  0.1670
 7491TIP3   OH246667   5.625   3.068   1.222 -0.3384  0.1275 -0.8529
 7491TIP3    H146668   5.654   3.155   1.195 -1.2733  1.4666  2.0450
 7491TIP3    H246669   5.529   3.073   1.222 -0.4288  0.0574  1.7768
 7492TIP3   OH246670   5.064   4.920   0.031  0.9303  0.3315 -0.1058
 7492TIP3    H146671   4.971   4.944   0.031  1.4211  2.6135  1.6599
 7492TIP3    H246672   5.065   4.825   0.025 -1.4764  0.3078 -1.1119
 7493TIP3   OH246673   3.833   4.107   8.648 -0.1972 -0.1048 -0.5374
 7493TIP3    H146674   3.908   4.062   8.686 -0.1314 -0.8034 -1.4466
 7493TIP3    H246675   3.784   4.139   8.723  0.2874 -0.8423  0.1157
 7494TIP3   OH246676   6.822   5.989   0.635 -0.7925 -0.2488 -0.4421
 7494TIP3    H146677   6.729   5.968   0.648 -0.5413 -1.1003  0.0360
 7494TIP3    H246678   6.829   6.081   0.661 -1.3022 -0.4823  0.5740
 7495TIP3   OH246679   2.368   4.230   8.646 -0.3155  0.2864  0.1315
 7495TIP3    H146680   2.312   4.246   8.722 -2.0259 -1.0487 -0.7596
 7495TIP3    H246681   2.343   4.143   8.617 -0.7602  1.2619 -2.7575
 7496TIP3   OH246682   2.365   6.313   8.236  0.3242 -0.1054  0.8780
 7496TIP3    H146683   2.274   6.342   8.241  0.4369  0.0654  2.4889
 7496TIP3    H246684   2.360   6.218   8.230  0.0288 -0.0441  0.1113
 7497TIP3   OH246685   6.822   1.829   7.406  0.2679  0.7200 -0.0755
 7497TIP3    H146686   6.879   1.885   7.458  0.0923  1.5199 -0.7102
 7497TIP3    H246687   6.849   1.844   7.316 -0.7447  0.9164 -0.3698
 7498TIP3   OH246688   2.016   4.673   8.730 -0.3913  0.5039 -0.5278
 7498TIP3    H146689   2.042   4.593   8.684 -1.2704 -0.2460  0.2448
 7498TIP3    H246690   2.085   4.687   8.794  0.0043  0.6319 -0.9773
 7499TIP3   OH246691   4.355   6.758   0.911 -0.6050  0.3139  0.3119
 7499TIP3    H146692   4.442   6.768   0.871  0.0634  2.2628  2.0633
 7499TIP3    H246693   4.359   6.673   0.955  0.9085  0.8805  1.3666
 7500TIP3   OH246694   6.206   2.795   1.720  0.0306 -0.6335  0.5018
 7500TIP3    H146695   6.249   2.757   1.644 -0.7246 -0.6153  0.0510
 7500TIP3    H246696   6.197   2.722   1.781 -0.9505 -1.0883 -0.1517
 7501TIP3   OH246697   0.963   1.928   0.259 -0.8390  0.1935 -0.3736
 7501TIP3    H146698   1.007   1.844   0.244  0.6704  0.5740  1.4953
 7501TIP3    H246699   1.017   1.991   0.211 -1.1952  0.2840 -0.6628
 7502TIP3   OH246700   4.943   0.402   7.408 -0.4779  0.1119  0.1909
 7502TIP3    H146701   4.914   0.382   7.496  1.0411  1.1439  0.9778
 7502TIP3    H246702   4.868   0.442   7.365 -1.5782 -1.4312  0.6161
 7503TIP3   OH246703   7.058   6.953   8.394  0.5360 -0.0414 -0.0887
 7503TIP3    H146704   6.981   6.936   8.341  1.3512 -0.9924 -0.9964
 7503TIP3    H246705   7.092   6.867   8.417  1.1730  0.3606  0.5349
 7504TIP3   OH246706   1.828   1.667   1.484 -0.0347  0.7175  0.1410
 7504TIP3    H146707   1.889   1.709   1.423  0.0505  1.3438  0.6464
 7504TIP3    H246708   1.883   1.612   1.539  0.0570  1.1154  0.4558
 7505TIP3   OH246709   5.328   2.894   7.840  0.3900 -0.5232  0.3152
 7505TIP3    H146710   5.336   2.900   7.935  0.7824 -1.2420  0.3331
 7505TIP3    H246711   5.245   2.849   7.825 -0.6045  1.2605  0.2652
 7506TIP3   OH246712   6.286   5.126   9.264  0.4013 -0.3990 -0.1608
 7506TIP3    H146713   6.222   5.058   9.243 -0.2695  0.9448 -3.0350
 7506TIP3    H246714   6.278   5.138   9.359 -2.7378 -1.1871 -0.1916
 7507TIP3   OH246715   5.843   3.862   7.676  0.4256  0.0867 -0.0720
 7507TIP3    H146716   5.797   3.926   7.622  0.8190 -0.3962 -1.0041
 7507TIP3    H246717   5.907   3.913   7.725  0.1959  0.5091 -0.2043
 7508TIP3   OH246718   5.025   4.130   0.220  0.2405  0.0011  0.2129
 7508TIP3    H146719   5.008   4.036   0.212  2.9426 -0.5902  0.5721
 7508TIP3    H246720   4.968   4.158   0.292 -2.0106 -0.8913 -1.1099
 7509TIP3   OH246721   2.363   2.864   7.013  0.1385 -0.2828  0.4300
 7509TIP3    H146722   2.434   2.900   6.960 -1.1684  1.7786 -0.0543
 7509TIP3    H246723   2.299   2.832   6.950 -1.8009  2.9102  0.5328
 7510TIP3   OH246724   2.125   0.842   2.557  0.4142  0.2801  0.7111
 7510TIP3    H146725   2.138   0.931   2.591  0.4945  0.4587  0.2270
 7510TIP3    H246726   2.057   0.804   2.613  1.4180  0.1222  1.8719
 7511TIP3   OH246727   1.078   4.576   7.497  0.2639  0.7902 -0.0284
 7511TIP3    H146728   1.046   4.485   7.491  2.1809  0.0933 -0.2631
 7511TIP3    H246729   1.002   4.625   7.528 -0.4142 -1.1472  1.6544
 7512TIP3   OH246730   1.182   2.216   8.796  0.5479 -0.0234  0.2164
 7512TIP3    H146731   1.212   2.279   8.862 -1.5152  1.8172 -0.4796
 7512TIP3    H246732   1.152   2.141   8.847  0.6252  0.6410  1.2734
 7513TIP3   OH246733   0.049   0.743   0.200  0.3317 -0.2529  0.2427
 7513TIP3    H146734   0.136   0.719   0.168  0.3416  0.6790 -0.4674
 7513TIP3    H246735  -0.011   0.704   0.137  0.3528  1.6347 -1.0465
 7514TIP3   OH246736   4.950   7.060   0.930  0.4565 -0.1229 -0.0575
 7514TIP3    H146737   5.045   7.070   0.933  0.3402  0.7933  1.7158
 7514TIP3    H246738   4.921   7.124   0.866  0.9146  0.7871  0.6281
 7515TIP3   OH246739   7.233   4.090   7.270  0.7928  0.1155  0.6698
 7515TIP3    H146740   7.282   4.172   7.272 -0.8374  1.1708  0.0697
 7515TIP3    H246741   7.155   4.108   7.323  0.7280 -1.2865  1.0877
 7516TIP3   OH246742   0.047   4.711   1.807  0.3830  0.0201  0.1756
 7516TIP3    H146743   0.084   4.787   1.851  0.4634 -0.7027  1.4081
 7516TIP3    H246744  -0.036   4.695   1.852  0.9824 -1.4027  0.8547
 7517TIP3   OH246745   4.538   1.218   6.558  0.5605 -0.6012  0.7031
 7517TIP3    H146746   4.611   1.280   6.567  0.1516  0.1447 -0.9022
 7517TIP3    H246747   4.464   1.271   6.531 -0.0462 -1.6547  0.2353
 7518TIP3   OH246748   5.516   4.310   1.026 -0.0018  0.5004 -0.1008
 7518TIP3    H146749   5.463   4.254   0.969 -0.9433  0.8066  0.4624
 7518TIP3    H246750   5.495   4.282   1.115  1.5766 -0.0811  0.1239
 7519TIP3   OH246751   7.137   6.108   6.614 -0.2067 -0.5918 -0.3808
 7519TIP3    H146752   7.043   6.090   6.615 -0.0037 -1.9419 -1.8496
 7519TIP3    H246753   7.158   6.122   6.521  1.0870 -0.5204 -0.0951
 7520TIP3   OH246754   0.070   1.440   0.830  0.0098 -0.6508  0.1526
 7520TIP3    H146755   0.039   1.431   0.920  0.1521  0.7480  0.3712
 7520TIP3    H246756   0.164   1.451   0.837  0.3653 -2.8360 -0.3699
 7521TIP3   OH246757   6.235   3.785   8.454  0.1783 -0.4220 -0.0803
 7521TIP3    H146758   6.272   3.705   8.417 -0.5659 -0.6391 -0.3632
 7521TIP3    H246759   6.301   3.852   8.435  0.1544 -0.6782 -1.1418
 7522TIP3   OH246760   7.365   6.406   1.237 -0.2815  0.3007  0.1863
 7522TIP3    H146761   7.353   6.457   1.157 -1.6739 -0.5896 -0.2084
 7522TIP3    H246762   7.402   6.323   1.208 -0.8327 -0.0432  0.4476
 7523TIP3   OH246763   6.606   1.002   2.870  1.0071 -0.2064  0.4166
 7523TIP3    H146764   6.620   0.971   2.959 -0.7155 -0.0140  0.7900
 7523TIP3    H246765   6.577   0.924   2.822 -1.8642  0.3967  1.0007
 7524TIP3   OH246766   5.443   3.713   1.370 -0.0142  0.4079 -0.2397
 7524TIP3    H146767   5.389   3.646   1.412  0.7769  0.1387  0.3797
 7524TIP3    H246768   5.385   3.788   1.361 -1.0493 -0.4796 -1.3250
 7525TIP3   OH246769   3.766   2.589   0.539 -0.0454 -0.3374 -0.1412
 7525TIP3    H146770   3.818   2.561   0.463  0.1088 -0.6041  0.0591
 7525TIP3    H246771   3.694   2.639   0.501  0.7246  0.6267 -0.3818
 7526TIP3   OH246772   4.220   3.824   8.482  0.2701 -0.0551 -0.4811
 7526TIP3    H146773   4.312   3.798   8.473  0.2497 -0.3353  0.0515
 7526TIP3    H246774   4.217   3.870   8.567  0.1908  1.1782 -1.1305
 7527TIP3   OH246775   6.696   5.930   7.595 -0.1142 -0.1352 -0.0490
 7527TIP3    H146776   6.690   5.880   7.513 -0.9788 -1.4181  0.7533
 7527TIP3    H246777   6.790   5.936   7.612  0.1105  0.6779 -1.4169
 7528TIP3   OH246778   5.503   0.147   1.552  0.5354 -0.2194 -0.2196
 7528TIP3    H146779   5.529   0.100   1.631 -0.3930  0.5015  0.5385
 7528TIP3    H246780   5.422   0.191   1.576  0.1390 -0.1202 -1.6321
 7529TIP3   OH246781   6.715   5.050   0.098 -0.0210  0.0439 -0.2857
 7529TIP3    H146782   6.671   5.090   0.023 -2.1045  0.2506  0.9748
 7529TIP3    H246783   6.711   5.117   0.166  0.5135 -0.6794  0.4739
 7530TIP3   OH246784   0.007   6.426   0.481 -0.3731 -0.4758  0.4304
 7530TIP3    H146785   0.041   6.454   0.396 -0.6149  1.6653  0.9966
 7530TIP3    H246786  -0.078   6.469   0.488  0.1873  0.4182  2.2775
 7531TIP3   OH246787   7.158   5.838   0.158  0.0740 -0.3279  0.0284
 7531TIP3    H146788   7.142   5.891   0.236 -0.8124  0.5463 -0.7289
 7531TIP3    H246789   7.154   5.900   0.085 -0.0508 -1.2798 -0.7982
 7532TIP3   OH246790   6.934   4.323   9.426 -0.0577  0.3291 -0.4021
 7532TIP3    H146791   6.865   4.269   9.465  1.1680 -0.7776  0.2994
 7532TIP3    H246792   6.966   4.377   9.498  0.7638 -0.1807 -0.3796
 7533TIP3   OH246793   7.184   0.134   1.760  0.3130 -0.8325  0.2654
 7533TIP3    H146794   7.168   0.158   1.668  1.7390 -3.3933 -0.7657
 7533TIP3    H246795   7.223   0.212   1.798  0.5431  0.0128 -1.5722
 7534TIP3   OH246796   4.318   0.325   1.684  0.0228  0.2631 -0.2031
 7534TIP3    H146797   4.267   0.380   1.624 -0.5523 -1.3827 -1.3094
 7534TIP3    H246798   4.300   0.236   1.655  1.3456 -0.5001  1.1827
 7535TIP3   OH246799   4.964   5.842   9.519 -0.0272 -0.1075 -0.7692
 7535TIP3    H146800   4.958   5.749   9.499 -0.7492 -0.3169  0.3124
 7535TIP3    H246801   4.897   5.856   9.586  0.9497  0.9328  0.0157
 7536TIP3   OH246802   0.126   1.098   8.726  0.1320 -0.3636 -0.6276
 7536TIP3    H146803   0.075   1.119   8.804  1.5941  0.2962  0.1883
 7536TIP3    H246804   0.084   1.020   8.690  0.7256 -2.0947  2.0887
 7537TIP3   OH246805   1.650   6.380   6.505  0.4145  0.4077  0.1607
 7537TIP3    H146806   1.560   6.368   6.537  0.2449 -1.0044 -0.7623
 7537TIP3    H246807   1.649   6.342   6.417  2.3146 -1.1116  0.7333
 7538TIP3   OH246808   4.837   6.791   9.406  0.3738 -0.0757  0.1697
 7538TIP3    H146809   4.843   6.868   9.462  0.4271  0.0847 -0.0570
 7538TIP3    H246810   4.909   6.735   9.435  2.4584  1.3977 -1.8738
 7539TIP3   OH246811   4.888   6.720   0.148  0.6632  0.2962 -0.6737
 7539TIP3    H146812   4.798   6.743   0.122  0.3448 -1.3778 -1.1859
 7539TIP3    H246813   4.887   6.727   0.243  0.9435  3.4180 -0.8101
 7540TIP3   OH246814   0.215   3.072   7.268  0.0548  0.1888 -0.5090
 7540TIP3    H146815   0.282   3.046   7.204 -1.8962 -1.5180 -1.9982
 7540TIP3    H246816   0.156   2.997   7.274 -0.6709  0.8493  2.2750
 7541TIP3   OH246817   3.157   0.436   8.565  0.5007  0.4731 -0.0143
 7541TIP3    H146818   3.115   0.448   8.481 -1.6085 -0.6557  0.7984
 7541TIP3    H246819   3.170   0.524   8.599 -0.6746  0.8838 -0.5890
 7542TIP3   OH246820   0.483   7.383   7.476 -0.4212 -0.0557 -0.0421
 7542TIP3    H146821   0.490   7.479   7.471  0.1725 -0.1116 -0.3390
 7542TIP3    H246822   0.499   7.363   7.568 -1.9820  0.2340  0.3279
 7543TIP3   OH246823   6.823   3.204   8.153 -0.0392 -0.1495 -0.2360
 7543TIP3    H146824   6.817   3.114   8.122 -1.4568 -0.4958  0.9026
 7543TIP3    H246825   6.884   3.201   8.226  0.9427  0.0891 -1.0266
 7544TIP3   OH246826   5.343   6.313   0.421 -0.3326  0.2372  0.6773
 7544TIP3    H146827   5.347   6.237   0.363 -0.2991  1.4007 -0.8907
 7544TIP3    H246828   5.271   6.366   0.386  0.9495  1.9190  0.4903
 7545TIP3   OH246829   6.663   1.110   7.658  0.0403 -0.4139  0.0807
 7545TIP3    H146830   6.727   1.068   7.716 -1.8271 -0.9419  1.8473
 7545TIP3    H246831   6.702   1.196   7.638  1.0290 -0.4742  1.6073
 7546TIP3   OH246832   4.194   6.587   0.124  0.9259  0.2663  0.4160
 7546TIP3    H146833   4.109   6.610   0.162  0.9028 -0.5919  0.9237
 7546TIP3    H246834   4.214   6.501   0.161  1.5892  0.0494 -0.4209
 7547TIP3   OH246835   2.882   4.391   0.553  0.0212 -0.5998 -0.3908
 7547TIP3    H146836   2.978   4.385   0.545  0.0013 -0.6003 -0.6246
 7547TIP3    H246837   2.852   4.414   0.465 -0.1398  0.0387 -0.1766
 7548TIP3   OH246838   4.010   5.614   0.280 -0.3081  0.1431  0.1713
 7548TIP3    H146839   3.942   5.653   0.334  1.0213 -0.4918  2.4325
 7548TIP3    H246840   4.017   5.523   0.310  2.1505  0.4432  0.7782
 7549TIP3   OH246841   0.101   1.000   9.023 -0.8931  0.1018 -0.1448
 7549TIP3    H146842   0.084   0.928   8.961 -0.2736 -0.3000  0.1344
 7549TIP3    H246843   0.021   1.052   9.023 -1.8962 -1.3765  0.7025
 7550TIP3   OH246844   4.789   7.414   0.533 -0.4341 -0.5148 -0.0862
 7550TIP3    H146845   4.732   7.434   0.459 -1.2018  0.1019  0.6617
 7550TIP3    H246846   4.783   7.319   0.542 -0.7242 -0.5383 -0.5031
 7551TIP3   OH246847   6.376   6.721   1.706 -0.5353  0.0872  0.5041
 7551TIP3    H146848   6.418   6.755   1.785 -1.6823  1.3109  0.6235
 7551TIP3    H246849   6.400   6.628   1.704  0.6519  0.3453  1.5227
 7552TIP3   OH246850   0.853   1.492   1.870  0.2277  0.4130  0.2065
 7552TIP3    H146851   0.873   1.565   1.928  1.2779 -0.4754  0.9948
 7552TIP3    H246852   0.929   1.486   1.812  0.0992  0.0122  0.0735
 7553TIP3   OH246853   7.236   1.918   2.141  0.2696 -0.5233 -0.3441
 7553TIP3    H146854   7.328   1.942   2.132 -0.2227  0.9622 -1.9857
 7553TIP3    H246855   7.190   2.001   2.149 -0.9308 -1.2581  0.7394
 7554TIP3   OH246856   2.586   3.427   2.609 -0.4681  0.1544 -0.0279
 7554TIP3    H146857   2.655   3.424   2.676 -0.8831 -0.9859  0.3670
 7554TIP3    H246858   2.527   3.355   2.632 -0.9142  0.0910 -1.3042
 7555TIP3   OH246859   7.269   2.921   0.404 -0.1798 -0.1881 -0.2644
 7555TIP3    H146860   7.294   2.878   0.321  0.5724 -0.3487  0.0336
 7555TIP3    H246861   7.344   2.976   0.426  0.0523 -0.9094  0.8177
 7556TIP3   OH246862   3.556   2.498   1.027  0.3311  0.3233  0.0829
 7556TIP3    H146863   3.507   2.578   1.047  1.2449  0.7708  0.5926
 7556TIP3    H246864   3.499   2.450   0.967 -0.6063  0.9527  0.4419
 7557TIP3   OH246865   6.038   3.204   6.605 -0.4318 -0.1443 -0.3733
 7557TIP3    H146866   6.103   3.139   6.580 -1.5725 -0.8338 -1.6983
 7557TIP3    H246867   5.976   3.205   6.532 -1.9929  0.3685  0.9092
 7558TIP3   OH246868   1.519   2.164   2.101 -0.7361 -0.1565 -0.2255
 7558TIP3    H146869   1.429   2.132   2.095 -0.5089 -1.0174  0.6294
 7558TIP3    H246870   1.554   2.123   2.180  0.2123  0.6696 -0.1932
 7559TIP3   OH246871   1.972   4.575   8.082  0.6387  0.0634  0.5963
 7559TIP3    H146872   1.921   4.586   8.002  1.1305 -0.9971  0.1194
 7559TIP3    H246873   1.907   4.577   8.153  0.1230  0.2678  0.1228
 7560TIP3   OH246874   1.146   5.451   9.622  0.2245  0.6782 -0.5411
 7560TIP3    H146875   1.060   5.422   9.590  1.0329 -0.3462 -1.9156
 7560TIP3    H246876   1.126   5.525   9.680 -1.6451 -0.1210 -0.0636
 7561TIP3   OH246877   6.343   5.547   8.774 -0.2724 -0.0508 -0.0442
 7561TIP3    H146878   6.379   5.459   8.772  0.7325  0.3354 -2.0554
 7561TIP3    H246879   6.407   5.599   8.822 -0.1747 -0.1588 -0.0584
 7562TIP3   OH246880   5.667   0.704   1.009  0.1603  0.0702  0.5151
 7562TIP3    H146881   5.634   0.644   0.942  2.8021  0.8874 -1.7144
 7562TIP3    H246882   5.630   0.789   0.984  1.5245  0.4624 -0.2785
 7563TIP3   OH246883   6.339   0.897   1.054  0.0774  0.1073 -0.5083
 7563TIP3    H146884   6.369   0.869   0.967 -0.5016  0.8481 -0.9521
 7563TIP3    H246885   6.410   0.869   1.113  0.9882  0.5668 -1.3504
 7564TIP3   OH246886   2.535   7.199   9.197 -0.2225 -0.3401 -0.6355
 7564TIP3    H146887   2.599   7.203   9.268  0.3640  1.8822 -1.1937
 7564TIP3    H246888   2.450   7.189   9.242  0.4589 -4.6743  0.0592
 7565TIP3   OH246889   4.732   1.028   8.195 -0.0908  0.2162  0.4707
 7565TIP3    H146890   4.769   0.946   8.228 -0.8305 -0.2005  0.2928
 7565TIP3    H246891   4.807   1.078   8.164  0.7387  0.9068  3.3214
 7566TIP3   OH246892   6.617   5.230   7.742 -0.2907 -0.3126  0.2070
 7566TIP3    H146893   6.574   5.203   7.661  0.1471 -3.7069  0.9459
 7566TIP3    H246894   6.625   5.149   7.793  1.2877  1.3181  2.7817
 7567TIP3   OH246895   2.224   4.292   8.896 -0.2449  0.1748  0.0000
 7567TIP3    H146896   2.210   4.333   8.981 -1.6949 -1.2498  0.4981
 7567TIP3    H246897   2.209   4.199   8.911 -0.1659 -0.1550 -1.7324
 7568TIP3   OH246898   3.008   1.921   0.244  0.2040 -0.0682 -0.2351
 7568TIP3    H146899   3.099   1.892   0.236 -0.1276 -1.0619 -0.5548
 7568TIP3    H246900   3.009   1.984   0.316  0.9867 -0.7369  0.3572
 7569TIP3   OH246901   6.872   4.347   0.701 -0.3015  0.1779 -0.7046
 7569TIP3    H146902   6.781   4.369   0.723 -0.1904  0.5098 -0.5648
 7569TIP3    H246903   6.865   4.274   0.640 -0.7249  1.1565 -1.8677
 7570TIP3   OH246904   2.198   5.648   9.552 -0.3082  0.3330 -0.1073
 7570TIP3    H146905   2.218   5.727   9.604 -2.0807  0.6349  0.2147
 7570TIP3    H246906   2.117   5.671   9.505 -0.4572 -1.0485 -0.5665
 7571TIP3   OH246907   6.350   2.401   7.907 -0.2564  0.1696  0.1473
 7571TIP3    H146908   6.408   2.331   7.879 -0.1290  0.4149 -0.2132
 7571TIP3    H246909   6.372   2.416   7.999  1.1158  1.0906 -0.3070
 7572TIP3   OH246910   4.723   5.711   7.155  0.1838  0.1875 -0.3459
 7572TIP3    H146911   4.672   5.772   7.209 -1.6293 -2.1122  0.7201
 7572TIP3    H246912   4.664   5.689   7.082 -0.2430 -2.0966  0.6039
 7573TIP3   OH246913   1.031   2.007   9.389  0.0470  0.2466  0.2518
 7573TIP3    H146914   0.937   2.021   9.378 -0.5436 -2.4200  1.1083
 7573TIP3    H246915   1.057   1.956   9.312  0.8762  1.1841 -0.1089
 7574TIP3   OH246916   1.793   3.342   8.929 -0.4945  0.0973 -0.3451
 7574TIP3    H146917   1.836   3.411   8.980  0.7009 -0.1180 -1.0268
 7574TIP3    H246918   1.770   3.275   8.993  1.1298 -0.2451 -0.0851
 7575TIP3   OH246919   2.770   7.320   2.055 -0.1348 -0.7011  0.2764
 7575TIP3    H146920   2.794   7.295   2.144 -1.4429  0.3773  0.9737
 7575TIP3    H246921   2.699   7.383   2.067 -0.9449 -1.2195 -1.5699
 7576TIP3   OH246922   6.711   1.043   6.559  0.0967  0.1335 -0.4205
 7576TIP3    H146923   6.774   1.079   6.497 -0.2547 -0.0797 -0.9027
 7576TIP3    H246924   6.697   0.953   6.530 -0.2010  0.0854 -0.1374
 7577TIP3   OH246925   4.997   2.883   7.944 -0.1229  0.1603  0.1040
 7577TIP3    H146926   4.918   2.877   7.998  0.2468 -4.3234  0.5428
 7577TIP3    H246927   5.044   2.959   7.979 -3.0913  1.6094  1.3444
 7578TIP3   OH246928   7.059   6.007   6.941  0.4963 -0.1825 -0.0626
 7578TIP3    H146929   6.992   5.952   6.899  0.7967 -2.2842  1.9916
 7578TIP3    H246930   7.010   6.077   6.984 -0.1325 -0.2386 -0.6685
 7579TIP3   OH246931   6.903   4.058   0.149  0.0355  0.5941  0.0554
 7579TIP3    H146932   6.861   3.972   0.155  0.8637  0.1275 -0.6279
 7579TIP3    H246933   6.853   4.103   0.081 -1.1180  1.1010  1.1836
 7580TIP3   OH246934   3.921   7.410   7.230 -0.2495 -0.1388  0.0467
 7580TIP3    H146935   3.961   7.337   7.181  0.7880  0.3836  0.0814
 7580TIP3    H246936   3.960   7.404   7.317 -0.3090  0.3332  0.1086
 7581TIP3   OH246937   6.390   5.448   1.349 -0.4101  0.5661  0.0139
 7581TIP3    H146938   6.304   5.431   1.310 -0.6183 -0.0558  0.7330
 7581TIP3    H246939   6.452   5.418   1.282 -0.6582  3.1287 -1.5142
 7582TIP3   OH246940   5.346   6.400   2.812 -0.4427 -0.4097 -0.3590
 7582TIP3    H146941   5.267   6.363   2.773 -0.9615 -0.5644  0.7825
 7582TIP3    H246942   5.391   6.325   2.852 -1.3467  0.0748  1.7021
 7583TIP3   OH246943   6.530   6.298   8.753 -0.1217  0.3075  0.3477
 7583TIP3    H146944   6.515   6.392   8.747 -2.6548 -0.0543 -0.0386
 7583TIP3    H246945   6.466   6.266   8.817  1.9190 -0.9612  1.8992
 7584TIP3   OH246946   4.216   2.017   8.882  0.2579  0.4193 -0.1847
 7584TIP3    H146947   4.168   1.935   8.879  0.1656  0.4207  0.8720
 7584TIP3    H246948   4.288   2.006   8.820  0.4709 -0.6030  0.2362
 7585TIP3   OH246949   1.083   3.611   8.733 -0.1216  0.4107 -0.0529
 7585TIP3    H146950   1.080   3.518   8.754  0.9159  0.3399 -0.1815
 7585TIP3    H246951   1.017   3.622   8.665  0.6057 -0.4756 -0.9313
 7586TIP3   OH246952   1.394   2.497   9.198 -0.0377 -0.1029  0.7467
 7586TIP3    H146953   1.313   2.488   9.247  0.2853  1.6478  1.7211
 7586TIP3    H246954   1.443   2.416   9.216 -0.6134 -0.1903  2.0239
 7587TIP3   OH246955   1.255   4.475   1.503  0.1713 -0.5176  0.0056
 7587TIP3    H146956   1.331   4.533   1.512  1.1720 -1.9285  1.0767
 7587TIP3    H246957   1.286   4.390   1.532 -1.7580 -1.2076  0.1947
 7588TIP3   OH246958   1.293   7.341   8.847  0.6323 -0.8077 -0.2992
 7588TIP3    H146959   1.246   7.266   8.813 -2.6742  1.5818 -1.5674
 7588TIP3    H246960   1.319   7.391   8.770 -0.4320  1.0744  0.4961
 7589TIP3   OH246961   0.867   4.227   1.543  0.1327  0.0429  0.6717
 7589TIP3    H146962   0.831   4.220   1.632  0.4442  0.1854  0.8101
 7589TIP3    H246963   0.960   4.211   1.554  0.0075 -1.0837  0.2055
 7590TIP3   OH246964   3.655   0.774   8.575  0.0465  0.0386 -0.0972
 7590TIP3    H146965   3.655   0.847   8.638  2.2168 -1.0634  1.3438
 7590TIP3    H246966   3.577   0.787   8.522  0.2243  3.2880  0.2281
 7591TIP3   OH246967   1.734   2.431   2.620 -0.4989  0.3165 -0.7214
 7591TIP3    H146968   1.747   2.512   2.570 -0.4357  2.0785  1.9362
 7591TIP3    H246969   1.807   2.430   2.682 -1.1992 -1.1243  0.1306
 7592TIP3   OH246970   4.901   4.753   1.666  0.2067 -0.2879  0.0016
 7592TIP3    H146971   4.819   4.793   1.696  0.9784  1.4488 -0.0764
 7592TIP3    H246972   4.909   4.673   1.718 -1.3941 -0.3617  0.1921
 7593TIP3   OH246973   3.472   1.683   0.426  0.1641  0.1655  0.1563
 7593TIP3    H146974   3.557   1.646   0.402 -0.2703 -0.5225 -0.3532
 7593TIP3    H246975   3.454   1.649   0.513  0.1868 -0.0927  0.0612
 7594TIP3   OH246976   3.099   1.153   0.093  0.2963 -0.3360  0.1205
 7594TIP3    H146977   3.187   1.147   0.056  0.1737  2.8050 -0.9165
 7594TIP3    H246978   3.095   1.239   0.132 -1.0861 -1.8777  3.7817
 7595TIP3   OH246979   6.083   6.216   9.083  0.2677  0.7405  0.0274
 7595TIP3    H146980   6.036   6.133   9.087  0.8131  0.3002 -1.6222
 7595TIP3    H246981   6.128   6.223   9.167  0.5276 -0.8526  0.0496
 7596TIP3   OH246982   2.482   6.714   7.294  0.1223  0.4343 -0.0487
 7596TIP3    H146983   2.439   6.765   7.225  0.2894 -0.2921 -0.7022
 7596TIP3    H246984   2.459   6.623   7.274 -0.5520  0.2614  1.3643
 7597TIP3   OH246985   4.415   6.563   2.787  0.0957 -0.3520  0.8310
 7597TIP3    H146986   4.486   6.587   2.847  1.9295 -1.2790 -0.8478
 7597TIP3    H246987   4.444   6.595   2.701 -1.2524 -1.3116 -0.0215
 7598TIP3   OH246988   3.253   1.378   0.504  0.1133  0.1709 -0.0910
 7598TIP3    H146989   3.296   1.444   0.558  2.1187 -0.8143 -0.3825
 7598TIP3    H246990   3.296   1.384   0.419  0.5849 -1.6761 -0.0290
 7599TIP3   OH246991   7.104   0.157   2.419  0.5522  0.0519 -0.0272
 7599TIP3    H146992   7.073   0.123   2.503  0.1480  1.5041  0.4422
 7599TIP3    H246993   7.096   0.084   2.359  0.7547 -0.9925  1.1736
 7600TIP3   OH246994   6.365   5.241   8.855 -0.2561  0.2256  0.0961
 7600TIP3    H146995   6.324   5.167   8.811  1.8595  0.2976 -2.1859
 7600TIP3    H246996   6.458   5.219   8.858  0.1821  2.0236  0.9422
 7601TIP3   OH246997   6.071   2.996   1.840 -0.2612 -0.1879  0.1883
 7601TIP3    H146998   6.018   2.954   1.907  0.7475 -1.1642  0.4099
 7601TIP3    H246999   6.119   2.924   1.799  0.1112  0.5458 -0.7032
 7602TIP3   OH247000   6.639   4.485   9.574 -0.5834 -0.3859 -0.4570
 7602TIP3    H147001   6.567   4.547   9.589  0.6164  0.7848  0.7686
 7602TIP3    H247002   6.697   4.531   9.513 -0.5268 -1.0364 -0.8993
 7603TIP3   OH247003   2.064   4.549   7.716  0.4284 -0.1358  0.3966
 7603TIP3    H147004   2.053   4.601   7.636 -0.9012  1.9462  1.8580
 7603TIP3    H247005   2.155   4.563   7.741  0.2737  0.9706  0.3870
 7604TIP3   OH247006   3.621   2.917   1.120 -0.2282 -0.1242  0.5088
 7604TIP3    H147007   3.533   2.945   1.143 -0.0799  0.3633  0.4905
 7604TIP3    H247008   3.663   2.899   1.205 -0.7231 -1.5808  0.4867
 7605TIP3   OH247009   5.272   6.666   8.757 -0.3820 -0.6602 -0.6475
 7605TIP3    H147010   5.279   6.629   8.845 -1.4336  1.6240  0.4919
 7605TIP3    H247011   5.361   6.692   8.734 -0.0506 -1.5526 -0.4037
 7606TIP3   OH247012   6.721   3.853   6.962 -0.3987  0.4753 -0.2736
 7606TIP3    H147013   6.679   3.767   6.960  0.0831  0.2001  0.7497
 7606TIP3    H247014   6.663   3.910   6.911 -1.2880 -0.2061 -0.0398
 7607TIP3   OH247015   5.614   4.080   8.574 -0.5477 -0.0725  0.7409
 7607TIP3    H147016   5.587   4.043   8.658 -1.1505  0.2313  0.6827
 7607TIP3    H247017   5.642   4.169   8.594 -1.6579  0.3510  0.4761
 7608TIP3   OH247018   4.771   4.036   2.723 -0.7221 -0.0159  0.4624
 7608TIP3    H147019   4.781   4.120   2.678  0.7339 -0.0456  0.6583
 7608TIP3    H247020   4.860   4.013   2.750 -1.1778 -1.3417  0.9314
 7609TIP3   OH247021   2.118   6.430   8.315  0.0907  0.7980 -0.4629
 7609TIP3    H147022   2.052   6.362   8.299 -0.6124  1.8430 -2.4067
 7609TIP3    H247023   2.081   6.484   8.385  0.2146 -0.2309  0.4186
 7610TIP3   OH247024   2.671   0.463   1.644  0.3256 -0.0976 -0.1554
 7610TIP3    H147025   2.589   0.455   1.692 -0.2828 -0.2363 -1.1941
 7610TIP3    H247026   2.669   0.391   1.580  1.4207 -0.3285  0.0425
 7611TIP3   OH247027   0.344   4.676   0.081 -0.0360  0.4009 -0.1632
 7611TIP3    H147028   0.411   4.744   0.079  1.8986 -1.2272  2.2902
 7611TIP3    H247029   0.263   4.722   0.101  0.8949  2.1441 -0.2459
 7612TIP3   OH247030   7.396   1.411   1.577  0.1959  0.2350  0.4355
 7612TIP3    H147031   7.468   1.358   1.545 -0.1234 -0.0536  0.1847
 7612TIP3    H247032   7.374   1.373   1.663  0.6712  0.6427  0.7400
 7613TIP3   OH247033   0.308   6.448   1.353  0.1748 -0.3694 -0.2859
 7613TIP3    H147034   0.282   6.397   1.277  0.2346  1.4144 -1.5421
 7613TIP3    H247035   0.394   6.484   1.330 -0.1644  0.8512  0.2796
 7614TIP3   OH247036   4.398   0.015   8.552  0.3507 -0.2552  0.1433
 7614TIP3    H147037   4.469  -0.049   8.548  1.3283  0.8386 -2.7450
 7614TIP3    H247038   4.332  -0.018   8.491 -0.8078 -0.3118  1.3898
 7615TIP3   OH247039   6.227   0.065   2.819  0.1877 -0.2736  0.7712
 7615TIP3    H147040   6.188   0.152   2.822 -0.7265 -0.6605  0.7897
 7615TIP3    H247041   6.207   0.027   2.905  1.1772 -0.2565  1.0156
 7616TIP3   OH247042   3.096   0.193   1.955 -0.2363  0.7045  0.5924
 7616TIP3    H147043   3.121   0.150   1.873  1.6147  0.3708  1.2726
 7616TIP3    H247044   3.086   0.122   2.017 -0.3020  1.0497  0.9805
 7617TIP3   OH247045   2.987   7.079   7.221  0.4466 -0.6469 -0.2332
 7617TIP3    H147046   3.056   7.013   7.231  0.2192 -0.7725  0.5754
 7617TIP3    H247047   3.005   7.143   7.291  0.8872  0.3519 -1.2394
 7618TIP3   OH247048   2.282   0.376   2.915  0.0324 -1.0615  0.3169
 7618TIP3    H147049   2.226   0.423   2.853  0.0879 -1.3072  0.0796
 7618TIP3    H247050   2.299   0.440   2.985  0.6069 -0.5251 -0.2991
 7619TIP3   OH247051   3.781   6.521   0.556  0.2903 -0.3909 -0.0802
 7619TIP3    H147052   3.822   6.457   0.498  0.1298 -0.1706 -0.4494
 7619TIP3    H247053   3.852   6.579   0.582 -0.0090  0.9263 -1.9666
 7620TIP3   OH247054   3.588   2.405   9.259  0.3807 -0.5891  0.4433
 7620TIP3    H147055   3.609   2.385   9.351  0.1634  0.0727  0.6451
 7620TIP3    H247056   3.544   2.490   9.263  1.0049 -0.2135 -0.3480
 7621TIP3   OH247057   0.908   6.141   0.686  0.1807 -0.5349  0.0970
 7621TIP3    H147058   0.896   6.183   0.771  0.6311 -1.4409  0.6218
 7621TIP3    H247059   0.917   6.213   0.625 -1.3575  0.1454  0.6319
 7622TIP3   OH247060   4.931   2.872   6.960  0.8372  0.0416 -0.1666
 7622TIP3    H147061   4.951   2.815   6.886 -0.7857  0.1825 -0.7557
 7622TIP3    H247062   4.871   2.821   7.014  1.4983  0.1901  0.7385
 7623TIP3   OH247063   2.170   2.698   1.839 -0.4300 -0.0611 -0.2925
 7623TIP3    H147064   2.233   2.757   1.881 -2.2438  1.2497  0.7414
 7623TIP3    H247065   2.204   2.686   1.751  0.3642  2.0529 -0.3508
 7624TIP3   OH247066   1.200   6.924   7.072  0.0781 -0.3440 -0.3399
 7624TIP3    H147067   1.160   6.968   6.997  0.9754  2.2389  0.5774
 7624TIP3    H247068   1.286   6.895   7.040 -0.6459 -1.7853 -1.0428
 7625TIP3   OH247069   1.677   3.052   0.493  0.1302  0.0036  0.3358
 7625TIP3    H147070   1.686   2.989   0.421  0.4419 -0.9783  1.2057
 7625TIP3    H247071   1.583   3.070   0.497  0.2686  1.4368 -1.4140
 7626TIP3   OH247072   5.132   0.691   7.168 -0.1674 -0.0352 -0.2392
 7626TIP3    H147073   5.214   0.728   7.137 -1.5066  1.1636 -2.7157
 7626TIP3    H247074   5.072   0.700   7.094 -2.3426 -1.5458  1.1915
 7627TIP3   OH247075   4.870   2.307   7.207 -0.8552  0.3601 -0.4226
 7627TIP3    H147076   4.889   2.379   7.147 -2.4602  1.5788  0.4445
 7627TIP3    H247077   4.876   2.347   7.294 -2.6335 -0.3162  0.0438
 7628TIP3   OH247078   1.807   2.801   2.965 -0.0637  0.3732  0.6119
 7628TIP3    H147079   1.869   2.727   2.968  1.0913  1.2656 -0.2620
 7628TIP3    H247080   1.850   2.866   2.909 -1.2273  1.5633  1.0484
 7629TIP3   OH247081   1.558   0.990   0.458 -0.4222 -0.3112  0.1413
 7629TIP3    H147082   1.641   1.034   0.442 -1.7128  2.4219  0.5075
 7629TIP3    H247083   1.556   0.976   0.553 -0.3691 -0.4676  0.1209
 7630TIP3   OH247084   4.970   2.896   1.445  0.6667 -0.3558  0.4594
 7630TIP3    H147085   4.958   2.958   1.517  0.0657 -0.5056  0.4911
 7630TIP3    H247086   4.977   2.810   1.487  1.0096 -0.3708  0.3812
 7631TIP3   OH247087   4.259   1.100   0.314  0.0398  0.1093  0.3291
 7631TIP3    H147088   4.277   1.127   0.404  0.1081  0.5899  0.1762
 7631TIP3    H247089   4.240   1.007   0.320  0.7032 -0.0038  0.7513
 7632TIP3   OH247090   4.937   6.476   9.002 -0.1045  0.0827  0.1566
 7632TIP3    H147091   5.015   6.433   9.038 -0.3286  0.0913  0.6641
 7632TIP3    H247092   4.866   6.448   9.059 -0.5750 -0.3688 -0.6393
 7633TIP3   OH247093   1.707   2.257   0.905  0.0766 -0.2202 -0.2841
 7633TIP3    H147094   1.697   2.168   0.872  1.3672 -0.1734 -0.8689
 7633TIP3    H247095   1.786   2.290   0.861 -0.6820  1.4002 -0.5168
 7634TIP3   OH247096   3.094   4.833   6.867 -0.6840 -0.2550  0.5543
 7634TIP3    H147097   3.067   4.741   6.857 -2.0867  0.0448  1.3244
 7634TIP3    H247098   3.146   4.851   6.789 -0.6850 -1.6096  0.2112
 7635TIP3   OH247099   0.527   4.430   2.054 -0.1267 -0.3135  0.0783
 7635TIP3    H147100   0.479   4.499   2.008 -0.7786 -0.2136  0.8938
 7635TIP3    H247101   0.578   4.476   2.120 -1.8303 -0.6992  1.7377
 7636TIP3   OH247102   1.637   6.683   1.209  0.3795  0.4215 -0.0639
 7636TIP3    H147103   1.584   6.753   1.169  0.0076  0.4469  0.4657
 7636TIP3    H247104   1.725   6.697   1.174 -0.1409 -0.1975 -1.7082
 7637TIP3   OH247105   6.917   0.801   9.281  0.0172 -0.0437 -0.0183
 7637TIP3    H147106   6.925   0.807   9.376 -2.4049  2.1992  0.1488
 7637TIP3    H247107   6.886   0.712   9.265 -0.4248 -0.1668  1.3804
 7638TIP3   OH247108   3.995   5.776   1.846 -0.6602  0.5521 -0.0134
 7638TIP3    H147109   3.919   5.741   1.800 -2.1134  2.6919  0.5871
 7638TIP3    H247110   4.049   5.699   1.864 -2.6420 -1.0701 -0.5084
 7639TIP3   OH247111   5.821   0.122   8.599 -0.5140  0.2286  0.1600
 7639TIP3    H147112   5.766   0.156   8.529 -2.0137 -0.8290  0.7653
 7639TIP3    H247113   5.802   0.177   8.674  2.3006  2.4154 -0.5476
 7640TIP3   OH247114   5.710   2.040   1.893  0.2508 -0.0688 -0.2096
 7640TIP3    H147115   5.728   1.954   1.855  0.0964  0.0459 -0.5435
 7640TIP3    H247116   5.625   2.065   1.856  0.1612  0.1020  0.1075
 7641TIP3   OH247117   5.063   2.238   0.234 -0.0295  0.2458  0.6379
 7641TIP3    H147118   4.995   2.267   0.295 -2.6245 -1.1622 -1.4092
 7641TIP3    H247119   5.030   2.261   0.148  2.6258  0.4239 -0.4192
 7642TIP3   OH247120   0.884   4.489   9.565 -0.4842  0.6516 -0.6441
 7642TIP3    H147121   0.799   4.501   9.608 -0.3028  1.0826 -0.4056
 7642TIP3    H247122   0.870   4.416   9.504 -0.2662 -1.3117  1.5081
 7643TIP3   OH247123   5.460   2.211   0.913 -0.3458  0.3612 -0.2043
 7643TIP3    H147124   5.392   2.172   0.859  0.0445  1.4094 -1.5076
 7643TIP3    H247125   5.422   2.212   1.001 -0.6332 -2.2193 -0.2234
 7644TIP3   OH247126   5.509   0.650   7.601  0.2035 -0.3406  0.0459
 7644TIP3    H147127   5.581   0.668   7.541  1.8342 -0.5295  1.8549
 7644TIP3    H247128   5.449   0.724   7.588  1.5195  0.7078 -0.3536
 7645TIP3   OH247129   6.376   6.436   1.995  0.4152 -0.1196  0.6354
 7645TIP3    H147130   6.392   6.355   1.946  0.7503 -0.2430  0.9387
 7645TIP3    H247131   6.282   6.435   2.012 -0.5911  1.9732 -3.5448
 7646TIP3   OH247132   1.415   4.217   1.930 -0.2594 -0.1659  0.2024
 7646TIP3    H147133   1.350   4.149   1.949  0.6167 -1.2594 -0.6186
 7646TIP3    H247134   1.409   4.277   2.004 -3.7146  0.9786 -0.8035
 7647TIP3   OH247135   3.352   4.513   0.862  0.1793 -0.4144 -0.1403
 7647TIP3    H147136   3.399   4.436   0.829 -0.2315 -0.8694  0.3131
 7647TIP3    H247137   3.407   4.587   0.836  0.5479 -0.8511 -0.6455
 7648TIP3   OH247138   4.897   7.154   2.086 -0.2285 -0.7038  0.2658
 7648TIP3    H147139   4.860   7.222   2.030 -0.9447 -1.2509  0.0638
 7648TIP3    H247140   4.886   7.073   2.036  1.0256 -0.9231  0.3084
 7649TIP3   OH247141   0.004   2.504   9.295 -0.3828  0.1407  0.0303
 7649TIP3    H147142  -0.030   2.426   9.339 -2.3602  0.7190 -0.4007
 7649TIP3    H247143   0.086   2.523   9.340  0.1072 -2.1102  0.2190
 7650TIP3   OH247144   2.801   4.340   7.577 -0.2964 -0.0454  0.2177
 7650TIP3    H147145   2.718   4.309   7.613 -0.1898  0.4346  0.8922
 7650TIP3    H247146   2.850   4.261   7.555 -1.2721 -0.3486 -1.0191
 7651TIP3   OH247147   4.335   5.709   8.221  0.0656 -0.3798  0.2081
 7651TIP3    H147148   4.294   5.707   8.135 -1.1799 -1.2077  0.7859
 7651TIP3    H247149   4.363   5.618   8.236  2.2870  0.1816 -0.2189
 7652TIP3   OH247150   4.610   6.984   2.037  0.4138 -0.1141  0.2873
 7652TIP3    H147151   4.671   6.929   1.987 -1.1033 -0.2528 -1.5415
 7652TIP3    H247152   4.633   7.073   2.012  0.1105 -0.1506 -0.1394
 7653TIP3   OH247153   6.344   2.939   1.169  0.0780  0.3334 -0.9854
 7653TIP3    H147154   6.369   3.029   1.146 -1.3335  0.3653 -2.4715
 7653TIP3    H247155   6.313   2.900   1.088 -2.4587 -0.4509  0.2616
 7654TIP3   OH247156   6.364   0.337   1.456  0.1497  0.0542 -0.0033
 7654TIP3    H147157   6.457   0.341   1.435  0.1236  2.1135  0.0066
 7654TIP3    H247158   6.355   0.261   1.514  1.7348 -0.4165 -0.3306
 7655TIP3   OH247159   4.551   4.312   7.488  0.2118  0.2621 -0.6691
 7655TIP3    H147160   4.638   4.332   7.455  0.3391  1.3608  0.2615
 7655TIP3    H247161   4.566   4.280   7.577 -0.3187  0.2015 -0.5972
 7656TIP3   OH247162   0.213   1.866   1.573  0.4687  0.3642 -0.0646
 7656TIP3    H147163   0.128   1.911   1.573 -0.1634 -0.7416  1.2682
 7656TIP3    H247164   0.238   1.865   1.666  1.8518  0.4764 -0.4231
 7657TIP3   OH247165   2.156   5.209   7.121 -0.5924 -0.4567 -0.1993
 7657TIP3    H147166   2.194   5.213   7.033  1.3662  0.9656  0.6295
 7657TIP3    H247167   2.202   5.137   7.164  1.4418  1.3680  0.8585
 7658TIP3   OH247168   0.869   0.817   6.395 -0.0833 -0.1192  0.2242
 7658TIP3    H147169   0.811   0.746   6.366 -0.0160  0.4611 -1.4277
 7658TIP3    H247170   0.813   0.893   6.403  0.2996  0.2586 -0.5993
 7659TIP3   OH247171   4.016   5.639   7.028 -0.2296  0.1519  0.6283
 7659TIP3    H147172   4.109   5.627   7.048 -0.7233  0.1688  3.1579
 7659TIP3    H247173   3.984   5.552   7.006  0.4767  0.2468 -0.9349
 7660TIP3   OH247174   5.244   7.172   0.966  0.1557 -0.2365  0.6239
 7660TIP3    H147175   5.336   7.146   0.955 -0.1451 -1.5928  1.1130
 7660TIP3    H247176   5.214   7.192   0.878  0.3327 -1.9230  0.1529
 7661TIP3   OH247177   5.956   5.093   6.954  0.2478 -0.2352 -0.1377
 7661TIP3    H147178   6.050   5.110   6.952  0.3414 -0.1177  2.2512
 7661TIP3    H247179   5.940   5.058   7.041 -1.5961 -2.4888 -1.2729
 7662TIP3   OH247180   3.644   7.152   1.187  0.4353 -0.2732  0.0775
 7662TIP3    H147181   3.623   7.240   1.219  0.8817  0.0341 -0.4412
 7662TIP3    H247182   3.613   7.152   1.096  3.5786  0.6263 -1.1333
 7663TIP3   OH247183   2.880   4.667   8.686  0.0508  0.3356  0.2379
 7663TIP3    H147184   2.893   4.608   8.759 -3.4557 -0.8922  0.0811
 7663TIP3    H247185   2.899   4.754   8.721  1.2054 -0.4713  1.7043
 7664TIP3   OH247186   1.353   0.383   9.209  0.2374 -0.0470  0.3652
 7664TIP3    H147187   1.439   0.376   9.166  0.0834  2.9027 -0.6593
 7664TIP3    H247188   1.372   0.427   9.292 -0.4121  2.6642 -0.8229
 7665TIP3   OH247189   4.328   7.131   2.545  0.3267 -0.2910 -0.0308
 7665TIP3    H147190   4.391   7.203   2.554 -0.1999  0.3732 -1.5109
 7665TIP3    H247191   4.255   7.156   2.602  0.0918  0.4300 -0.6293
 7666TIP3   OH247192   1.033   5.120   0.750  0.4238  0.1921  0.0352
 7666TIP3    H147193   1.045   5.104   0.843  0.9631  0.1044 -0.0454
 7666TIP3    H247194   1.110   5.170   0.724  0.2196  0.3168 -0.3400
 7667TIP3   OH247195   0.137   1.155   7.421  0.1264  0.5119 -0.0273
 7667TIP3    H147196   0.046   1.134   7.441  0.5040 -1.7940 -0.5232
 7667TIP3    H247197   0.188   1.099   7.479  1.2330  0.7321 -0.7549
 7668TIP3   OH247198   5.812   5.839   7.239 -0.2068  0.2515 -0.1717
 7668TIP3    H147199   5.901   5.832   7.203  0.2504 -0.7362  1.0671
 7668TIP3    H247200   5.811   5.924   7.283 -0.2246  0.7237 -1.0691
 7669TIP3   OH247201   2.736   7.139   2.255  0.5481 -0.3045  0.3259
 7669TIP3    H147202   2.659   7.188   2.285  1.4723  1.3876  0.0842
 7669TIP3    H247203   2.806   7.166   2.315  1.3672 -0.3753 -0.5740
 7670TIP3   OH247204   0.692   6.567   9.506  0.2212  0.3841 -0.6725
 7670TIP3    H147205   0.637   6.621   9.449  0.1530  0.8751 -0.1552
 7670TIP3    H247206   0.722   6.627   9.575 -0.8299 -0.4803  0.6016
 7671TIP3   OH247207   1.985   1.824   8.487 -0.7091 -0.0085  0.1786
 7671TIP3    H147208   1.903   1.841   8.532 -0.6528  0.0831  0.2473
 7671TIP3    H247209   1.979   1.732   8.460 -1.2065  0.2389 -0.5950
 7672TIP3   OH247210   1.907   6.363   0.234  0.6872 -0.6766 -0.7368
 7672TIP3    H147211   1.940   6.307   0.164  1.6778 -1.0033 -0.0327
 7672TIP3    H247212   1.954   6.446   0.222  1.3758 -0.9639 -0.0514
 7673TIP3   OH247213   0.870   0.702   7.894  0.0245  0.1139  0.3708
 7673TIP3    H147214   0.815   0.772   7.860 -0.4876 -0.1191  0.7058
 7673TIP3    H247215   0.812   0.625   7.896  0.7513 -0.4814 -0.6163
 7674TIP3   OH247216   5.712   7.254   1.287 -0.6721 -1.2047 -0.0820
 7674TIP3    H147217   5.745   7.338   1.254  1.2912 -0.9193  2.3322
 7674TIP3    H247218   5.642   7.277   1.347  0.2815 -1.1797  1.0644
 7675TIP3   OH247219   6.967   0.763   7.229 -0.4927 -0.1574 -0.1805
 7675TIP3    H147220   7.014   0.775   7.312 -0.1072  2.1152 -0.6722
 7675TIP3    H247221   7.032   0.729   7.168 -0.5643 -1.0107  0.2043
 7676TIP3   OH247222   3.773   4.898   1.522 -0.4988  0.2390  0.1338
 7676TIP3    H147223   3.719   4.909   1.444 -0.9480 -1.6320  0.1442
 7676TIP3    H247224   3.831   4.825   1.502  1.2956  1.5012  0.5478
 7677TIP3   OH247225   1.149   4.600   1.282  0.5256  0.4725 -0.7057
 7677TIP3    H147226   1.192   4.527   1.237 -0.1916 -0.9351  0.7807
 7677TIP3    H247227   1.174   4.589   1.374 -0.7565  1.2661 -0.2452
 7678TIP3   OH247228   4.879   2.721   8.631 -0.0404  0.4313  0.0053
 7678TIP3    H147229   4.885   2.626   8.630 -2.4818  0.2088  0.2301
 7678TIP3    H247230   4.928   2.748   8.708  1.0435 -0.5941 -0.3119
 7679TIP3   OH247231   0.498   5.928   9.021 -0.1284 -0.4784 -0.6587
 7679TIP3    H147232   0.562   5.901   9.088 -1.0304 -1.5949 -0.2028
 7679TIP3    H247233   0.495   6.023   9.028  0.3393 -0.5208  0.4013
 7680TIP3   OH247234   2.111   4.443   1.383 -0.2945 -0.3920  0.0754
 7680TIP3    H147235   2.054   4.518   1.397  1.0203  0.5066  0.7388
 7680TIP3    H247236   2.146   4.422   1.470 -0.0328 -1.2859 -0.2273
 7681TIP3   OH247237   5.689   2.178   8.466 -0.2963  0.0800  0.5021
 7681TIP3    H147238   5.721   2.124   8.393  2.6511  2.5038 -0.1811
 7681TIP3    H247239   5.594   2.181   8.452 -0.2803 -2.6411 -0.9528
 7682TIP3   OH247240   7.144   6.160   6.364 -0.7951 -0.0731 -0.0740
 7682TIP3    H147241   7.066   6.107   6.349 -0.7399 -0.2592  0.2892
 7682TIP3    H247242   7.208   6.128   6.301 -1.0858  0.2376 -0.5338
 7683TIP3   OH247243   5.603   1.714   9.511 -0.1504  0.0003 -0.2217
 7683TIP3    H147244   5.623   1.804   9.487  1.2076 -0.0697  0.5811
 7683TIP3    H247245   5.653   1.661   9.448  0.1003 -0.1900  0.1363
 7684TIP3   OH247246   4.430   6.461   1.333 -0.2581  0.5710 -0.1584
 7684TIP3    H147247   4.478   6.408   1.397  2.4798  0.0944 -2.4053
 7684TIP3    H247248   4.414   6.544   1.378  0.0343 -0.3024  1.6771
 7685TIP3   OH247249   5.346   7.034   7.797  0.5849 -0.1336 -0.8915
 7685TIP3    H147250   5.283   6.999   7.734 -0.3744 -1.9632  0.9513
 7685TIP3    H247251   5.295   7.094   7.851  1.2374  0.9175 -1.4230
 7686TIP3   OH247252   2.628   6.549   0.869  0.3857  0.1265  0.8483
 7686TIP3    H147253   2.568   6.611   0.828  0.1626 -0.0547  0.8935
 7686TIP3    H247254   2.640   6.582   0.958 -0.8159 -0.6168  1.3222
 7687TIP3   OH247255   1.178   6.139   9.646  0.1445  0.4113 -0.4052
 7687TIP3    H147256   1.199   6.132   9.553 -0.0826  0.4736 -0.4649
 7687TIP3    H247257   1.227   6.216   9.675 -0.7587  1.1571 -0.7750
 7688TIP3   OH247258   1.065   0.110   2.826 -1.0018  0.4745 -0.5653
 7688TIP3    H147259   0.997   0.047   2.850 -1.7818  1.0018 -1.3046
 7688TIP3    H247260   1.080   0.160   2.906  0.1720 -1.1011  0.2470
 7689TIP3   OH247261   0.473   3.478   7.630 -0.2348  0.6090 -0.5094
 7689TIP3    H147262   0.378   3.468   7.633 -0.1983  0.2722 -0.4115
 7689TIP3    H247263   0.501   3.474   7.721  0.0026 -0.6915 -0.6239
 7690TIP3   OH247264   4.241   0.100   0.194 -0.4351 -0.0359  0.5220
 7690TIP3    H147265   4.163   0.150   0.219 -1.3241 -0.8849 -0.4161
 7690TIP3    H247266   4.265   0.135   0.108  0.0636  0.0440  0.6940
 7691TIP3   OH247267   0.442   7.008   9.472  0.2878 -0.1766 -0.2929
 7691TIP3    H147268   0.506   7.073   9.443  0.2811  0.8195  1.7463
 7691TIP3    H247269   0.474   6.981   9.558 -2.1120  0.5056  0.8881
 7692TIP3   OH247270   3.767   5.601   1.320 -0.4423 -0.0577 -0.1397
 7692TIP3    H147271   3.822   5.677   1.342 -0.2892 -0.5399  1.2510
 7692TIP3    H247272   3.749   5.611   1.227 -0.6352  1.8292  0.0581
 7693TIP3   OH247273   0.324   6.149   9.625 -0.0612 -0.0470  0.5354
 7693TIP3    H147274   0.383   6.186   9.559 -0.3939 -0.3563  0.0607
 7693TIP3    H247275   0.244   6.130   9.577 -0.3696 -0.1069  1.0722
 7694TIP3   OH247276   2.840   5.193   0.213 -0.2738 -0.2777  1.0100
 7694TIP3    H147277   2.773   5.231   0.271  0.4332  2.4053  0.1884
 7694TIP3    H247278   2.833   5.243   0.132  1.0105 -1.7257 -0.0549
 7695TIP3   OH247279   0.911   4.343   8.025  0.1012  0.2541 -0.2326
 7695TIP3    H147280   0.908   4.253   7.991 -0.2677  0.7872 -1.6844
 7695TIP3    H247281   1.002   4.355   8.051  0.0901 -0.6387  0.2550
 7696TIP3   OH247282   0.089   5.706   8.471 -0.8725  0.4377 -0.0383
 7696TIP3    H147283   0.110   5.627   8.421 -0.3062  1.0418 -0.7688
 7696TIP3    H247284   0.009   5.683   8.520 -0.1733 -0.9087  0.5148
 7697TIP3   OH247285   7.178   2.519   7.381  0.1273 -0.3442  0.8890
 7697TIP3    H147286   7.091   2.557   7.392  0.1485  0.0863 -0.2279
 7697TIP3    H247287   7.227   2.587   7.333  0.8234 -0.9097  0.7892
 7698TIP3   OH247288   4.139   1.749   8.609  0.1700 -0.3420 -0.2228
 7698TIP3    H147289   4.200   1.681   8.581  1.6278  0.9527 -0.3386
 7698TIP3    H247290   4.180   1.831   8.581 -1.0089  0.6559  0.8340
 7699TIP3   OH247291   4.469   3.934   0.124 -0.3768 -0.4056 -0.7028
 7699TIP3    H147292   4.468   3.968   0.214 -1.3158 -1.6133 -0.2396
 7699TIP3    H247293   4.404   3.987   0.078 -1.5137 -1.2563 -0.0976
 7700TIP3   OH247294   1.759   6.270   8.124 -0.1539  0.3980 -0.2721
 7700TIP3    H147295   1.724   6.184   8.101  0.3979  0.8241 -3.0358
 7700TIP3    H247296   1.823   6.253   8.193  0.2950 -1.4845 -1.1135
 7701TIP3   OH247297   2.558   6.438   8.665  0.7153  0.3574  0.3748
 7701TIP3    H147298   2.500   6.462   8.593  0.4827 -1.1246  0.0416
 7701TIP3    H247299   2.516   6.477   8.742 -1.2744 -1.3804  0.2819
 7702TIP3   OH247300   2.749   2.616   7.256 -0.6292 -0.5560  0.1989
 7702TIP3    H147301   2.654   2.612   7.272 -0.4795 -0.6796  1.0636
 7702TIP3    H247302   2.758   2.679   7.185 -1.3306 -0.2670  0.3528
 7703TIP3   OH247303   2.133   4.541   0.524  0.3427 -0.3365 -0.3180
 7703TIP3    H147304   2.104   4.573   0.610  0.4374  2.6958 -1.2731
 7703TIP3    H247305   2.115   4.614   0.465  1.9747 -1.6317 -2.5629
 7704TIP3   OH247306   0.409   2.862   0.095 -0.6230 -0.9452  0.3069
 7704TIP3    H147307   0.386   2.944   0.050 -1.7232 -2.0409 -1.2135
 7704TIP3    H247308   0.505   2.863   0.096 -0.5984  1.0325  1.6568
 7705TIP3   OH247309   0.505   0.752   9.271  0.2416  0.5766 -0.1380
 7705TIP3    H147310   0.488   0.694   9.345 -0.5820  0.1006 -0.6818
 7705TIP3    H247311   0.425   0.804   9.261 -0.4236 -0.6609 -1.8100
 7706TIP3   OH247312   0.974   4.427   6.466 -0.1208  0.4280 -0.6048
 7706TIP3    H147313   1.022   4.485   6.525 -1.1785 -0.5638  1.3328
 7706TIP3    H247314   0.959   4.348   6.518 -1.1433 -0.4832 -2.2147
 7707TIP3   OH247315   2.353   6.492   1.918 -0.4421  0.2243  0.3005
 7707TIP3    H147316   2.414   6.536   1.858 -0.5304 -0.6816 -0.4776
 7707TIP3    H247317   2.287   6.558   1.938 -1.3525  0.1118 -1.9559
 7708TIP3   OH247318   2.000   2.555   2.327  0.5381 -0.2945 -0.6407
 7708TIP3    H147319   1.918   2.574   2.372 -0.9694 -0.0592 -3.2749
 7708TIP3    H247320   2.055   2.631   2.345 -0.0398 -0.1436  0.6214
 7709TIP3   OH247321   3.905   7.246   0.837  0.4505  0.0015 -0.2254
 7709TIP3    H147322   3.816   7.211   0.833 -0.5470  1.8365  2.6151
 7709TIP3    H247323   3.956   7.176   0.878 -0.6152  0.2187  1.6311
 7710TIP3   OH247324   0.329   4.577   6.722 -0.3498  0.2794  0.0124
 7710TIP3    H147325   0.414   4.608   6.692 -0.3010  0.5328  0.3974
 7710TIP3    H247326   0.268   4.602   6.653 -0.0734 -0.1225 -0.3770
 7711TIP3   OH247327   4.344   0.935   0.989 -0.9873  0.1669 -0.6211
 7711TIP3    H147328   4.421   0.899   0.945 -1.5800 -1.2283 -0.5956
 7711TIP3    H247329   4.357   0.914   1.082 -0.8833  0.9067 -0.4694
 7712TIP3   OH247330   0.956   0.400   8.696  0.0465 -0.3270  0.6575
 7712TIP3    H147331   1.014   0.457   8.645  0.8747 -0.5615  1.3211
 7712TIP3    H247332   0.967   0.427   8.786 -1.7573  0.3764  0.7051
 7713TIP3   OH247333   3.542   3.219   7.566 -0.2158  0.1280 -0.2415
 7713TIP3    H147334   3.501   3.268   7.637 -0.4191  0.3000 -0.4726
 7713TIP3    H247335   3.621   3.182   7.604 -0.0396  0.6708 -0.0741
 7714TIP3   OH247336   7.106   3.954   8.883 -0.0747  0.5004  0.1924
 7714TIP3    H147337   7.036   3.905   8.841 -1.0332  1.7404  0.2927
 7714TIP3    H247338   7.122   3.909   8.966 -0.1596 -0.2741 -0.2082
 7715TIP3   OH247339   6.561   1.179   8.980 -0.0742  0.0032 -0.1688
 7715TIP3    H147340   6.635   1.135   9.020  1.2736  2.0015 -0.3497
 7715TIP3    H247341   6.575   1.167   8.886  0.1407  0.5672 -0.2096
 7716TIP3   OH247342   5.768   1.520   2.257  0.4447 -0.0792  0.0283
 7716TIP3    H147343   5.857   1.514   2.292  0.6333 -0.0970 -0.4522
 7716TIP3    H247344   5.759   1.442   2.203  0.3181  0.1894 -0.3390
 7717TIP3   OH247345   2.741   3.041   0.552 -0.0691  0.5394 -0.1599
 7717TIP3    H147346   2.832   3.015   0.569 -0.1684  1.7038  2.6785
 7717TIP3    H247347   2.704   2.968   0.501  2.2270 -0.2655 -0.7910
 7718TIP3   OH247348   5.682   7.278   7.384 -0.3771 -0.2687  0.4354
 7718TIP3    H147349   5.644   7.196   7.417 -1.2213  0.2419  0.7850
 7718TIP3    H247350   5.630   7.299   7.306  0.4217 -0.5249 -0.1735
 7719TIP3   OH247351   2.900   4.111   7.828  0.1604 -0.7400  0.1057
 7719TIP3    H147352   2.839   4.073   7.892 -0.4553 -0.5629 -0.3642
 7719TIP3    H247353   2.893   4.206   7.842 -1.3491 -0.5773 -1.4083
 7720TIP3   OH247354   4.679   2.764   0.728 -0.3030 -0.0544  0.4341
 7720TIP3    H147355   4.756   2.766   0.671 -1.3635  1.5581 -1.0499
 7720TIP3    H247356   4.612   2.722   0.675 -0.5731 -1.0696  1.5627
 7721TIP3   OH247357   1.618   1.402   0.491 -0.0785  0.4024  0.6198
 7721TIP3    H147358   1.634   1.492   0.462 -1.1142  0.4423  0.1281
 7721TIP3    H247359   1.546   1.372   0.437  0.0460 -0.6252  1.0045
 7722TIP3   OH247360   3.029   2.654   1.622 -0.3005  0.3268  0.0628
 7722TIP3    H147361   3.049   2.698   1.540 -1.8570  2.1388  0.5858
 7722TIP3    H247362   3.115   2.629   1.657  0.5427  1.5769 -1.0221
 7723TIP3   OH247363   0.646   3.937   0.318 -0.5175 -0.2010  0.1964
 7723TIP3    H147364   0.711   3.987   0.268 -0.1909 -1.2557 -0.4719
 7723TIP3    H247365   0.589   3.898   0.251 -0.4944 -1.0721  0.6693
 7724TIP3   OH247366   7.106   4.326   7.739  0.3115 -0.4574  0.2955
 7724TIP3    H147367   7.035   4.363   7.791  0.3240 -0.8969  0.6250
 7724TIP3    H247368   7.144   4.401   7.693 -1.2837 -0.3967 -1.0017
 7725TIP3   OH247369   4.975   5.340   6.974  0.1367 -0.1713  0.6438
 7725TIP3    H147370   4.998   5.257   7.016  1.2556  0.0513  0.4894
 7725TIP3    H247371   4.879   5.344   6.981  0.1277 -1.1271  1.2928
 7726TIP3   OH247372   1.141   4.955   6.476 -0.3053 -0.2496  0.2356
 7726TIP3    H147373   1.196   4.983   6.402  1.4073 -0.9012  1.2182
 7726TIP3    H247374   1.133   5.033   6.531  0.5701 -0.4478  0.6454
 7727TIP3   OH247375   1.044   0.242   1.181 -0.6159  0.9075 -0.0864
 7727TIP3    H147376   1.045   0.187   1.259 -1.5311  1.9256  0.6767
 7727TIP3    H247377   1.132   0.279   1.176 -0.8549  1.6737  1.1017
 7728TIP3   OH247378   1.972   3.906   9.238 -0.2255  0.1264 -0.3395
 7728TIP3    H147379   1.990   3.988   9.284 -0.5882  0.8451 -1.4397
 7728TIP3    H247380   2.044   3.849   9.262  0.2035  0.8735  0.1928
 7729TIP3   OH247381   6.807   0.594   1.184  0.2172  0.3444  0.0802
 7729TIP3    H147382   6.873   0.662   1.200 -1.3685  1.5734  1.9420
 7729TIP3    H247383   6.756   0.627   1.110  0.4599  0.3735 -0.0753
 7730TIP3   OH247384   3.853   2.508   7.773 -0.6259  0.3609  0.3447
 7730TIP3    H147385   3.870   2.576   7.707  1.6548  0.7430  1.1989
 7730TIP3    H247386   3.941   2.482   7.802 -1.5306 -0.7987  2.2008
 7731TIP3   OH247387   6.512   6.591   8.759 -0.4459  0.1093 -0.0351
 7731TIP3    H147388   6.506   6.605   8.854  0.8678 -0.6825  0.1812
 7731TIP3    H247389   6.551   6.671   8.725  2.1688 -0.8315  0.5408
 7732TIP3   OH247390   5.228   1.281   8.709 -0.1716  0.2652 -0.1014
 7732TIP3    H147391   5.238   1.352   8.646 -1.7343  1.2537  0.6834
 7732TIP3    H247392   5.316   1.246   8.721  0.6237  1.9988 -0.6115
 7733TIP3   OH247393   5.106   3.326   0.280  0.4997  0.7443  0.1066
 7733TIP3    H147394   5.145   3.309   0.194  0.7040 -1.3391  0.5497
 7733TIP3    H247395   5.011   3.317   0.265  0.6127 -1.2914  0.3712
 7734TIP3   OH247396   6.573   5.573   0.678 -0.3543  0.1163 -0.7889
 7734TIP3    H147397   6.512   5.500   0.686 -3.6685  2.4251 -2.5707
 7734TIP3    H247398   6.567   5.600   0.586  2.0097  1.6357 -0.5959
 7735TIP3   OH247399   5.578   7.158   1.750 -0.0508  0.2165  0.2185
 7735TIP3    H147400   5.582   7.070   1.712  0.5536  0.8907 -1.4001
 7735TIP3    H247401   5.541   7.145   1.837  1.8107 -1.8720  0.8072
 7736TIP3   OH247402   3.063   7.077   2.342 -0.4489  0.5609  0.3049
 7736TIP3    H147403   3.067   7.172   2.345  0.2902  0.5608 -0.4840
 7736TIP3    H247404   3.154   7.048   2.349 -0.6833 -0.1001  0.7738
 7737TIP3   OH247405   4.521   6.297   0.452  0.3242 -0.4482 -0.2808
 7737TIP3    H147406   4.480   6.374   0.414 -1.2525 -1.1799 -0.1533
 7737TIP3    H247407   4.540   6.240   0.377  1.7600  0.1559 -0.4051
 7738TIP3   OH247408   3.028   7.357   0.529 -0.2881 -0.0858 -0.0921
 7738TIP3    H147409   2.962   7.287   0.532 -0.6584  0.0681 -2.6822
 7738TIP3    H247410   3.030   7.391   0.619 -2.8357 -0.9040  0.3702
 7739TIP3   OH247411   1.639   6.541   0.401 -0.1311 -0.1341 -0.4410
 7739TIP3    H147412   1.673   6.547   0.312 -0.7425  0.8166 -0.6299
 7739TIP3    H247413   1.554   6.585   0.397  0.8950  2.1975  1.1373
 7740TIP3   OH247414   4.967   1.144   8.072  0.9909 -0.7128  0.3705
 7740TIP3    H147415   5.038   1.106   8.123  1.2425 -0.1093  0.4879
 7740TIP3    H247416   4.980   1.111   7.983  1.2925 -0.7776  0.4365
 7741TIP3   OH247417   1.226   1.138   2.671 -0.0608  0.1315  1.2008
 7741TIP3    H147418   1.177   1.219   2.657 -0.0148 -0.0571 -0.2212
 7741TIP3    H247419   1.317   1.161   2.651 -0.0115 -0.2155  1.0163
 7742TIP3   OH247420   5.968   0.673   7.733  0.2738 -0.0447 -0.2148
 7742TIP3    H147421   6.021   0.595   7.749  0.1790  0.0233  0.5081
 7742TIP3    H247422   5.953   0.674   7.639  0.6808 -0.6341 -0.2922
 7743TIP3   OH247423   3.314   5.857   2.311 -0.3782 -0.3036 -0.4741
 7743TIP3    H147424   3.401   5.874   2.347 -0.4411 -0.2201 -0.3614
 7743TIP3    H247425   3.281   5.783   2.361 -1.2550  1.0138  0.9961
 7744TIP3   OH247426   2.986   3.451   1.177 -0.6962  0.4413  0.1406
 7744TIP3    H147427   2.971   3.360   1.200  0.2448 -0.0704 -1.1389
 7744TIP3    H247428   2.899   3.490   1.172 -1.0778 -0.2475  1.1808
 7745TIP3   OH247429   1.218   1.706   2.508  0.3219 -0.1260  0.8415
 7745TIP3    H147430   1.177   1.667   2.585  0.1936  0.8893  1.3071
 7745TIP3    H247431   1.297   1.654   2.494  0.4831 -0.1645  1.8263
 7746TIP3   OH247432   4.188   3.906   0.808  0.8272  0.7378 -0.2225
 7746TIP3    H147433   4.137   3.963   0.866 -0.9669 -1.2843  0.3152
 7746TIP3    H247434   4.247   3.860   0.867 -0.1472 -0.4372 -0.1416
 7747TIP3   OH247435   0.825   0.999   1.991 -0.0005 -0.0948  0.1141
 7747TIP3    H147436   0.826   1.088   2.027  0.9416 -0.3219  0.6939
 7747TIP3    H247437   0.781   1.007   1.906 -1.3612  0.6358  0.8655
 7748TIP3   OH247438   2.263   2.436   1.898 -0.7993 -0.4163  0.5889
 7748TIP3    H147439   2.348   2.404   1.869 -1.0932 -2.1051  1.4862
 7748TIP3    H247440   2.264   2.530   1.877 -0.5448 -1.1637 -3.8074
 7749TIP3   OH247441   0.601   0.785   2.087 -0.0107  0.1446 -0.3475
 7749TIP3    H147442   0.690   0.762   2.061 -0.3037 -0.8327 -0.5076
 7749TIP3    H247443   0.607   0.805   2.180  0.0385 -1.8367  0.1087
 7750TIP3   OH247444   0.349   0.064   6.532 -0.7459 -0.2008  0.4629
 7750TIP3    H147445   0.388  -0.022   6.516  1.0944  0.1951  2.4591
 7750TIP3    H247446   0.267   0.046   6.578 -1.7783 -0.9343 -1.5362
 7751TIP3   OH247447   4.115   1.738   8.143 -0.2886  0.0501  0.6567
 7751TIP3    H147448   4.096   1.817   8.193 -0.9608  0.5314 -0.3264
 7751TIP3    H247449   4.033   1.716   8.100  0.2663 -0.3522 -0.2283
 7752TIP3   OH247450   0.809   5.526   1.440 -0.4233 -0.7960  0.6250
 7752TIP3    H147451   0.753   5.599   1.465 -0.5458  0.4219 -2.6921
 7752TIP3    H247452   0.888   5.567   1.404  1.6106 -2.4450  2.8476
 7753TIP3   OH247453   6.310   3.146   1.957  0.5319  1.0600  0.1115
 7753TIP3    H147454   6.222   3.129   1.925  0.5616  1.4088 -0.1655
 7753TIP3    H247455   6.330   3.234   1.925  1.8296  0.1616 -1.7547
 7754TIP3   OH247456   7.286   0.247   9.460 -0.2599  0.2472 -0.3843
 7754TIP3    H147457   7.340   0.180   9.501 -1.5305 -0.6190 -0.0447
 7754TIP3    H247458   7.239   0.201   9.390 -1.1881  0.7655 -0.1214
 7755TIP3   OH247459   6.536   6.754   1.141  0.1318  0.1935 -0.3787
 7755TIP3    H147460   6.564   6.841   1.112 -0.1211  1.1922  2.1902
 7755TIP3    H247461   6.443   6.750   1.119  0.1936  0.4546 -0.6996
 7756TIP3   OH247462   5.994   5.027   7.218  0.3035  0.6570  0.3110
 7756TIP3    H147463   6.006   5.077   7.299 -3.2559  1.3043  0.6446
 7756TIP3    H247464   6.038   4.944   7.235  0.3875  1.0778  2.5991
 7757TIP3   OH247465   6.538   4.535   2.223  0.2797  0.1481 -0.4549
 7757TIP3    H147466   6.510   4.623   2.198  0.9615  0.1423 -1.2623
 7757TIP3    H247467   6.600   4.509   2.155  1.2046 -0.3740  0.5450
 7758TIP3   OH247468   3.584   4.380   9.053 -0.5187  0.1691 -0.5132
 7758TIP3    H147469   3.546   4.413   8.972  0.0834 -0.3916 -1.0424
 7758TIP3    H247470   3.515   4.389   9.119 -1.0197  0.6033 -1.0960
 7759TIP3   OH247471   5.909   2.778   9.448 -0.5495 -0.0784 -0.1415
 7759TIP3    H147472   5.971   2.850   9.449  0.0882 -0.6077 -0.4249
 7759TIP3    H247473   5.957   2.703   9.484 -1.1487 -0.3982  0.0171
 7760TIP3   OH247474   0.065   2.131   8.973  0.2143  0.7675 -0.4645
 7760TIP3    H147475   0.091   2.046   9.008  0.5980  1.3728  0.7792
 7760TIP3    H247476   0.029   2.111   8.887  0.9102 -0.5771 -0.4756
 7761TIP3   OH247477   7.332   1.256   1.229 -0.1533  0.0595 -0.2906
 7761TIP3    H147478   7.375   1.319   1.287 -0.4569  1.1379 -1.2029
 7761TIP3    H247479   7.338   1.172   1.276  1.2524  0.5361  0.4389
 7762TIP3   OH247480   0.004   0.188   0.532 -0.2269 -0.5714 -0.0573
 7762TIP3    H147481  -0.027   0.236   0.456 -0.5548 -1.3314 -0.4121
 7762TIP3    H247482  -0.058   0.116   0.542 -0.0071 -0.6597  0.7386
 7763TIP3   OH247483   0.352   0.045   1.801  0.2583  1.1231 -0.0293
 7763TIP3    H147484   0.275   0.031   1.746 -0.3339  2.7572  0.3270
 7763TIP3    H247485   0.393  -0.041   1.808  0.2282  0.7808 -2.8248
 7764TIP3   OH247486   5.242   2.445   1.305  0.2171  0.4486 -0.2043
 7764TIP3    H147487   5.150   2.463   1.289  0.3624  0.6431 -0.8440
 7764TIP3    H247488   5.273   2.521   1.355 -0.2118 -0.1118  0.9539
 7765TIP3   OH247489   0.285   3.066   2.431  0.6013  0.1409  0.1936
 7765TIP3    H147490   0.336   2.986   2.436  0.5895 -0.0165 -1.6220
 7765TIP3    H247491   0.342   3.129   2.387 -0.2903  0.3476 -0.7102
 7766TIP3   OH247492   7.311   3.698   0.993 -0.0517  0.4826 -0.2280
 7766TIP3    H147493   7.336   3.790   0.983  1.5515 -0.1101 -2.4975
 7766TIP3    H247494   7.338   3.675   1.082  0.3791  1.9585  0.0475
 7767TIP3   OH247495   6.116   4.179   8.529  0.0297 -0.1389  0.4953
 7767TIP3    H147496   6.054   4.184   8.456 -0.2395 -1.9643  0.5591
 7767TIP3    H247497   6.062   4.194   8.607 -0.3118 -1.3843  0.5240
 7768TIP3   OH247498   6.467   2.091   0.955  0.4626 -0.3005  0.1002
 7768TIP3    H147499   6.521   2.168   0.936  1.1214 -1.0248 -1.1557
 7768TIP3    H247500   6.451   2.052   0.869 -0.4554 -1.1668  0.6480
 7769TIP3   OH247501   6.304   5.717   7.101 -0.4277 -0.1133  0.0915
 7769TIP3    H147502   6.249   5.796   7.104 -0.9195 -0.2851 -2.4990
 7769TIP3    H247503   6.393   5.750   7.107 -0.6695  0.5370  0.1876
 7770TIP3   OH247504   2.601   2.880   2.170  0.0222  0.5152 -0.2358
 7770TIP3    H147505   2.684   2.837   2.188 -0.6523 -0.4574  0.6925
 7770TIP3    H247506   2.535   2.822   2.208 -1.1515  0.8495 -1.6775
 7771TIP3   OH247507   4.420   3.462   0.833 -0.1976 -0.0432 -0.2834
 7771TIP3    H147508   4.396   3.544   0.877  0.9410  0.5140 -0.6644
 7771TIP3    H247509   4.364   3.396   0.874 -1.5540  1.0058 -0.3637
 7772TIP3   OH247510   1.885   3.558   0.129 -0.1871 -0.0689  0.0406
 7772TIP3    H147511   1.942   3.481   0.135 -0.0674  0.1222  1.5029
 7772TIP3    H247512   1.945   3.632   0.124 -0.3148  0.0229 -0.1779
 7773TIP3   OH247513   3.020   3.383   0.311  0.7279  0.2843  0.0410
 7773TIP3    H147514   3.081   3.331   0.363 -0.9003 -0.6497  1.1390
 7773TIP3    H247515   3.075   3.438   0.256  2.5631  0.8070  2.2498
 7774TIP3   OH247516   0.188   6.989   0.690 -0.0534  0.2508 -0.2725
 7774TIP3    H147517   0.271   6.980   0.642  0.0447 -0.5797  0.0316
 7774TIP3    H247518   0.215   7.000   0.782 -0.2837 -0.3269 -0.1345
 7775TIP3   OH247519   3.834   1.780   0.167  0.1773 -0.0280 -0.5032
 7775TIP3    H147520   3.851   1.687   0.152  0.5797 -0.0763  0.2313
 7775TIP3    H247521   3.918   1.823   0.150  0.0276  0.1909 -0.7036
 7776TIP3   OH247522   4.578   0.340   0.038 -0.1792 -0.7955  0.6480
 7776TIP3    H147523   4.637   0.325  -0.037 -0.0373  1.4032  0.2614
 7776TIP3    H247524   4.514   0.269   0.032 -1.7515  0.6470 -3.1701
 7777TIP3   OH247525   2.051   0.039   9.115 -0.2153  0.2272 -0.0105
 7777TIP3    H147526   1.969  -0.004   9.141 -1.0525  1.4419 -0.5757
 7777TIP3    H247527   2.041   0.057   9.022  1.6314 -1.5935 -0.6333
 7778TIP3   OH247528   1.809   7.087   0.096  0.3715 -0.6346  0.2953
 7778TIP3    H147529   1.847   7.116   0.013  0.5845  0.8726  0.8762
 7778TIP3    H247530   1.874   7.027   0.132  1.0248 -0.0595  0.0962
 7779TIP3   OH247531   0.351   4.632   8.354 -0.1873 -0.2205 -0.0913
 7779TIP3    H147532   0.446   4.635   8.346 -0.0313 -1.8094  0.6920
 7779TIP3    H247533   0.319   4.654   8.267  0.8235  1.8083  0.0013
 7780TIP3   OH247534   1.035   1.831   8.058 -0.6793  0.1727  0.0345
 7780TIP3    H147535   1.089   1.884   8.000 -0.5781  0.1312  0.0906
 7780TIP3    H247536   1.001   1.761   8.002  0.4685 -0.6285  0.3008
 7781TIP3   OH247537   1.597   6.221   8.533 -0.2366  0.5559  0.1202
 7781TIP3    H147538   1.605   6.135   8.492  0.3686  1.0187 -0.7688
 7781TIP3    H247539   1.686   6.240   8.565 -0.3654  0.8515  0.3022
 7782TIP3   OH247540   4.070   2.640   2.740 -0.1266  0.5378  0.1549
 7782TIP3    H147541   4.048   2.602   2.825  0.5236  1.7051  0.8715
 7782TIP3    H247542   3.991   2.685   2.712 -0.6012 -0.5105 -0.2644
 7783TIP3   OH247543   4.924   3.298   0.770  0.1623  0.2795  0.5712
 7783TIP3    H147544   4.890   3.215   0.739 -0.9784 -0.0668  2.5697
 7783TIP3    H247545   4.933   3.352   0.691 -3.6498 -0.1054 -0.3285
 7784TIP3   OH247546   0.386   4.421   7.222 -0.1175  0.1290  0.4005
 7784TIP3    H147547   0.354   4.469   7.298 -2.1468  0.3829 -0.5620
 7784TIP3    H247548   0.455   4.477   7.186  0.5937  0.1853  1.7897
 7785TIP3   OH247549   3.642   2.970   6.945  0.2426  0.1220  0.3892
 7785TIP3    H147550   3.678   3.019   6.871 -0.1450  1.4569  1.0399
 7785TIP3    H247551   3.648   2.878   6.919  0.1406  0.5584 -1.2852
 7786TIP3   OH247552   6.896   4.299   7.149 -0.2821 -0.7881 -0.3981
 7786TIP3    H147553   6.937   4.317   7.064  1.0356  4.7022  1.0251
 7786TIP3    H247554   6.969   4.297   7.211 -1.4918  0.3895  1.1525
 7787TIP3   OH247555   3.680   7.182   7.667 -0.0307 -0.2710  0.4773
 7787TIP3    H147556   3.709   7.269   7.640 -0.9280  0.5370  1.9552
 7787TIP3    H247557   3.755   7.125   7.649  0.2300  0.5907 -1.4353
 7788TIP3   OH247558   0.327   6.106   8.424 -0.3674  0.1656  0.2471
 7788TIP3    H147559   0.362   6.118   8.336 -1.4906 -1.3488 -0.4420
 7788TIP3    H247560   0.361   6.181   8.474  1.5526  0.2042 -1.0508
 7789TIP3   OH247561   6.966   4.029   1.390 -0.0135  0.1988 -0.3196
 7789TIP3    H147562   6.948   4.077   1.471 -2.4652  2.0746 -1.8253
 7789TIP3    H247563   7.060   4.041   1.376 -0.0591  2.2918  0.7669
 7790TIP3   OH247564   4.079   0.110   0.547  1.1167  0.3755 -0.5578
 7790TIP3    H147565   4.078   0.015   0.556  0.2262  0.4250  0.0136
 7790TIP3    H247566   4.124   0.141   0.626  2.7269  0.3873 -1.4388
 7791TIP3   OH247567   6.990   6.125   8.389 -0.0064  0.6368 -0.9120
 7791TIP3    H147568   6.905   6.131   8.432  0.3048  0.0504 -0.1827
 7791TIP3    H247569   7.030   6.210   8.403  0.8915 -0.1236  1.7618
 7792TIP3   OH247570   2.092   4.268   7.006  0.3307 -0.5191  0.1134
 7792TIP3    H147571   1.999   4.245   7.014  0.6514 -1.8587  0.1824
 7792TIP3    H247572   2.097   4.321   6.927 -0.3908 -1.0602 -0.3076
 7793TIP3   OH247573   0.345   4.519   8.626  0.3614 -0.0242 -0.1904
 7793TIP3    H147574   0.302   4.434   8.637  0.5559 -0.1362 -0.2742
 7793TIP3    H247575   0.315   4.550   8.541  0.2215  0.0316 -0.1206
 7794TIP3   OH247576   6.312   5.062   8.216 -0.0917  0.4915  0.1171
 7794TIP3    H147577   6.365   5.142   8.208 -0.7547  1.0467  1.1301
 7794TIP3    H247578   6.225   5.093   8.241 -0.5768 -0.5047 -0.2781
 7795TIP3   OH247579   2.353   1.446   1.605 -0.0239  0.2190  0.0869
 7795TIP3    H147580   2.392   1.428   1.519 -1.8378 -0.9920 -0.5448
 7795TIP3    H247581   2.386   1.376   1.661 -0.9874 -0.6304 -0.3705
 7796TIP3   OH247582   2.118   4.085   2.449  0.2886 -0.1660 -1.0895
 7796TIP3    H147583   2.041   4.143   2.455 -0.8918 -1.7851  0.6432
 7796TIP3    H247584   2.098   4.012   2.508  3.7488 -0.0253  0.5126
 7797TIP3   OH247585   3.172   4.862   0.579  0.5661  0.5539  0.2153
 7797TIP3    H147586   3.120   4.819   0.647 -0.1029 -0.8397 -1.1056
 7797TIP3    H247587   3.111   4.874   0.506  1.5440  0.9363 -0.5633
 7798TIP3   OH247588   7.036   5.557   0.129  0.2517 -0.7086  0.2823
 7798TIP3    H147589   7.087   5.632   0.161 -0.6465  0.5944 -1.2020
 7798TIP3    H247590   7.102   5.490   0.109  1.1870  0.1486  0.4182
 7799TIP3   OH247591   3.381   2.211   2.804  0.0387 -0.0275 -0.2592
 7799TIP3    H147592   3.290   2.226   2.829  0.3313  1.2111  0.1130
 7799TIP3    H247593   3.377   2.199   2.709 -0.5307 -0.1318 -0.2289
 7800TIP3   OH247594   4.625   6.812   1.098  0.1339 -0.3873  0.0215
 7800TIP3    H147595   4.602   6.796   1.190  0.5718  1.2527  0.4399
 7800TIP3    H247596   4.637   6.724   1.061  0.6626 -1.0637  1.7096
 7801TIP3   OH247597   5.748   0.360   0.647 -0.0127  0.2250  0.5266
 7801TIP3    H147598   5.835   0.377   0.682 -0.1916 -0.9570  1.5995
 7801TIP3    H247599   5.688   0.394   0.714 -0.4045  1.7133 -0.5401
 7802TIP3   OH247600   6.761   6.639   1.857  0.5478  0.0422  0.4445
 7802TIP3    H147601   6.771   6.546   1.879 -0.2325 -0.3495 -0.7294
 7802TIP3    H247602   6.836   6.658   1.800  1.6647  0.6211  2.0410
 7803TIP3   OH247603   0.463   4.121   0.064  0.2212 -0.0495  0.1312
 7803TIP3    H147604   0.509   4.053   0.114  0.1414 -0.1452  0.0729
 7803TIP3    H247605   0.443   4.080  -0.020  2.9937  1.0072 -1.1831
 7804TIP3   OH247606   6.921   6.210   9.413 -0.3296  0.0964 -0.3925
 7804TIP3    H147607   6.928   6.302   9.387 -0.6669  0.7820  1.7646
 7804TIP3    H247608   6.827   6.192   9.411 -0.2767 -0.1672 -0.6407
 7805TIP3   OH247609   4.347   2.956   2.883 -0.4162  0.3208  0.5473
 7805TIP3    H147610   4.412   3.026   2.876 -0.6746  0.4172 -2.4620
 7805TIP3    H247611   4.264   3.001   2.896 -0.5875  0.6753 -1.4220
 7806TIP3   OH247612   2.707   5.352   2.222  0.1409 -0.5658 -0.0270
 7806TIP3    H147613   2.699   5.445   2.246  0.5431 -0.8923  1.5157
 7806TIP3    H247614   2.802   5.337   2.217  0.1207 -1.2207  1.2131
 7807TIP3   OH247615   5.770   0.265   0.226  0.2561 -0.3956  0.0942
 7807TIP3    H147616   5.721   0.232   0.151 -0.1596 -2.4509  1.2194
 7807TIP3    H247617   5.706   0.313   0.278 -0.3063 -1.9565  0.8877
 7808TIP3   OH247618   3.201   5.796   7.463 -1.1805 -0.2339  0.3242
 7808TIP3    H147619   3.150   5.756   7.534 -1.1672  1.1392  1.1518
 7808TIP3    H247620   3.283   5.746   7.461 -1.7725 -1.2283  0.2728
 7809TIP3   OH247621   6.830   3.207   9.136  0.0846 -0.0553 -0.1117
 7809TIP3    H147622   6.762   3.268   9.108 -0.3363  0.1581  1.2715
 7809TIP3    H247623   6.790   3.158   9.208  0.7850 -1.2277 -0.4868
 7810TIP3   OH247624   6.513   2.025   8.159  0.0985 -0.3155 -0.0394
 7810TIP3    H147625   6.448   1.964   8.193  1.5974 -1.2392  1.3596
 7810TIP3    H247626   6.491   2.035   8.067 -0.8429 -2.1474 -0.0664
 7811TIP3   OH247627   5.373   1.289   1.137 -0.0605  0.2750 -0.3291
 7811TIP3    H147628   5.372   1.262   1.046 -0.4262 -0.1839 -0.1909
 7811TIP3    H247629   5.447   1.240   1.175 -0.9536 -0.8582  0.0093
 7812TIP3   OH247630   1.773   5.949   2.077 -0.3322 -0.1676  0.4749
 7812TIP3    H147631   1.788   5.889   2.004 -0.6822 -0.7233  0.8516
 7812TIP3    H247632   1.700   5.911   2.126 -0.5303  0.5432  0.7499
 7813TIP3   OH247633   4.793   3.438   6.882 -0.0627  0.5492  0.1359
 7813TIP3    H147634   4.824   3.410   6.796 -1.6267  0.6205 -0.4865
 7813TIP3    H247635   4.737   3.366   6.912  1.2084  0.0930  1.5540
 7814TIP3   OH247636   5.287   0.003   1.389  0.1358 -0.3594  0.2702
 7814TIP3    H147637   5.316  -0.027   1.302  0.0892 -0.0890  0.1602
 7814TIP3    H247638   5.329   0.088   1.399  1.5576 -1.1322  1.2456
 7815TIP3   OH247639   1.330   3.160   8.641 -0.1202  0.7999 -0.3764
 7815TIP3    H147640   1.355   3.068   8.633 -4.3904 -0.5896 -0.0490
 7815TIP3    H247641   1.391   3.196   8.706  2.0884 -1.5547 -0.9991
 7816TIP3   OH247642   1.394   5.665   7.822  0.4395 -0.1422  0.1129
 7816TIP3    H147643   1.316   5.707   7.786  0.6938 -1.2730 -1.8925
 7816TIP3    H247644   1.427   5.610   7.751  0.7770 -2.8289  2.2124
 7817TIP3   OH247645   6.079   7.211   8.903 -0.0174  0.5263  0.3961
 7817TIP3    H147646   5.990   7.224   8.870  0.0905  2.3573  0.7566
 7817TIP3    H247647   6.091   7.279   8.969  1.9848  0.9336 -0.3167
 7818TIP3   OH247648   2.982   5.845   0.256 -0.2936  0.3787 -0.6656
 7818TIP3    H147649   2.954   5.869   0.344  1.0241 -0.8521  0.1209
 7818TIP3    H247650   3.059   5.898   0.239  0.4446 -0.5622 -0.3787
 7819TIP3   OH247651   4.630   1.466   8.861  0.1188  0.3792 -0.3318
 7819TIP3    H147652   4.535   1.462   8.866  0.0927 -0.1176 -1.0346
 7819TIP3    H247653   4.659   1.474   8.952 -0.5385 -1.1108  0.0464
 7820TIP3   OH247654   6.886   1.630   1.013 -0.2459 -0.0915  0.7158
 7820TIP3    H147655   6.959   1.662   0.958 -1.0697  1.5686  0.5240
 7820TIP3    H247656   6.923   1.625   1.101  0.3312 -0.1319  0.4809
 7821TIP3   OH247657   3.165   7.342   6.928 -0.4310  0.3037 -0.0915
 7821TIP3    H147658   3.161   7.249   6.904  0.9249 -0.2495  1.5993
 7821TIP3    H247659   3.075   7.363   6.954 -1.0122 -0.1760 -1.5922
 7822TIP3   OH247660   7.261   3.903   9.442 -0.1711  0.0329  0.3297
 7822TIP3    H147661   7.264   3.886   9.536  0.6312  1.1733  0.5273
 7822TIP3    H247662   7.204   3.979   9.433 -1.7379 -1.1578 -0.3097
 7823TIP3   OH247663   3.515   7.219   0.951  0.5587  0.5822 -0.0644
 7823TIP3    H147664   3.581   7.163   0.908  1.5952 -0.3008  2.4891
 7823TIP3    H247665   3.434   7.169   0.945  0.9528 -0.0854  0.0585
 7824TIP3   OH247666   4.594   2.468   2.063  0.0762  0.1957 -0.0509
 7824TIP3    H147667   4.503   2.479   2.036  0.2926 -2.0972 -1.9960
 7824TIP3    H247668   4.592   2.482   2.158 -2.4080 -0.3839  0.0507
 7825TIP3   OH247669   1.163   3.589   0.995  0.1228  0.3693 -0.6086
 7825TIP3    H147670   1.169   3.679   1.026 -0.9205 -0.1217  1.1730
 7825TIP3    H247671   1.161   3.536   1.075 -0.8993 -1.1127 -1.5555
 7826TIP3   OH247672   6.432   2.414   8.165 -0.6668 -0.4848 -0.0833
 7826TIP3    H147673   6.438   2.339   8.223 -0.4389 -0.4608 -0.0732
 7826TIP3    H247674   6.444   2.490   8.223 -1.0575 -0.4327 -0.0684
 7827TIP3   OH247675   2.129   2.712   2.540 -0.5165  0.2942  0.5729
 7827TIP3    H147676   2.081   2.698   2.622 -1.4727 -0.2761 -0.0584
 7827TIP3    H247677   2.189   2.784   2.559 -1.8623  1.2709  1.2940
 7828TIP3   OH247678   6.208   1.536   7.462 -0.0623 -0.0556 -0.3126
 7828TIP3    H147679   6.116   1.560   7.457  0.3760  1.6451 -0.8223
 7828TIP3    H247680   6.234   1.557   7.551 -0.1026 -0.2717 -0.2503
 7829TIP3   OH247681   0.804   1.215   9.308 -0.5407  0.5439 -0.4620
 7829TIP3    H147682   0.811   1.258   9.394 -0.9043  0.0425 -0.1745
 7829TIP3    H247683   0.748   1.139   9.324 -0.7044  0.5083 -1.1706
 7830TIP3   OH247684   3.798   5.234   2.119  0.0615  0.0105 -0.4254
 7830TIP3    H147685   3.838   5.286   2.189 -1.1179 -1.0009  1.0421
 7830TIP3    H247686   3.860   5.163   2.104 -0.7382 -1.1102  1.2927
 7831TIP3   OH247687   3.507   3.410   1.596 -0.6537  0.3556 -0.4441
 7831TIP3    H147688   3.595   3.425   1.562 -1.3158  4.4233 -0.8306
 7831TIP3    H247689   3.521   3.373   1.683  1.5656  2.3368  0.1496
 7832TIP3   OH247690   7.012   6.699   8.099 -0.0676 -0.4640  0.2728
 7832TIP3    H147691   7.021   6.794   8.094 -1.4894 -0.3044  0.1909
 7832TIP3    H247692   6.952   6.684   8.172 -0.9725 -1.1966 -0.5773
 7833TIP3   OH247693   4.533   7.371   0.085 -0.2810  0.3462 -0.3934
 7833TIP3    H147694   4.463   7.315   0.119  1.0892 -1.0757  0.2141
 7833TIP3    H247695   4.530   7.359  -0.010 -1.2284  0.7718 -0.4249
 7834TIP3   OH247696   3.173   5.411   2.034 -0.6387 -0.6857 -0.1984
 7834TIP3    H147697   3.181   5.492   1.983  0.2723  0.9642  2.4017
 7834TIP3    H247698   3.262   5.390   2.060 -0.9700 -2.1016 -0.1014
 7835TIP3   OH247699   5.526   0.204   2.525 -0.0153 -0.0541  0.6025
 7835TIP3    H147700   5.538   0.115   2.558  0.6404 -0.6788 -1.1516
 7835TIP3    H247701   5.587   0.257   2.576  1.7349 -1.1616 -0.2199
 7836TIP3   OH247702   6.856   1.045   2.694 -0.8304 -0.6044 -0.3140
 7836TIP3    H147703   6.844   1.138   2.672 -1.0455 -0.5965 -0.1746
 7836TIP3    H247704   6.766   1.012   2.704 -0.8318 -1.2553 -2.1028
 7837TIP3   OH247705   0.210   7.362   0.670 -0.2425 -0.0345 -0.0122
 7837TIP3    H147706   0.247   7.275   0.682 -1.7570 -0.4959  1.6530
 7837TIP3    H247707   0.119   7.355   0.699 -0.4255  2.0782  0.1210
 7838TIP3   OH247708   0.165   3.645   8.139  0.0540 -0.3993  0.1457
 7838TIP3    H147709   0.222   3.580   8.097 -0.2848 -0.1975 -0.6381
 7838TIP3    H247710   0.131   3.697   8.067  0.8849  1.1324  0.8020
 7839TIP3   OH247711   0.636   3.731   3.017 -0.4810 -0.1857  0.5179
 7839TIP3    H147712   0.670   3.820   3.022  0.3451 -0.4488 -0.1113
 7839TIP3    H247713   0.704   3.677   3.057 -0.0554 -0.7372 -0.8888
 7840TIP3   OH247714   0.783   2.854   8.816 -0.1641 -0.4393  0.3739
 7840TIP3    H147715   0.857   2.796   8.835  1.9370  1.5945 -1.0636
 7840TIP3    H247716   0.733   2.809   8.749  0.5398 -1.2536  0.3832
 7841TIP3   OH247717   2.460   6.691   1.372  0.2600  0.3472 -0.2782
 7841TIP3    H147718   2.503   6.769   1.407  0.1021  0.5319 -0.4969
 7841TIP3    H247719   2.366   6.708   1.382  0.2250  0.1774 -0.3067
 7842TIP3   OH247720   7.098   5.024   1.428 -0.2465  0.0243 -0.0441
 7842TIP3    H147721   7.093   5.023   1.524 -1.5330 -3.1884 -0.0437
 7842TIP3    H247722   7.180   4.978   1.409 -0.2779  0.1657 -0.5177
 7843TIP3   OH247723   3.410   5.592   0.280  0.1037 -0.3295 -0.9997
 7843TIP3    H147724   3.403   5.623   0.190  2.0470 -0.0191 -1.0908
 7843TIP3    H247725   3.502   5.566   0.289  0.0629  0.0804  1.0286
 7844TIP3   OH247726   2.175   1.424   7.563 -0.2572  1.1257 -0.3606
 7844TIP3    H147727   2.224   1.349   7.529  0.8375  2.0039 -0.7864
 7844TIP3    H247728   2.126   1.457   7.488  0.7525  1.9656 -0.6828
 7845TIP3   OH247729   0.333   3.756   2.376 -0.4320  0.0364  0.1593
 7845TIP3    H147730   0.324   3.852   2.374  0.5527  0.1482  0.2477
 7845TIP3    H247731   0.253   3.723   2.336 -0.2221  0.9415 -1.0712
 7846TIP3   OH247732   0.402   3.850   2.043  0.2160 -0.9236  0.0396
 7846TIP3    H147733   0.345   3.901   2.101  0.0359 -0.5522 -0.4540
 7846TIP3    H247734   0.357   3.765   2.034 -0.7670 -0.3151 -1.0889
 7847TIP3   OH247735   1.255   2.343   2.676  0.3530  0.4556  0.2162
 7847TIP3    H147736   1.175   2.313   2.720  1.0873  2.8126  3.4735
 7847TIP3    H247737   1.231   2.429   2.642  1.2680  0.8142  0.4775
 7848TIP3   OH247738   2.282   2.628   1.590 -0.3549 -0.0388 -0.4861
 7848TIP3    H147739   2.335   2.558   1.554  0.9747  0.4674  0.3896
 7848TIP3    H247740   2.273   2.691   1.519  0.6369  0.0772 -0.5305
 7849TIP3   OH247741   2.004   0.394   1.179 -0.1680  0.5513  0.0929
 7849TIP3    H147742   1.969   0.431   1.260  0.1180 -0.7247  0.8208
 7849TIP3    H247743   1.927   0.376   1.125 -0.3905  0.9222  0.2835
 7850TIP3   OH247744   6.157   4.706   0.903  0.8714  0.2335  0.1638
 7850TIP3    H147745   6.130   4.636   0.844  1.4641 -1.0435  1.3539
 7850TIP3    H247746   6.178   4.779   0.846 -2.9144  0.6291 -0.9978
 7851TIP3   OH247747   3.421   5.437   1.346  0.6232 -0.1560 -0.3463
 7851TIP3    H147748   3.359   5.426   1.418  0.6965 -0.6905 -0.3645
 7851TIP3    H247749   3.465   5.521   1.365  1.7381 -1.0117  1.0715
 7852TIP3   OH247750   1.230   3.091   6.799 -0.1832  0.1024 -0.6797
 7852TIP3    H147751   1.173   3.090   6.876  0.9893 -2.3344  0.2711
 7852TIP3    H247752   1.178   3.049   6.730 -0.8328  1.2768 -0.9266
 7853TIP3   OH247753   1.217   2.782   0.083 -0.5999 -0.2997  0.0256
 7853TIP3    H147754   1.291   2.820   0.130 -0.3687  0.3355 -0.8166
 7853TIP3    H247755   1.166   2.858   0.054 -1.0695 -0.6973 -0.2028
 7854TIP3   OH247756   1.166   2.593   1.885 -0.3401  0.5545 -0.2227
 7854TIP3    H147757   1.237   2.642   1.844  0.5561 -0.1925  0.4061
 7854TIP3    H247758   1.120   2.658   1.939  1.4316  0.5253  1.3796
 7855TIP3   OH247759   7.084   0.887   9.582  0.1402  0.0999  0.4848
 7855TIP3    H147760   7.057   0.975   9.555 -0.7150  0.0392  1.1039
 7855TIP3    H247761   7.087   0.891   9.677  2.8344  0.2263  0.4827
 7856TIP3   OH247762   1.559   1.417   8.614  0.6198 -0.2642  0.0591
 7856TIP3    H147763   1.573   1.345   8.676  1.4468 -0.7631 -0.6928
 7856TIP3    H247764   1.533   1.375   8.533  0.5827  0.3172 -0.2342
 7857TIP3   OH247765   5.313   5.556   1.052 -0.0601 -0.0614 -0.1089
 7857TIP3    H147766   5.225   5.561   1.013 -1.2620 -2.2581  2.0206
 7857TIP3    H247767   5.350   5.643   1.039 -2.9743  1.2965 -0.1826
 7858TIP3   OH247768   0.886   6.660   8.470 -0.6032 -0.0881  0.3511
 7858TIP3    H147769   0.807   6.626   8.427 -1.2047  0.3652  1.0790
 7858TIP3    H247770   0.931   6.710   8.402 -0.6726 -0.7754 -0.2102
 7859TIP3   OH247771   0.038   3.605   0.743 -0.1080  0.3042 -0.3354
 7859TIP3    H147772   0.120   3.652   0.754  0.0612 -0.2351  0.8555
 7859TIP3    H247773  -0.016   3.634   0.816 -0.1825 -0.9585  0.1333
 7860TIP3   OH247774   0.627   2.626   1.184  0.0002 -0.0182  0.0882
 7860TIP3    H147775   0.652   2.708   1.140 -0.4506 -0.4879 -1.0905
 7860TIP3    H247776   0.680   2.625   1.264  0.1735  1.3140  0.0153
 7861TIP3   OH247777   5.488   3.335   7.418  0.0297 -0.6128 -0.4088
 7861TIP3    H147778   5.500   3.242   7.439  0.8425 -0.4347 -0.0279
 7861TIP3    H247779   5.567   3.377   7.453 -0.1859  0.1754 -0.8589
 7862TIP3   OH247780   2.620   0.026   2.834 -0.4129  0.3525 -0.4361
 7862TIP3    H147781   2.683   0.086   2.795 -1.0547  1.0219 -0.4720
 7862TIP3    H247782   2.665  -0.011   2.909  0.0455  0.7853 -0.4922
 7863TIP3   OH247783   7.386   2.128   6.573  0.6108 -0.3330  0.5512
 7863TIP3    H147784   7.454   2.102   6.511 -1.7740 -0.3895 -2.2360
 7863TIP3    H247785   7.334   2.049   6.586 -0.6082  0.4097  0.3070
 7864TIP3   OH247786   6.174   2.800   8.252  0.4488  0.4235  0.2368
 7864TIP3    H147787   6.104   2.775   8.312  0.6030 -1.2415 -0.2413
 7864TIP3    H247788   6.139   2.782   8.165  1.2135  0.2485 -0.0414
 7865TIP3   OH247789   3.853   4.508   6.648 -0.0477 -0.7711 -0.4073
 7865TIP3    H147790   3.919   4.578   6.653  0.1075 -0.8715 -0.9803
 7865TIP3    H247791   3.893   4.440   6.594 -0.2251 -1.2811  0.0923
 7866TIP3   OH247792   1.504   6.384   9.503  0.3854  0.5189  0.7774
 7866TIP3    H147793   1.463   6.325   9.566 -0.2082  1.1457  0.9953
 7866TIP3    H247794   1.511   6.333   9.422 -1.4340  0.5644  0.5396
 7867TIP3   OH247795   1.223   6.189   9.011  0.2314  0.5307 -0.3835
 7867TIP3    H147796   1.307   6.194   8.965  0.6988 -0.2880  0.3468
 7867TIP3    H247797   1.216   6.273   9.057  1.8319 -0.2802  1.4869
 7868TIP3   OH247798   1.251   3.261   8.014 -0.1962  0.0310 -0.0428
 7868TIP3    H147799   1.275   3.175   8.049  1.0253  0.2639 -0.2427
 7868TIP3    H247800   1.328   3.289   7.965 -0.9392  0.8215 -0.7972
 7869TIP3   OH247801   0.780   5.687   1.152  0.2184  0.9874  0.2241
 7869TIP3    H147802   0.859   5.696   1.205  0.4230  0.8335 -0.0542
 7869TIP3    H247803   0.758   5.594   1.158  0.7748  0.7750 -0.7097
 7870TIP3   OH247804   2.898   5.889   0.506  0.3984  0.0761 -0.3145
 7870TIP3    H147805   2.839   5.844   0.566  0.3532  1.0031  0.3465
 7870TIP3    H247806   2.895   5.981   0.533  1.5226  0.2628 -0.7939
 7871TIP3   OH247807   3.554   1.766   8.912  0.7988  0.2008  0.2562
 7871TIP3    H147808   3.504   1.723   8.982  2.0702 -0.4315  0.7963
 7871TIP3    H247809   3.533   1.859   8.921  0.1760  0.0091  0.8398
 7872TIP3   OH247810   1.544   4.033   9.506 -0.1615  0.2667 -0.5907
 7872TIP3    H147811   1.553   4.015   9.412  0.9843  2.7409 -1.0391
 7872TIP3    H247812   1.605   3.972   9.547  0.9139  0.5873 -1.6478
 7873TIP3   OH247813   1.738   3.651   1.450 -0.7552 -0.4204  0.7398
 7873TIP3    H147814   1.725   3.566   1.408 -1.3498  0.6156 -1.2993
 7873TIP3    H247815   1.651   3.692   1.450 -0.2544  0.6963  0.4821
 7874TIP3   OH247816   5.842   4.708   9.100  0.0128 -0.5722  0.0305
 7874TIP3    H147817   5.762   4.705   9.048 -0.2273 -2.1236  0.4327
 7874TIP3    H247818   5.819   4.666   9.183  0.8453  0.3281  0.7377
 7875TIP3   OH247819   4.612   0.758   7.779  0.4314  0.1791  0.2147
 7875TIP3    H147820   4.542   0.822   7.790 -0.5594 -0.9481  0.6736
 7875TIP3    H247821   4.691   0.803   7.809 -0.6750  0.2704  3.3096
 7876TIP3   OH247822   6.153   4.785   6.898 -0.0330 -0.3092  0.7059
 7876TIP3    H147823   6.189   4.712   6.847 -0.6911  0.5389 -1.0749
 7876TIP3    H247824   6.200   4.862   6.864 -1.5116  0.4585  0.3331
 7877TIP3   OH247825   4.264   0.639   0.848  0.3192  0.2209 -0.2217
 7877TIP3    H147826   4.316   0.690   0.786 -0.1003 -0.2762 -0.9958
 7877TIP3    H247827   4.322   0.569   0.877  0.1842 -0.1451 -0.8378
 7878TIP3   OH247828   0.552   6.785   8.619  0.0183  0.0397 -0.6253
 7878TIP3    H147829   0.581   6.710   8.671 -1.0952  1.3520  2.0926
 7878TIP3    H247830   0.633   6.832   8.598  0.5919 -1.1212 -1.0957
 7879TIP3   OH247831   1.886   4.511   6.891 -0.2688  0.1179  0.6785
 7879TIP3    H147832   1.868   4.431   6.842 -0.8520  1.6464 -1.7847
 7879TIP3    H247833   1.980   4.526   6.882 -0.4151  0.5318 -0.2632
 7880TIP3   OH247834   1.488   5.059   7.863 -0.1815  0.1716  0.4455
 7880TIP3    H147835   1.445   5.127   7.811 -1.1436  0.1951  1.2510
 7880TIP3    H247836   1.581   5.083   7.862 -0.4146  1.0874  0.1223
 7881TIP3   OH247837   4.917   5.053   7.188  0.1452  0.3570 -0.3443
 7881TIP3    H147838   4.824   5.059   7.208 -0.0805 -0.4432 -1.0644
 7881TIP3    H247839   4.958   5.025   7.270 -0.1670  1.2223  0.1148
 7882TIP3   OH247840   6.032   4.906   0.588  0.3742 -0.0409 -0.0220
 7882TIP3    H147841   6.016   4.942   0.675 -0.5976 -2.3279  0.8239
 7882TIP3    H247842   6.097   4.965   0.549  1.7407  0.4030  2.6861
 7883TIP3   OH247843   3.179   4.148   1.634  0.2429  0.4915 -0.6536
 7883TIP3    H147844   3.116   4.216   1.656 -0.3235  0.8184 -2.9943
 7883TIP3    H247845   3.263   4.182   1.665 -0.5092  0.5823  1.4314
 7884TIP3   OH247846   1.883   6.979   2.824 -0.3560 -0.6277  0.3581
 7884TIP3    H147847   1.895   6.936   2.739  0.3345  0.2546  0.0015
 7884TIP3    H247848   1.971   6.992   2.858 -0.5283  0.7335  0.3408
 7885TIP3   OH247849   2.152   3.476   2.023  0.0208 -0.5291 -0.5752
 7885TIP3    H147850   2.092   3.550   2.013  1.1400  0.4787 -0.0213
 7885TIP3    H247851   2.126   3.415   1.953 -0.7724  0.4789 -1.1899
 7886TIP3   OH247852   1.947   4.225   7.925 -0.2600  0.1674  0.3788
 7886TIP3    H147853   1.950   4.298   7.987 -0.5562 -0.4583  1.1443
 7886TIP3    H247854   1.924   4.149   7.979 -1.3148 -0.2462 -0.6104
 7887TIP3   OH247855   3.401   4.766   9.593  0.2077  0.5781 -0.2042
 7887TIP3    H147856   3.474   4.706   9.611 -0.4371  0.1220  0.9852
 7887TIP3    H247857   3.441   4.837   9.542  1.7824  1.0502  1.5900
 7888TIP3   OH247858   2.318   0.842   7.343 -0.5112  0.3154 -0.3452
 7888TIP3    H147859   2.334   0.793   7.261 -0.6364 -0.4450  0.0741
 7888TIP3    H247860   2.369   0.794   7.409 -0.8786  0.5802  0.1318
 7889TIP3   OH247861   5.468   4.891   0.489  0.2972 -0.2694 -0.3813
 7889TIP3    H147862   5.539   4.827   0.490  1.3945  0.8721 -1.2014
 7889TIP3    H247863   5.392   4.842   0.458  0.3693 -1.8225  1.7091
 7890TIP3   OH247864   2.562   0.989   7.430 -0.4858  0.4248  0.2289
 7890TIP3    H147865   2.475   1.010   7.464 -0.7926 -0.8728  0.2940
 7890TIP3    H247866   2.546   0.965   7.338 -0.0341  1.2833 -0.0798
 7891TIP3   OH247867   3.466   2.436   0.239 -0.6627 -0.4962  0.5754
 7891TIP3    H147868   3.492   2.524   0.269  0.0632 -0.4282 -0.2167
 7891TIP3    H247869   3.387   2.451   0.188  0.0439 -0.1423 -0.4476
 7892TIP3   OH247870   1.427   4.816   9.164 -0.1961 -0.6279  0.4809
 7892TIP3    H147871   1.369   4.861   9.225  0.7882  0.0751  0.9264
 7892TIP3    H247872   1.449   4.733   9.208 -0.2426 -0.5478  0.6543
 7893TIP3   OH247873   6.344   5.916   0.603  0.1850 -0.2787 -0.5807
 7893TIP3    H147874   6.338   5.877   0.516 -1.1937 -0.4466 -0.4357
 7893TIP3    H247875   6.278   5.985   0.603  2.3308  1.9051 -0.7079
 7894TIP3   OH247876   3.085   2.065   0.821 -0.3832 -0.1003  0.5571
 7894TIP3    H147877   3.089   1.972   0.798 -0.5741 -0.3641  1.5224
 7894TIP3    H247878   3.136   2.109   0.754 -0.3809 -0.8930  0.0234
 7895TIP3   OH247879   4.498   5.911   2.129 -0.0363 -0.1679  0.0549
 7895TIP3    H147880   4.542   5.994   2.145  2.3388 -1.3253 -0.0323
 7895TIP3    H247881   4.511   5.861   2.209 -0.4507 -0.8756 -0.3066
 7896TIP3   OH247882   6.884   5.757   8.421 -0.9702 -0.3559  0.1773
 7896TIP3    H147883   6.881   5.835   8.365  0.0715 -0.7618 -0.4814
 7896TIP3    H247884   6.954   5.775   8.484  1.5221 -1.9281 -1.9094
 7897TIP3   OH247885   5.718   0.552   7.783  0.1959 -0.5660  0.8621
 7897TIP3    H147886   5.750   0.493   7.715 -4.4946 -0.1528 -2.1877
 7897TIP3    H247887   5.740   0.639   7.752 -1.5950 -0.3948 -0.0537
 7898TIP3   OH247888   0.737   2.781   7.534 -0.3132  0.3708  0.1648
 7898TIP3    H147889   0.713   2.850   7.472 -0.2927  2.8226  2.6631
 7898TIP3    H247890   0.653   2.750   7.568 -0.3725 -1.6065 -1.5861
 7899TIP3   OH247891   6.879   2.901   9.240  0.2745  0.7163  0.2953
 7899TIP3    H147892   6.831   2.822   9.263 -3.2235  2.1019 -1.5257
 7899TIP3    H247893   6.949   2.907   9.305 -0.2880 -2.9665  1.4425
 7900TIP3   OH247894   6.901   3.507   3.000  0.3059  0.4479 -0.9188
 7900TIP3    H147895   6.807   3.521   3.011  0.2071  0.6354 -1.8579
 7900TIP3    H247896   6.908   3.449   2.924  0.9125 -0.6676 -0.0393
 7901TIP3   OH247897   0.426   6.267   7.834  0.2469 -0.0699 -0.2027
 7901TIP3    H147898   0.489   6.248   7.764 -0.0794 -0.9440 -0.2685
 7901TIP3    H247899   0.468   6.235   7.913  1.1975  2.0939  0.2605
 7902TIP3   OH247900   4.495   6.441   0.207 -0.3382  0.0315 -0.0725
 7902TIP3    H147901   4.443   6.517   0.230 -3.6380 -2.3025  0.9303
 7902TIP3    H247902   4.435   6.385   0.158  1.7536 -2.1866 -0.3141
 7903TIP3   OH247903   5.091   4.375   9.266  0.2415  0.2402  0.4460
 7903TIP3    H147904   5.063   4.310   9.330  1.7229 -1.6437 -0.7264
 7903TIP3    H247905   5.084   4.332   9.181 -1.1520  2.4977 -0.6963
 7904TIP3   OH247906   0.392   0.475   1.216  0.8298  0.1887  0.3163
 7904TIP3    H147907   0.390   0.542   1.148 -0.9985  1.6348  1.7059
 7904TIP3    H247908   0.317   0.419   1.196  1.5187 -0.6503 -0.0099
 7905TIP3   OH247909   5.241   6.469   7.225  0.4304 -0.6949  0.3003
 7905TIP3    H147910   5.199   6.434   7.147 -0.1399 -0.4351  0.4817
 7905TIP3    H247911   5.280   6.392   7.268  2.6443 -0.5657 -1.3333
 7906TIP3   OH247912   1.441   7.105   9.214 -0.2934  0.0223  0.2440
 7906TIP3    H147913   1.457   7.069   9.127  0.3353  0.3418  0.2216
 7906TIP3    H247914   1.400   7.189   9.198  0.2142  0.2742  0.2386
 7907TIP3   OH247915   3.611   1.919   9.212 -0.0774 -0.6986  0.1974
 7907TIP3    H147916   3.556   1.996   9.199  0.3115 -0.0261  2.1959
 7907TIP3    H247917   3.672   1.921   9.138  0.2574  1.2294  0.4753
 7908TIP3   OH247918   1.581   3.166   2.095 -0.3737  0.6089 -0.3318
 7908TIP3    H147919   1.647   3.236   2.098  1.0533 -0.7131  0.8755
 7908TIP3    H247920   1.608   3.105   2.163 -1.9656 -0.8085 -0.9011
 7909TIP3   OH247921   5.900   2.406   7.699 -0.1835 -0.5526  0.0288
 7909TIP3    H147922   5.958   2.390   7.625  0.6111 -1.6793  0.8588
 7909TIP3    H247923   5.884   2.500   7.697  0.5503 -0.4319 -1.0293
 7910TIP3   OH247924   4.397   2.243   1.345  0.1572  0.4623 -0.2266
 7910TIP3    H147925   4.329   2.177   1.333  0.6334 -0.1806  0.5057
 7910TIP3    H247926   4.380   2.308   1.277 -0.2342 -0.4895 -1.0664
 7911TIP3   OH247927   7.254   0.570   7.995  0.0418  0.3412  0.5040
 7911TIP3    H147928   7.330   0.587   7.939  0.3561 -1.6017  0.2766
 7911TIP3    H247929   7.194   0.641   7.976  1.8448  2.0292  0.7958
 7912TIP3   OH247930   4.957   4.074   8.573  0.0147 -0.3087  0.3657
 7912TIP3    H147931   5.051   4.085   8.585  0.0466 -1.1566  1.0130
 7912TIP3    H247932   4.938   3.990   8.615 -1.1279  0.1392  0.7677
 7913TIP3   OH247933   4.512   4.469   0.754 -0.5715 -0.0565  0.5329
 7913TIP3    H147934   4.449   4.443   0.686 -0.3807  0.0375  0.3179
 7913TIP3    H247935   4.499   4.563   0.765 -1.5308 -0.3003  1.5904
 7914TIP3   OH247936   4.760   0.298   1.209 -0.8489  0.5475  0.5541
 7914TIP3    H147937   4.777   0.234   1.279  1.3154  1.1085  0.6240
 7914TIP3    H247938   4.683   0.264   1.163 -0.0931 -1.8333  0.9174
 7915TIP3   OH247939   6.208   2.864   0.252  0.8310  0.4712  0.2508
 7915TIP3    H147940   6.118   2.843   0.227  0.6029  0.5074  1.0121
 7915TIP3    H247941   6.202   2.947   0.298  1.2992  0.6269  0.0422
 7916TIP3   OH247942   5.814   4.195   1.305 -0.3497 -0.3633 -0.6268
 7916TIP3    H147943   5.870   4.242   1.243  1.1865  0.0817  1.0032
 7916TIP3    H247944   5.870   4.124   1.337 -0.3727  0.5712  1.6561
 7917TIP3   OH247945   3.336   2.969   8.394 -0.3789 -0.3609 -0.2472
 7917TIP3    H147946   3.329   3.041   8.457 -2.7359 -0.2695 -0.5349
 7917TIP3    H247947   3.410   2.917   8.426 -1.0533  0.0408  2.2251
 7918TIP3   OH247948   3.954   2.499   1.839  0.4682  0.5360  0.0169
 7918TIP3    H147949   3.920   2.429   1.783  0.6592 -1.1659  1.9086
 7918TIP3    H247950   4.039   2.521   1.801  0.8003 -0.9025 -0.1211
 7919TIP3   OH247951   4.138   1.675   7.717 -0.0990  0.0005  0.2078
 7919TIP3    H147952   4.055   1.670   7.670 -0.1490 -0.5895  0.3508
 7919TIP3    H247953   4.200   1.712   7.653 -0.0768 -1.1309 -0.4515
 7920TIP3   OH247954   5.345   2.707   8.379  0.2177 -0.0130 -0.1250
 7920TIP3    H147955   5.406   2.638   8.407  1.6663  0.4367 -1.9520
 7920TIP3    H247956   5.259   2.666   8.384  0.9515 -1.6508 -0.2189
 7921TIP3   OH247957   6.235   6.027   8.172  0.1053  0.0303  0.2077
 7921TIP3    H147958   6.146   6.062   8.164  0.0380 -0.2475 -0.3145
 7921TIP3    H247959   6.289   6.084   8.118  0.5149  1.0739  1.6518
 7922TIP3   OH247960   4.813   7.059   1.181 -0.4096 -0.0763 -0.4134
 7922TIP3    H147961   4.791   6.967   1.171  3.4064 -1.3493  1.1255
 7922TIP3    H247962   4.854   7.083   1.098  1.0238 -0.6317  0.1081
 7923TIP3   OH247963   4.758   0.923   0.219 -0.4414 -0.2157 -0.1663
 7923TIP3    H147964   4.838   0.935   0.269 -1.3300  1.0218  1.0164
 7923TIP3    H247965   4.690   0.967   0.270 -1.4878  0.7141 -2.2414
 7924TIP3   OH247966   4.130   3.325   0.367  0.5345 -0.1069  0.5148
 7924TIP3    H147967   4.036   3.322   0.387  0.3856 -0.0676 -0.1608
 7924TIP3    H247968   4.163   3.400   0.416 -0.2692  1.4155 -1.1495
 7925TIP3   OH247969   4.799   2.420   7.481  0.4532  0.1736 -0.0089
 7925TIP3    H147970   4.781   2.504   7.438  1.1568  1.2709  1.7154
 7925TIP3    H247971   4.749   2.424   7.563 -0.0655 -1.4148 -0.2154
 7926TIP3   OH247972   0.551   4.061   0.550 -0.4210  0.1912  0.1570
 7926TIP3    H147973   0.572   3.993   0.613  1.9666  2.8082  2.4633
 7926TIP3    H247974   0.577   4.026   0.465  0.0337 -1.9762  1.1458
 7927TIP3   OH247975   3.293   4.675   7.500 -0.3531  0.3050 -0.5188
 7927TIP3    H147976   3.385   4.650   7.497 -0.1845  0.7296  0.6951
 7927TIP3    H247977   3.291   4.756   7.550 -1.4974 -0.2282  0.3501
 7928TIP3   OH247978   6.364   4.585   8.260  0.2306  0.3319 -0.2910
 7928TIP3    H147979   6.398   4.512   8.209  2.8338  0.1191  1.5278
 7928TIP3    H247980   6.364   4.553   8.351 -1.5545  1.5943  0.2205
 7929TIP3   OH247981   0.513   4.576   0.284  0.1839 -0.7221  0.1731
 7929TIP3    H147982   0.456   4.516   0.333 -1.0228 -0.9058 -1.3715
 7929TIP3    H247983   0.474   4.579   0.196  2.4082 -0.5993 -0.8643
 7930TIP3   OH247984   0.980   0.129   8.688  0.0272 -0.2468 -0.2728
 7930TIP3    H147985   0.959   0.223   8.685  0.5642 -0.1530 -1.0232
 7930TIP3    H247986   0.998   0.113   8.781  1.0931  0.6518 -0.2946
 7931TIP3   OH247987   1.354   7.239   6.987 -0.0367  0.2014 -0.0743
 7931TIP3    H147988   1.371   7.312   7.048  0.2081 -0.2413  0.3954
 7931TIP3    H247989   1.423   7.176   7.007 -0.3153 -0.2068 -0.4086
 7932TIP3   OH247990   4.985   6.036   8.952  0.0377 -0.1682 -0.4312
 7932TIP3    H147991   5.011   5.946   8.973 -0.1707 -0.2577 -0.5610
 7932TIP3    H247992   5.039   6.059   8.877  1.1172  0.3101  0.4526
 7933TIP3   OH247993   3.689   2.110   8.158 -0.2003  0.0559  0.5393
 7933TIP3    H147994   3.627   2.183   8.147  0.1320  0.1583 -0.8045
 7933TIP3    H247995   3.677   2.057   8.079  0.5341 -0.6123  0.8714
 7934TIP3   OH247996   0.441   7.329   9.281  0.0322  0.0883 -0.1547
 7934TIP3    H147997   0.535   7.312   9.275  0.0858 -0.4271  1.5175
 7934TIP3    H247998   0.432   7.386   9.357 -1.0261 -0.1634 -0.0768
 7935TIP3   OH247999   5.013   3.929   1.390 -0.5422  0.4556 -0.4934
 7935TIP3    H148000   4.940   3.944   1.330 -0.6523  2.1304 -0.0110
 7935TIP3    H248001   5.016   4.008   1.444  0.3501 -0.4580  0.8685
 7936TIP3   OH248002   2.960   5.980   9.042 -0.1114  0.5106  0.0179
 7936TIP3    H148003   3.021   5.911   9.018  0.1782  0.6623  0.3066
 7936TIP3    H248004   2.927   5.955   9.127 -0.8360  0.1761 -0.3543
 7937TIP3   OH248005   2.405   7.000   2.502  0.1710  0.2173  0.2349
 7937TIP3    H148006   2.450   6.967   2.424  0.9712 -0.0846  0.8063
 7937TIP3    H248007   2.431   6.940   2.572 -0.1727  0.7442  0.8257
 7938TIP3   OH248008   7.414   3.571   8.335 -0.3940  0.0106  0.7112
 7938TIP3    H148009   7.483   3.599   8.275 -1.1136 -1.7031 -1.0211
 7938TIP3    H248010   7.445   3.598   8.422  1.7543  0.5777 -0.1748
 7939TIP3   OH248011   6.061   5.180   7.448 -0.0518 -0.0150 -0.3620
 7939TIP3    H148012   6.065   5.161   7.541  1.0541 -0.1291 -0.4187
 7939TIP3    H248013   5.987   5.241   7.439  0.2999  0.5992  0.6995
 7940TIP3   OH248014   3.139   7.098   8.701 -0.0570  0.2130  0.0691
 7940TIP3    H148015   3.141   7.059   8.613 -1.5330  2.3333 -1.0013
 7940TIP3    H248016   3.126   7.023   8.760 -1.2312 -1.0897 -1.7171
 7941TIP3   OH248017   2.631   2.086   0.192  0.1483 -0.2664 -0.1760
 7941TIP3    H148018   2.563   2.019   0.205 -0.7148  0.0330 -2.7214
 7941TIP3    H248019   2.689   2.049   0.125  1.7984  0.0480  1.0130
 7942TIP3   OH248020   5.903   6.830   9.270 -0.4298  0.1268  0.5166
 7942TIP3    H148021   5.971   6.777   9.230 -1.2437 -0.5425 -0.0179
 7942TIP3    H248022   5.880   6.783   9.350 -0.1321  0.4523  0.7934
 7943TIP3   OH248023   5.905   7.335   0.655  0.0526  0.0199 -0.1583
 7943TIP3    H148024   5.821   7.382   0.651  0.6555  1.3243  1.4120
 7943TIP3    H248025   5.907   7.283   0.575 -1.5697  1.1468 -0.9932
 7944TIP3   OH248026   1.776   5.705   1.334 -0.7102 -0.4311 -0.1133
 7944TIP3    H148027   1.685   5.706   1.301 -1.1980 -0.6541  1.1874
 7944TIP3    H248028   1.804   5.796   1.329 -0.8049 -0.4389 -1.0333
 7945TIP3   OH248029   3.013   6.882   1.217  0.5937 -0.0571 -0.2053
 7945TIP3    H148030   2.935   6.846   1.259  2.7255 -1.2254  3.2298
 7945TIP3    H248031   3.030   6.964   1.264  0.9104  0.7288 -1.6230
 7946TIP3   OH248032   1.533   0.747   7.814  0.0945 -0.2152  0.4969
 7946TIP3    H148033   1.474   0.761   7.740  1.4060  0.7653 -0.4167
 7946TIP3    H248034   1.482   0.695   7.876 -0.7894 -1.7252 -1.3973
 7947TIP3   OH248035   6.892   7.402   9.245  0.0462 -0.0105  0.4372
 7947TIP3    H148036   6.854   7.315   9.255 -2.6740  1.0267  0.0918
 7947TIP3    H248037   6.882   7.442   9.332 -1.9405  1.0640 -0.2264
 7948TIP3   OH248038   3.014   7.235   1.141  0.6020 -0.6976 -0.1866
 7948TIP3    H148039   3.055   7.321   1.133 -1.6909  0.3890 -0.9339
 7948TIP3    H248040   2.990   7.228   1.234 -0.3426  0.0496 -0.3629
 7949TIP3   OH248041   0.292   6.784   1.198  0.1276 -0.4244 -0.6664
 7949TIP3    H148042   0.307   6.865   1.150 -1.1315 -0.7153 -1.5896
 7949TIP3    H248043   0.268   6.720   1.131 -0.0352 -1.2721  0.1709
 7950TIP3   OH248044   5.167   2.727   6.764 -0.5672  0.2183 -0.0773
 7950TIP3    H148045   5.248   2.700   6.720 -0.9151  2.3126 -2.2205
 7950TIP3    H248046   5.194   2.800   6.820 -0.7089 -0.2027  0.5452
 7951TIP3   OH248047   3.291   2.491   6.951 -0.4566 -0.0213 -0.0667
 7951TIP3    H148048   3.248   2.405   6.952 -2.0920  0.7626 -0.0584
 7951TIP3    H248049   3.348   2.488   6.873  1.4190 -1.9519  1.2444
 7952TIP3   OH248050   6.967   4.015   8.466 -0.0911 -0.1222 -0.3863
 7952TIP3    H148051   6.982   3.947   8.401  1.3954 -1.2550  1.0419
 7952TIP3    H248052   7.051   4.024   8.511 -0.7839  1.3435  0.6988
 7953TIP3   OH248053   0.899   4.994   8.328 -0.5509 -0.2788  0.7208
 7953TIP3    H148054   0.879   4.925   8.390  0.9382  0.9939  2.7325
 7953TIP3    H248055   0.887   5.075   8.377  0.9202  0.7788 -0.5554
 7954TIP3   OH248056   4.647   1.695   7.974  0.1748  0.0360 -0.1618
 7954TIP3    H148057   4.554   1.715   7.980  0.0223  0.0362 -1.9324
 7954TIP3    H248058   4.660   1.667   7.883  1.9488  0.2827 -0.0260
 7955TIP3   OH248059   7.194   3.588   9.541 -0.3179 -0.7908  0.0988
 7955TIP3    H148060   7.147   3.562   9.462 -1.1432  0.9412 -0.0301
 7955TIP3    H248061   7.142   3.660   9.577  1.4783  0.2456  0.7494
 7956TIP3   OH248062   0.088   1.133   2.931 -0.5610  0.5455  0.2057
 7956TIP3    H148063   0.161   1.193   2.946 -0.7220  0.4972  1.2788
 7956TIP3    H248064   0.091   1.114   2.837  0.9003  0.4244  0.2494
 7957TIP3   OH248065   2.675   6.815   8.642 -0.0663 -0.1287  0.2399
 7957TIP3    H148066   2.711   6.826   8.554 -0.9983  2.3738  0.0947
 7957TIP3    H248067   2.628   6.732   8.638 -2.0077  0.9474 -2.3851
 7958TIP3   OH248068   3.169   1.231   1.243 -0.1770 -0.2307  0.4436
 7958TIP3    H148069   3.149   1.139   1.265 -1.4796 -0.4300 -1.3874
 7958TIP3    H248070   3.100   1.257   1.182  0.1372  2.0169  0.9511
 7959TIP3   OH248071   5.268   6.275   7.729 -0.4107  0.0237  0.1006
 7959TIP3    H148072   5.307   6.321   7.654  0.6935 -1.4418 -0.2904
 7959TIP3    H248073   5.299   6.323   7.806 -1.2841  1.3512 -0.3546
 7960TIP3   OH248074   0.040   3.264   8.452  0.4692  0.8092  0.0452
 7960TIP3    H148075   0.070   3.312   8.529 -1.6803 -0.5237  1.8539
 7960TIP3    H248076   0.026   3.175   8.483 -1.1775  0.3881 -1.6887
 7961TIP3   OH248077   0.542   4.751   9.028  0.2554  0.0355 -0.3859
 7961TIP3    H148078   0.530   4.727   8.936 -0.7485 -1.9422  0.2032
 7961TIP3    H248079   0.598   4.682   9.063  0.5381  0.7172  0.5242
 7962TIP3   OH248080   3.261   6.672   0.812 -0.9440 -0.0422  0.5931
 7962TIP3    H148081   3.237   6.737   0.878  0.1883 -0.5355  1.5214
 7962TIP3    H248082   3.351   6.693   0.788 -0.3129 -1.6258  1.3968
 7963TIP3   OH248083   3.892   6.268   9.164  0.0322 -0.0609  0.6076
 7963TIP3    H148084   3.819   6.329   9.159 -0.2531 -0.4443  0.0746
 7963TIP3    H248085   3.869   6.209   9.235 -0.6898 -0.8353 -0.2446
 7964TIP3   OH248086   2.955   6.487   2.207 -0.2284  0.4330  0.4168
 7964TIP3    H148087   2.942   6.517   2.297  0.0376 -1.6825  1.2259
 7964TIP3    H248088   2.899   6.410   2.200  2.5675 -1.7277  0.0814
 7965TIP3   OH248089   2.760   2.325   0.167  0.0891  0.1187 -0.6382
 7965TIP3    H148090   2.737   2.399   0.223  0.6867  0.2329 -0.5387
 7965TIP3    H248091   2.695   2.258   0.188  0.3799  0.1126  0.2887
 7966TIP3   OH248092   4.444   6.862   8.932  0.4928  0.2925  0.3177
 7966TIP3    H148093   4.470   6.772   8.951  0.3070  0.2728  0.4822
 7966TIP3    H248094   4.508   6.915   8.979  2.0854  0.2861 -1.7000
 7967TIP3   OH248095   4.037   0.732   0.439 -0.3172  0.1910  0.0996
 7967TIP3    H148096   4.116   0.781   0.461 -1.7372  2.7618 -0.1416
 7967TIP3    H248097   4.063   0.676   0.365  1.3979  0.5245  0.4097
 7968TIP3   OH248098   7.030   1.420   8.275 -0.0394  0.1979  0.1938
 7968TIP3    H148099   7.054   1.419   8.183 -0.6262  0.6375  0.0317
 7968TIP3    H248100   6.955   1.360   8.281  0.9259 -1.0290  0.6643
 7969TIP3   OH248101   0.539   2.691   9.319  0.7362 -0.3747 -0.6782
 7969TIP3    H148102   0.457   2.716   9.360  1.5837 -1.3048  1.7414
 7969TIP3    H248103   0.542   2.595   9.327  2.4447 -0.2920  0.1472
 7970TIP3   OH248104   0.857   5.879   0.703 -0.2475 -0.2019 -0.1481
 7970TIP3    H148105   0.883   5.965   0.670  1.1096 -0.4106  0.2850
 7970TIP3    H248106   0.815   5.897   0.787 -1.0006  0.1093 -0.5838
 7971TIP3   OH248107   0.236   0.449   8.161 -0.2401  0.0423 -0.1321
 7971TIP3    H148108   0.307   0.498   8.120 -0.4869 -0.6966 -1.4781
 7971TIP3    H248109   0.199   0.397   8.091 -1.9614  0.2154  0.5981
 7972TIP3   OH248110   5.074   6.476   2.272  1.0382 -0.7365  0.2472
 7972TIP3    H148111   5.125   6.434   2.342  1.1550 -2.5583 -0.8692
 7972TIP3    H248112   4.989   6.493   2.311  1.3620 -0.9630  1.0777
 7973TIP3   OH248113   5.378   3.452   1.802  0.0314 -0.8261 -0.0304
 7973TIP3    H148114   5.317   3.378   1.805  0.2679 -1.0138  0.1562
 7973TIP3    H248115   5.325   3.528   1.825  0.3675 -1.2961  2.4945
 7974TIP3   OH248116   4.069   2.638   1.609  0.2575 -0.2339  0.0133
 7974TIP3    H148117   4.038   2.664   1.522  0.2882  0.4011  0.1910
 7974TIP3    H248118   4.049   2.713   1.666 -0.1363 -0.7977  0.6406
 7975TIP3   OH248119   4.367   4.554   2.528  0.1650 -0.0342  0.7535
 7975TIP3    H148120   4.342   4.603   2.607  4.2555  0.4962  1.9351
 7975TIP3    H248121   4.432   4.610   2.485 -0.7285 -1.0670 -2.2152
 7976TIP3   OH248122   1.202   4.198   7.830 -0.0466 -0.5765  0.3434
 7976TIP3    H148123   1.228   4.160   7.746 -0.1632 -0.9629  0.4803
 7976TIP3    H248124   1.285   4.214   7.875  0.1476  1.4976 -0.6283
 7977TIP3   OH248125   2.196   1.634   0.387  0.2048  0.6004 -0.3488
 7977TIP3    H148126   2.148   1.667   0.311 -1.4782 -0.3894  0.2456
 7977TIP3    H248127   2.132   1.583   0.436  1.5323  0.3515  1.2055
 7978TIP3   OH248128   4.519   6.249   8.256 -0.4647  0.0044  0.5178
 7978TIP3    H148129   4.529   6.286   8.168  1.1984 -1.3948  0.0505
 7978TIP3    H248130   4.480   6.163   8.241  1.0738 -0.8113  0.9704
 7979TIP3   OH248131   1.060   0.003   7.623  0.8045 -0.7928 -0.2856
 7979TIP3    H148132   1.116  -0.018   7.549  0.7453  0.2287 -0.6409
 7979TIP3    H248133   1.115   0.055   7.681  0.0107  1.0464 -1.0865
 7980TIP3   OH248134   7.404   6.204   9.201  0.2608  0.5801 -0.1799
 7980TIP3    H148135   7.395   6.280   9.259  1.0709  0.1956  0.4642
 7980TIP3    H248136   7.333   6.145   9.228  0.9127  0.2013  0.7514
 7981TIP3   OH248137   5.218   5.915   8.547 -0.2806  0.1857 -0.0490
 7981TIP3    H148138   5.124   5.899   8.554 -0.2806  0.2846  0.1794
 7981TIP3    H248139   5.224   6.004   8.512 -0.2763 -0.0869 -0.7586
 7982TIP3   OH248140   6.505   1.092   0.570 -0.1584  0.2807 -0.6552
 7982TIP3    H148141   6.599   1.074   0.564 -0.1479 -0.0402  0.3626
 7982TIP3    H248142   6.497   1.156   0.640 -0.8408 -0.9388  0.4315
 7983TIP3   OH248143   1.039   7.032   7.851 -0.3640 -0.4917 -0.5078
 7983TIP3    H148144   1.050   7.035   7.756  1.5966  0.8029 -0.3140
 7983TIP3    H248145   1.075   7.116   7.881  0.2526 -1.4027  1.4648
 7984TIP3   OH248146   2.311   2.489   7.021 -0.0868 -0.0932 -0.6993
 7984TIP3    H148147   2.371   2.527   7.085 -0.5704 -0.5410  0.0395
 7984TIP3    H248148   2.338   2.526   6.937  0.3491  0.7655 -0.1896
 7985TIP3   OH248149   0.779   4.291   0.856  0.2436  0.1577  0.3016
 7985TIP3    H148150   0.737   4.253   0.934 -0.4867  1.3409  0.5168
 7985TIP3    H248151   0.778   4.385   0.872  0.7195  0.3731 -0.8376
 7986TIP3   OH248152   6.505   2.907   7.662  0.1960  0.1657 -0.1549
 7986TIP3    H148153   6.438   2.974   7.674 -0.3486 -0.4231  0.1212
 7986TIP3    H248154   6.463   2.840   7.608  0.3429 -0.5083  0.5449
 7987TIP3   OH248155   6.771   1.926   0.452 -0.5653  0.7156 -0.3601
 7987TIP3    H148156   6.829   1.873   0.398  2.1549  1.8103  1.3144
 7987TIP3    H248157   6.763   2.009   0.406  2.2721  1.8851  1.0163
 7988TIP3   OH248158   0.481   4.610   1.211 -0.1990 -0.0873 -0.2795
 7988TIP3    H148159   0.500   4.570   1.296  1.0313  1.4923  0.2382
 7988TIP3    H248160   0.499   4.704   1.224  0.3755  0.1456 -2.3722
 7989TIP3   OH248161   6.275   5.359   8.356  0.1347 -0.5576 -0.2076
 7989TIP3    H148162   6.275   5.308   8.437 -0.1655  1.7332  1.3372
 7989TIP3    H248163   6.185   5.352   8.324 -0.2397 -0.0540  0.6745
 7990TIP3   OH248164   4.037   3.213   2.308  0.1737  0.0561  0.5797
 7990TIP3    H148165   3.956   3.238   2.265  1.1824  0.8597 -0.9405
 7990TIP3    H248166   4.104   3.271   2.270  1.6159 -1.1988  1.0880
 7991TIP3   OH248167   6.775   3.311   2.428 -0.3485  0.1766 -0.2783
 7991TIP3    H148168   6.761   3.404   2.410 -1.1194  0.5334  1.8768
 7991TIP3    H248169   6.848   3.310   2.490  0.9081 -0.8253 -1.7080
 7992TIP3   OH248170   6.851   5.014   8.758 -0.0005  0.0234  0.5089
 7992TIP3    H148171   6.894   5.027   8.674  0.3868  0.2336  0.7358
 7992TIP3    H248172   6.812   4.927   8.753  0.7982 -0.3316  0.4496
 7993TIP3   OH248173   5.376   1.155   8.076 -0.2939  0.4893  0.0470
 7993TIP3    H148174   5.469   1.137   8.066 -0.0490  1.8174 -0.2543
 7993TIP3    H248175   5.347   1.095   8.145  0.8313  0.2161  0.3003
 7994TIP3   OH248176   3.352   1.353   0.855 -0.3011  0.4961 -0.3191
 7994TIP3    H148177   3.401   1.426   0.818  0.0336 -1.1507 -3.4485
 7994TIP3    H248178   3.418   1.284   0.867 -0.8945  0.1123  0.9585
 7995TIP3   OH248179   2.694   3.972   8.184  0.1794 -0.5039  1.0331
 7995TIP3    H148180   2.649   4.037   8.130 -1.5238 -0.4160  2.4718
 7995TIP3    H248181   2.744   4.023   8.248  0.6224 -0.6241  0.7925
 7996TIP3   OH248182   7.368   3.493   7.982 -0.1556  0.2586  0.1127
 7996TIP3    H148183   7.358   3.406   7.944 -2.4563  0.3951  0.2422
 7996TIP3    H248184   7.412   3.479   8.065 -0.4165 -0.7844  0.0817
 7997TIP3   OH248185   6.073   5.140   2.871  0.2660 -0.3831  0.3365
 7997TIP3    H148186   6.164   5.161   2.851  0.7034  0.4031  2.7575
 7997TIP3    H248187   6.076   5.055   2.915 -0.2635 -0.6864 -0.1977
 7998TIP3   OH248188   5.196   0.494   7.365 -0.4279  0.3712 -0.1364
 7998TIP3    H148189   5.192   0.553   7.290 -0.9857  0.0942 -0.3262
 7998TIP3    H248190   5.106   0.486   7.395 -0.2183  0.4625  0.5560
 7999TIP3   OH248191   3.475   3.836   8.498  0.0962  0.0773  0.0818
 7999TIP3    H148192   3.539   3.906   8.488  0.5436  0.0305  2.2133
 7999TIP3    H248193   3.517   3.773   8.557 -1.6742 -0.2188  1.1107
 8000TIP3   OH248194   1.111   3.048   2.156 -0.0841 -0.2065 -0.0261
 8000TIP3    H148195   1.104   3.047   2.251  3.7434  0.1344  0.4188
 8000TIP3    H248196   1.085   3.136   2.130  1.4473  0.6047  1.0776
 8001TIP3   OH248197   1.473   7.282   0.433  0.0533  0.5609  0.5451
 8001TIP3    H148198   1.485   7.351   0.497 -0.0792  1.9318 -0.8395
 8001TIP3    H248199   1.552   7.284   0.379 -0.6123  0.7002 -0.4603
 8002TIP3   OH248200   5.863   1.251   1.284 -0.6352 -0.1631 -0.0204
 8002TIP3    H148201   5.906   1.166   1.287 -0.5223 -0.1310 -0.5712
 8002TIP3    H248202   5.928   1.313   1.317 -1.0712 -0.4183  1.3670
 8003TIP3   OH248203   1.739   6.996   1.922 -0.2089 -0.1252  0.2251
 8003TIP3    H148204   1.745   7.041   1.838  0.4304  1.5063  1.0914
 8003TIP3    H248205   1.650   6.960   1.924 -0.5747  0.6801 -0.7247
 8004TIP3   OH248206   5.075   1.056   0.846  0.2192 -0.1353 -0.4615
 8004TIP3    H148207   5.059   1.058   0.941 -1.0659 -2.0611 -0.5668
 8004TIP3    H248208   5.012   1.118   0.810  0.6511  0.5410 -0.0764
 8005TIP3   OH248209   4.422   0.925   1.236  0.1456 -0.2927 -0.3251
 8005TIP3    H148210   4.456   1.011   1.261  0.5149 -1.0153  1.9114
 8005TIP3    H248211   4.433   0.872   1.315  0.8320 -2.6781 -1.9336
 8006TIP3   OH248212   2.127   5.848   8.117  0.0784 -0.7855  0.5802
 8006TIP3    H148213   2.157   5.774   8.169  1.3812  0.3490  1.5368
 8006TIP3    H248214   2.153   5.925   8.168  0.5097  0.3651 -1.2647
 8007TIP3   OH248215   3.559   6.371   0.658  0.0294 -0.1526 -0.1041
 8007TIP3    H148216   3.544   6.396   0.749 -0.5665 -0.5110 -0.1000
 8007TIP3    H248217   3.621   6.437   0.626 -0.0068  0.1709  0.4654
 8008TIP3   OH248218   3.639   3.751   9.310 -0.2574  0.0149  0.3009
 8008TIP3    H148219   3.619   3.809   9.383 -1.5965  0.7983 -0.6428
 8008TIP3    H248220   3.559   3.751   9.257  1.1768  0.7727 -2.0296
 8009TIP3   OH248221   3.142   3.190   7.866  0.2070 -0.3103  0.0610
 8009TIP3    H148222   3.234   3.218   7.867  0.4425 -1.0909  0.6088
 8009TIP3    H248223   3.121   3.174   7.957 -0.0757 -1.4028 -0.1872
 8010TIP3   OH248224   1.316   0.974   0.062  0.4558  0.3968  0.3880
 8010TIP3    H148225   1.370   0.895   0.069 -1.0840 -0.6225  1.6906
 8010TIP3    H248226   1.335   1.008  -0.025  3.1419  0.1103  0.7722
 8011TIP3   OH248227   0.738   3.440   6.562 -0.0216  0.4213 -0.0386
 8011TIP3    H148228   0.690   3.515   6.525 -1.0567 -0.6134 -0.8543
 8011TIP3    H248229   0.821   3.439   6.515 -0.6536  0.1116 -1.1820
 8012TIP3   OH248230   1.708   2.804   0.384  0.0502  0.2118  0.2088
 8012TIP3    H148231   1.798   2.796   0.414 -0.6180  2.1402  3.1675
 8012TIP3    H248232   1.659   2.740   0.435 -0.4542  0.0841 -0.4167
 8013TIP3   OH248233   3.399   2.013   8.844  0.5831 -0.1795 -0.6783
 8013TIP3    H148234   3.431   2.032   8.756  0.9436  0.6163 -0.3856
 8013TIP3    H248235   3.341   1.937   8.833  0.6257 -0.0873 -1.5954
 8014TIP3   OH248236   0.328   1.035   9.532  0.6899 -0.0491 -0.1033
 8014TIP3    H148237   0.319   1.042   9.627 -0.2755  1.8460 -0.2954
 8014TIP3    H248238   0.239   1.024   9.499  0.8471  0.7343 -0.8591
 8015TIP3   OH248239   5.707   0.359   7.541 -0.5734  0.0268  0.0131
 8015TIP3    H148240   5.769   0.410   7.489 -0.4086 -0.2068 -0.0238
 8015TIP3    H248241   5.627   0.358   7.489  0.5997 -3.1834 -2.0254
 8016TIP3   OH248242   4.959   4.803   9.236  0.2733  0.1688 -0.5722
 8016TIP3    H148243   4.940   4.895   9.222 -0.8306 -0.0104 -0.3407
 8016TIP3    H248244   4.963   4.765   9.149 -0.2656  0.2472 -0.6316
 8017TIP3   OH248245   4.477   2.987   7.954  0.1156  0.4879 -0.1029
 8017TIP3    H148246   4.478   2.941   7.871  0.3875 -0.5686  0.4704
 8017TIP3    H248247   4.477   3.080   7.930  2.0599  0.2488 -1.2923
 8018TIP3   OH248248   3.176   7.039   0.151  0.3217  0.2674  0.4089
 8018TIP3    H148249   3.138   7.037   0.063 -0.3128  0.4806  0.6713
 8018TIP3    H248250   3.211   6.952   0.165 -0.1964  0.0210  0.2043
 8019TIP3   OH248251   7.065   1.802   1.748 -0.6167 -0.0895 -0.0836
 8019TIP3    H148252   7.024   1.839   1.827 -0.0448  0.6378 -0.1173
 8019TIP3    H248253   7.136   1.747   1.781  0.0887  0.7965 -0.1085
 8020TIP3   OH248254   4.868   5.805   9.227 -0.0886 -0.0883  0.3075
 8020TIP3    H148255   4.823   5.777   9.148  0.1578  0.7993 -0.1543
 8020TIP3    H248256   4.875   5.725   9.280 -0.5759 -0.6104 -0.4002
 8021TIP3   OH248257   2.576   0.392   0.521 -0.2192 -0.0398 -0.4854
 8021TIP3    H148258   2.655   0.387   0.574 -1.7912 -0.1399  2.0115
 8021TIP3    H248259   2.585   0.474   0.472  0.3250  1.3261  1.7587
 8022TIP3   OH248260   6.288   3.113   7.698  0.1356  0.2153 -0.1113
 8022TIP3    H148261   6.316   3.181   7.760 -0.5532 -0.7373  1.2968
 8022TIP3    H248262   6.195   3.128   7.687  0.4708  1.1868 -2.0156
 8023TIP3   OH248263   5.096   5.125   8.338  0.3208 -0.3864  0.3133
 8023TIP3    H148264   5.106   5.179   8.259  0.9315  0.0156  0.6688
 8023TIP3    H248265   5.086   5.036   8.304 -0.5158 -0.0866 -0.2689
 8024TIP3   OH248266   3.689   6.471   9.095  0.2639 -0.6466 -0.0366
 8024TIP3    H148267   3.666   6.544   9.153 -2.7443  1.0821 -3.0597
 8024TIP3    H248268   3.738   6.513   9.023 -1.1586 -1.6072 -1.6208
 8025TIP3   OH248269   4.491   2.859   7.701 -0.8167  0.8276  0.8233
 8025TIP3    H148270   4.419   2.798   7.684 -0.0758  0.3518 -0.8677
 8025TIP3    H248271   4.516   2.890   7.614  2.1522 -0.3844  1.1327
 8026TIP3   OH248272   6.637   5.524   1.458 -0.3190  0.1988  0.4855
 8026TIP3    H148273   6.552   5.500   1.419  0.3161 -1.7928  0.2411
 8026TIP3    H248274   6.617   5.539   1.550 -0.8278 -1.0988  0.6096
 8027TIP3   OH248275   5.940   4.198   8.753  0.2265 -0.3563 -0.1465
 8027TIP3    H148276   5.991   4.130   8.797 -0.9343 -0.6814  0.7503
 8027TIP3    H248277   5.849   4.177   8.775 -0.1034  2.2178  1.2489
 8028TIP3   OH248278   2.399   2.307   2.267 -0.1927  0.4107  0.0051
 8028TIP3    H148279   2.387   2.361   2.346 -0.4750  0.8761 -0.3518
 8028TIP3    H248280   2.315   2.314   2.221  0.2520  0.8389 -0.7625
 8029TIP3   OH248281   1.456   3.976   2.857 -0.2351 -0.2028 -0.1968
 8029TIP3    H148282   1.431   4.012   2.943  0.6307 -0.7863  0.3126
 8029TIP3    H248283   1.450   3.881   2.869 -0.7947 -0.2714 -1.0016
 8030TIP3   OH248284   5.065   2.310   9.000  0.1941 -0.3053 -0.9572
 8030TIP3    H148285   4.980   2.267   8.990  0.9777 -2.0658 -0.4273
 8030TIP3    H248286   5.088   2.338   8.912 -0.3195 -1.0627 -1.3432
 8031TIP3   OH248287   2.626   7.333   7.465  0.0448  0.2194  0.2150
 8031TIP3    H148288   2.675   7.379   7.397  0.2253  0.2356  0.3547
 8031TIP3    H248289   2.556   7.393   7.489  0.7234  0.7532  0.9319
 8032TIP3   OH248290   6.534   5.442   7.922 -0.1263 -0.3396 -0.2077
 8032TIP3    H148291   6.558   5.381   7.852  0.7491  1.2723 -1.4037
 8032TIP3    H248292   6.441   5.460   7.908  0.3455  1.0506 -1.9203
 8033TIP3   OH248293   3.835   5.035   7.343  0.0355 -0.2003  0.0937
 8033TIP3    H148294   3.835   5.005   7.252 -1.6623 -0.9132  0.2912
 8033TIP3    H248295   3.791   4.966   7.391 -0.0665  0.6641  1.2894
 8034TIP3   OH248296   3.404   1.169   1.121  0.0830 -0.4790 -0.2067
 8034TIP3    H148297   3.329   1.214   1.159  1.2476  0.3046  1.3224
 8034TIP3    H248298   3.471   1.238   1.111  0.8840 -1.3024 -0.7006
 8035TIP3   OH248299   5.182   1.347   1.808  0.0606 -0.5084  0.0101
 8035TIP3    H148300   5.240   1.378   1.877 -0.4682  1.6854 -0.4716
 8035TIP3    H248301   5.215   1.386   1.727 -1.2208 -0.3764 -0.4869
 8036TIP3   OH248302   0.958   4.814   8.914  0.0772  0.3559 -0.1512
 8036TIP3    H148303   0.883   4.824   8.971  0.4189  0.8003  0.2335
 8036TIP3    H248304   0.940   4.736   8.862 -0.2792  0.0099  0.4940
 8037TIP3   OH248305   0.512   6.180   9.089  0.7937 -0.0548 -0.3797
 8037TIP3    H148306   0.436   6.238   9.100  0.9942  0.2071 -0.3884
 8037TIP3    H248307   0.534   6.152   9.178  1.8098  1.2996 -0.1879
 8038TIP3   OH248308   2.298   5.989   7.740 -0.3998 -0.2708  0.2114
 8038TIP3    H148309   2.387   6.015   7.716 -0.5140 -0.2256 -0.1711
 8038TIP3    H248310   2.310   5.925   7.810 -0.1176  1.2805  1.6601
 8039TIP3   OH248311   3.359   1.841   2.724 -0.2347 -0.2698  0.3975
 8039TIP3    H148312   3.295   1.912   2.727 -1.1758 -1.1075  1.5996
 8039TIP3    H248313   3.310   1.764   2.754  0.2372 -1.8673 -2.5797
 8040TIP3   OH248314   3.097   2.635   7.685 -0.1030 -0.1080 -0.8491
 8040TIP3    H148315   3.021   2.654   7.630 -0.4679 -0.5359 -0.5113
 8040TIP3    H248316   3.059   2.615   7.771  0.4217  0.0690 -0.5719
 8041TIP3   OH248317   6.864   6.132   6.625  0.1170  0.5082  0.4117
 8041TIP3    H148318   6.851   6.145   6.719 -2.9222  1.6924 -0.0623
 8041TIP3    H248319   6.778   6.103   6.592  0.8095  1.0421 -2.1264
 8042TIP3   OH248320   3.376   6.959   9.149  0.3896  0.0644  0.2967
 8042TIP3    H148321   3.466   6.989   9.162  0.6240 -0.0853 -0.8634
 8042TIP3    H248322   3.384   6.888   9.086 -0.3902 -1.0132  1.3615
 8043TIP3   OH248323   7.339   0.071   7.619  0.3226 -0.6913 -0.3888
 8043TIP3    H148324   7.416   0.030   7.578  0.3507 -1.5205  0.4712
 8043TIP3    H248325   7.322   0.018   7.697 -1.2954 -0.6779 -0.7081
 8044TIP3   OH248326   7.292   1.064   8.302  0.1023  0.5176 -0.3317
 8044TIP3    H148327   7.353   1.108   8.361  0.2665  1.0783 -0.9129
 8044TIP3    H248328   7.327   0.975   8.293  0.6713  0.7471 -0.4208
 8045TIP3   OH248329   3.032   5.534   9.136  0.4518 -0.0912 -0.7008
 8045TIP3    H148330   3.001   5.492   9.055  0.6252 -1.6316 -0.0097
 8045TIP3    H248331   3.077   5.464   9.183  0.8261  0.9228  0.4918
 8046TIP3   OH248332   5.406   2.015   0.403 -0.6836 -0.5803  0.0881
 8046TIP3    H148333   5.415   1.983   0.493  1.8970  0.7681  0.3804
 8046TIP3    H248334   5.470   2.085   0.395 -0.9577 -0.5379 -2.7796
 8047TIP3   OH248335   4.828   1.744   1.834 -0.4956  0.4007 -0.3641
 8047TIP3    H148336   4.822   1.833   1.801  0.5333  1.0685  1.1977
 8047TIP3    H248337   4.737   1.721   1.856 -0.7883  0.9831 -0.9199
 8048TIP3   OH248338   4.027   5.929   7.151  0.3531 -0.2144 -0.2033
 8048TIP3    H148339   4.118   5.947   7.130  0.6772 -2.0339 -0.5504
 8048TIP3    H248340   3.986   6.015   7.158  2.1701  0.6555  0.3612
 8049TIP3   OH248341   5.423   6.709   2.229 -0.1944  0.3021  0.0949
 8049TIP3    H148342   5.512   6.684   2.253 -1.0487 -1.3111  1.8827
 8049TIP3    H248343   5.396   6.643   2.165  0.4211  1.7950 -1.7966
 8050TIP3   OH248344   6.871   5.102   2.916 -0.1240  0.3622 -0.2950
 8050TIP3    H148345   6.935   5.154   2.867  0.6085 -0.5647 -0.3475
 8050TIP3    H248346   6.882   5.013   2.883  0.3955 -0.3009  1.5342
 8051TIP3   OH248347   6.491   5.113   1.692 -0.2604  0.3105 -0.4176
 8051TIP3    H148348   6.408   5.077   1.722  1.0157 -1.2537  1.5026
 8051TIP3    H248349   6.519   5.054   1.623 -0.6992  0.8134 -1.0354
 8052TIP3   OH248350   2.393   2.362   3.188  0.5764  0.5550 -0.5958
 8052TIP3    H148351   2.471   2.307   3.182 -0.1687 -0.4530 -1.3340
 8052TIP3    H248352   2.404   2.428   3.119  1.2144  1.0243 -0.0619
 8053TIP3   OH248353   0.483   3.503   9.314  0.1735 -0.1272 -0.4230
 8053TIP3    H148354   0.554   3.566   9.299 -0.7867  0.6464 -1.8912
 8053TIP3    H248355   0.523   3.418   9.298  1.3060  0.1194  0.8738
 8054TIP3   OH248356   4.318   0.424   0.306  0.3396  0.0234 -0.3119
 8054TIP3    H148357   4.366   0.341   0.312  1.6344  0.7982  0.4085
 8054TIP3    H248358   4.295   0.432   0.213  1.1002 -0.6536 -0.5670
 8055TIP3   OH248359   5.412   6.938   1.239 -0.1004 -0.3258 -0.2649
 8055TIP3    H148360   5.356   7.001   1.284 -1.1008 -0.5321 -1.1965
 8055TIP3    H248361   5.391   6.854   1.281 -1.7444 -0.6783 -1.7139
 8056TIP3   OH248362   6.828   4.120   7.987 -0.5474 -0.8290  0.6067
 8056TIP3    H148363   6.845   4.029   7.964  0.5975 -0.3748 -0.4925
 8056TIP3    H248364   6.811   4.119   8.081  0.2788 -2.0707  0.7589
 8057TIP3   OH248365   6.721   3.398   7.985 -0.3446  0.2210 -0.3642
 8057TIP3    H148366   6.761   3.344   8.053 -0.4226  0.0582 -0.4445
 8057TIP3    H248367   6.677   3.334   7.928  0.8090  0.2372 -1.3085
 8058TIP3   OH248368   1.570   4.596   2.624  0.2868 -0.3404  0.5078
 8058TIP3    H148369   1.523   4.614   2.706  0.1882 -1.2917  0.6720
 8058TIP3    H248370   1.502   4.568   2.563  0.5674 -1.3778  0.6418
 8059TIP3   OH248371   1.068   4.202   7.124  0.4152 -0.0663  0.1196
 8059TIP3    H148372   1.032   4.199   7.213  0.5748  0.2291  0.1959
 8059TIP3    H248373   1.081   4.111   7.100 -1.4496 -0.2612 -0.3351
 8060TIP3   OH248374   3.438   0.103   1.927  0.4592 -0.7388 -0.3823
 8060TIP3    H148375   3.475   0.082   2.013  0.0607  0.9003  0.2255
 8060TIP3    H248376   3.409   0.019   1.892 -1.2086 -1.2196  1.9561
 8061TIP3   OH248377   2.447   2.913   9.299 -0.4165 -0.0515 -0.8017
 8061TIP3    H148378   2.465   2.858   9.375 -0.5251  0.6899 -0.2274
 8061TIP3    H248379   2.369   2.963   9.323  1.5839  2.8578  0.0981
 8062TIP3   OH248380   1.040   1.576   7.879  0.2209  0.6248 -0.2031
 8062TIP3    H148381   1.012   1.500   7.829  0.3196 -0.6968  1.6495
 8062TIP3    H248382   1.057   1.644   7.813  2.0249 -1.5219 -2.0887
 8063TIP3   OH248383   2.396   0.320   2.171 -0.0233  0.0029  0.6213
 8063TIP3    H148384   2.441   0.404   2.186  2.1933 -1.0152  0.1163
 8063TIP3    H248385   2.340   0.337   2.095 -1.1780  1.5494  1.7594
 8064TIP3   OH248386   4.458   0.948   6.954  0.0171  0.1615  0.3213
 8064TIP3    H148387   4.376   0.984   6.988  0.1631  0.4679  0.3504
 8064TIP3    H248388   4.451   0.853   6.968 -0.9163  0.0190 -0.9031
 8065TIP3   OH248389   1.096   1.172   0.283  0.9358 -0.6472 -0.0627
 8065TIP3    H148390   1.188   1.177   0.257  0.8289 -0.8596 -0.4966
 8065TIP3    H248391   1.097   1.121   0.365  1.4018  1.1473  1.0981
 8066TIP3   OH248392   2.350   4.172   0.769  0.5085 -0.1045 -0.1948
 8066TIP3    H148393   2.328   4.241   0.832 -0.3076 -0.4958 -0.0390
 8066TIP3    H248394   2.295   4.190   0.693 -0.1319 -0.8789  0.0568
 8067TIP3   OH248395   0.038   2.495   0.515  0.4258 -0.2983 -0.2460
 8067TIP3    H148396  -0.007   2.576   0.539 -1.2613 -1.0200 -0.7944
 8067TIP3    H248397   0.131   2.517   0.518  0.0148  1.6085 -0.2374
 8068TIP3   OH248398   6.035   0.105   0.857  0.3498 -0.4150  0.2184
 8068TIP3    H148399   5.988   0.176   0.901  0.1592  0.3103 -1.0996
 8068TIP3    H248400   5.970   0.066   0.799  0.4106 -1.8043  1.0226
 8069TIP3   OH248401   0.964   5.327   2.143  0.0276  0.3322 -0.0385
 8069TIP3    H148402   1.028   5.386   2.104 -0.8489  0.4031 -1.4267
 8069TIP3    H248403   0.902   5.308   2.073 -1.5370  0.3332  1.2721
 8070TIP3   OH248404   3.130   4.614   0.704  0.5674 -0.2285  0.4537
 8070TIP3    H148405   3.040   4.583   0.719 -0.6717  2.4658 -0.6005
 8070TIP3    H248406   3.181   4.574   0.773 -1.3625 -2.2002  0.8573
 8071TIP3   OH248407   0.341   6.501   0.277 -0.0241  0.1969 -0.2992
 8071TIP3    H148408   0.418   6.480   0.329  0.3822  0.4138 -0.8071
 8071TIP3    H248409   0.320   6.420   0.231 -0.5596 -0.0801  0.4152
 8072TIP3   OH248410   4.664   1.689   1.468 -0.0302 -0.4062  0.4612
 8072TIP3    H148411   4.649   1.781   1.487 -2.8381 -0.7127  0.1707
 8072TIP3    H248412   4.682   1.686   1.374  0.1640 -0.1616  0.4895
 8073TIP3   OH248413   2.552   6.155   1.395 -0.0187  0.0075 -0.3925
 8073TIP3    H148414   2.493   6.084   1.417 -0.9530  1.0279  0.5440
 8073TIP3    H248415   2.496   6.233   1.391  1.2546  1.0568  0.7530
 8074TIP3   OH248416   4.622   2.857   8.900 -0.0926  0.1056  0.0808
 8074TIP3    H148417   4.586   2.912   8.831  1.1273  1.5470  0.5281
 8074TIP3    H248418   4.709   2.892   8.916  0.5344 -1.6454  0.7866
 8075TIP3   OH248419   3.776   3.213   2.170 -0.0860  0.1593  0.4451
 8075TIP3    H148420   3.832   3.185   2.097 -0.4827 -2.3311  1.0125
 8075TIP3    H248421   3.735   3.294   2.139  3.3078  1.7971 -0.2150
 8076TIP3   OH248422   5.503   2.901   9.268 -0.4320  0.3558 -0.4810
 8076TIP3    H148423   5.583   2.897   9.215  0.7861  1.2915  1.1936
 8076TIP3    H248424   5.508   2.823   9.324  1.7573  2.5732  2.7850
 8077TIP3   OH248425   4.940   2.999   1.981  0.1431 -0.3744  0.7021
 8077TIP3    H148426   4.859   2.986   2.029 -0.7309  0.6591 -0.4087
 8077TIP3    H248427   4.957   3.093   1.989  1.9676 -0.7688  2.0108
 8078TIP3   OH248428   1.485   6.246   1.395  0.6192 -0.0838  0.2366
 8078TIP3    H148429   1.580   6.248   1.382  0.7858  0.1888  1.3820
 8078TIP3    H248430   1.471   6.295   1.476 -0.4395 -0.6498  0.4176
 8079TIP3   OH248431   2.192   1.478   0.804  0.1949 -0.0904  0.0086
 8079TIP3    H148432   2.231   1.489   0.890  1.7369  1.4072 -0.8187
 8079TIP3    H248433   2.099   1.494   0.818  0.2957 -0.6257  1.5000
 8080TIP3   OH248434   5.359   1.521   7.556 -0.3641 -0.3908 -0.0345
 8080TIP3    H148435   5.342   1.613   7.574 -1.5394 -0.5151 -0.4176
 8080TIP3    H248436   5.445   1.521   7.513 -0.5990  0.5946 -0.5480
 8081TIP3   OH248437   5.530   5.112   1.128 -0.0904  0.1078 -0.7400
 8081TIP3    H148438   5.533   5.127   1.033 -3.0972 -0.0470 -0.9773
 8081TIP3    H248439   5.520   5.017   1.137 -1.2409  0.2445 -0.3940
 8082TIP3   OH248440   1.993   2.920   1.513 -0.2073  0.3876 -0.2875
 8082TIP3    H148441   1.931   2.928   1.586 -0.2420 -0.8970 -0.1551
 8082TIP3    H248442   2.036   2.836   1.528 -1.6040 -0.8686 -2.8023
 8083TIP3   OH248443   2.283   4.329   9.227  0.0930  0.1810  0.0462
 8083TIP3    H148444   2.343   4.392   9.187  0.5769 -0.5833 -0.4568
 8083TIP3    H248445   2.278   4.356   9.319 -0.4861  1.5395 -0.3435
 8084TIP3   OH248446   3.374   0.358   1.663  0.1644 -0.1712  0.4185
 8084TIP3    H148447   3.423   0.278   1.641  0.1333 -0.4017  1.1600
 8084TIP3    H248448   3.396   0.375   1.755  0.2786  0.7578  0.2238
 8085TIP3   OH248449   4.082   6.906   0.303 -0.7502 -0.0649  0.0187
 8085TIP3    H148450   4.035   6.937   0.225 -1.0554 -1.6176 -0.4544
 8085TIP3    H248451   4.165   6.953   0.301 -0.3544 -0.7638 -1.8045
 8086TIP3   OH248452   5.531   6.400   2.018  0.0010  0.2739 -0.5210
 8086TIP3    H148453   5.444   6.440   2.025 -0.7950 -1.4394  0.2115
 8086TIP3    H248454   5.566   6.402   2.107  0.7652  1.0371 -0.8300
 8087TIP3   OH248455   4.193   7.283   9.622  0.3025  0.3875  0.1130
 8087TIP3    H148456   4.178   7.352   9.686  0.5428 -0.8756  1.5943
 8087TIP3    H248457   4.267   7.233   9.657 -0.5271 -1.2401 -0.3475
 8088TIP3   OH248458   6.027   3.404   7.727  0.2932  0.1566 -0.0067
 8088TIP3    H148459   6.040   3.319   7.684  0.6057  1.2022 -2.0520
 8088TIP3    H248460   6.114   3.427   7.760  0.0348 -0.6880  1.3444
 8089TIP3   OH248461   2.369   3.363   0.870  0.6477  0.3678 -0.3322
 8089TIP3    H148462   2.297   3.302   0.850  0.3774  0.5551  0.0575
 8089TIP3    H248463   2.414   3.375   0.786  1.1650 -0.9494 -0.2736
 8090TIP3   OH248464   5.727   0.109   0.830  0.2029 -0.1768  0.0813
 8090TIP3    H148465   5.682   0.183   0.790  0.2512  0.1140  0.5645
 8090TIP3    H248466   5.775   0.146   0.903 -0.8779 -0.8734  1.1952
 8091TIP3   OH248467   2.577   0.424   8.371 -0.3073 -0.2830 -0.2665
 8091TIP3    H148468   2.588   0.333   8.344  1.1460 -0.7716  1.7832
 8091TIP3    H248469   2.640   0.472   8.317 -1.8427 -0.2348 -2.1570
 8092TIP3   OH248470   3.689   2.332   6.715 -0.2792  0.1333  0.0646
 8092TIP3    H148471   3.702   2.346   6.809  0.3329  2.4877 -0.3221
 8092TIP3    H248472   3.771   2.359   6.675 -0.3056 -1.4527 -1.1417
 8093TIP3   OH248473   5.652   4.167   7.799 -0.2307 -0.2889 -0.1297
 8093TIP3    H148474   5.682   4.252   7.768 -0.0238  0.2780  1.4928
 8093TIP3    H248475   5.706   4.150   7.877 -1.9427 -0.7133  1.0204
 8094TIP3   OH248476   4.821   5.677   8.088 -0.1800  0.0409 -0.2273
 8094TIP3    H148477   4.787   5.762   8.060  0.9825  0.8195  0.6031
 8094TIP3    H248478   4.782   5.663   8.175  1.6945  1.0781  0.8643
 8095TIP3   OH248479   2.534   5.684   7.087  0.5723 -0.8239  0.0597
 8095TIP3    H148480   2.496   5.711   7.003  0.7304 -0.5048  0.0908
 8095TIP3    H248481   2.500   5.746   7.150  1.0900 -0.5739  0.1002
 8096TIP3   OH248482   3.623   2.458   6.973 -0.4604 -0.3694 -0.6795
 8096TIP3    H148483   3.599   2.379   7.022 -1.5136  1.4552  2.0218
 8096TIP3    H248484   3.698   2.494   7.020 -2.4526  2.2713  0.8109
 8097TIP3   OH248485   4.414   2.270   7.902  0.4495  0.3724 -0.2037
 8097TIP3    H148486   4.346   2.236   7.960 -0.8761 -1.7120 -2.7542
 8097TIP3    H248487   4.450   2.346   7.949 -1.8279  0.0156  2.3879
 8098TIP3   OH248488   0.169   0.005   1.540 -0.7247 -0.0254 -0.3349
 8098TIP3    H148489   0.125   0.068   1.483  1.5324  2.0506 -0.0027
 8098TIP3    H248490   0.102  -0.025   1.601 -1.7792  2.8381  0.0681
 8099TIP3   OH248491   7.237   3.041   8.828 -0.4551  0.3754  0.4479
 8099TIP3    H148492   7.230   2.972   8.894 -0.3539  1.6842  1.8844
 8099TIP3    H248493   7.187   3.114   8.864 -2.4308  0.3853 -2.0273
 8100TIP3   OH248494   3.570   2.179   0.831  0.1097 -0.0974  0.5533
 8100TIP3    H148495   3.549   2.207   0.742 -2.2420 -1.3004  0.6440
 8100TIP3    H248496   3.585   2.085   0.824  0.1074 -0.1704  1.3715
 8101TIP3   OH248497   1.295   0.866   7.385 -0.1102 -0.2985  0.4811
 8101TIP3    H148498   1.223   0.929   7.389  0.0159 -0.0769 -0.5777
 8101TIP3    H248499   1.368   0.915   7.348  0.3980 -0.7049  0.9254
 8102TIP3   OH248500   6.901   5.279   1.202  0.7234 -0.0372 -0.4452
 8102TIP3    H148501   6.930   5.369   1.188  2.0107 -0.1590  1.2191
 8102TIP3    H248502   6.956   5.227   1.143  0.9959  0.1237 -0.3358
 8103TIP3   OH248503   0.895   7.214   2.630  0.3282 -0.6589 -0.5535
 8103TIP3    H148504   0.831   7.249   2.567  0.0064  0.4184  0.3424
 8103TIP3    H248505   0.861   7.241   2.715  0.3109 -2.8184  0.1759
 8104TIP3   OH248506   5.118   5.586   2.653 -0.2338  0.3097  0.4805
 8104TIP3    H148507   5.120   5.559   2.562 -0.0086 -0.2904  0.6584
 8104TIP3    H248508   5.189   5.651   2.660 -1.2361  1.5184 -0.1081
 8105TIP3   OH248509   4.704   3.984   0.450 -0.5250 -0.3873  0.2670
 8105TIP3    H148510   4.695   3.888   0.449 -0.8903 -0.3573  0.6025
 8105TIP3    H248511   4.615   4.016   0.440 -0.3241 -0.0728 -0.6668
 8106TIP3   OH248512   2.292   4.620   8.864 -0.0687  0.7412  0.1994
 8106TIP3    H148513   2.248   4.581   8.940 -0.2196  0.2489 -0.1365
 8106TIP3    H248514   2.365   4.560   8.846 -1.3659 -0.4212 -1.4538
 8107TIP3   OH248515   4.704   2.650   8.355  0.0755  0.1771  0.1193
 8107TIP3    H148516   4.744   2.732   8.385  1.3339 -0.2339 -0.3701
 8107TIP3    H248517   4.664   2.612   8.433  0.9198  0.4551  0.6938
 8108TIP3   OH248518   4.501   4.003   2.872  0.1443  0.3095  0.1210
 8108TIP3    H148519   4.501   4.084   2.923 -1.5764  0.7497 -0.4959
 8108TIP3    H248520   4.571   4.015   2.808 -0.6461  1.7246 -0.5288
 8109TIP3   OH248521   0.361   1.438   6.623 -0.2308  0.6899  0.3159
 8109TIP3    H148522   0.387   1.516   6.574 -0.1987 -0.3244 -1.3581
 8109TIP3    H248523   0.271   1.457   6.652 -0.8104  0.7353 -1.4349
 8110TIP3   OH248524   7.225   2.179   7.384  0.1477 -0.4844 -0.0232
 8110TIP3    H148525   7.130   2.182   7.392  0.2730  0.0432  1.7044
 8110TIP3    H248526   7.248   2.087   7.397 -0.1087 -0.5370  0.0616
 8111TIP3   OH248527   6.442   3.218   1.464  0.4063  0.2909 -0.2263
 8111TIP3    H148528   6.404   3.159   1.529 -1.9557  0.2815 -1.5038
 8111TIP3    H248529   6.446   3.303   1.507 -0.1606  0.0657  0.2736
 8112TIP3   OH248530   5.869   2.586   6.666 -0.6371  0.0357  0.0250
 8112TIP3    H148531   5.905   2.664   6.707  0.7285  0.7324 -2.3523
 8112TIP3    H248532   5.945   2.536   6.637 -1.5251 -0.9740 -0.6603
 8113TIP3   OH248533   6.817   2.406   0.620 -0.1899 -0.4399  0.2863
 8113TIP3    H148534   6.761   2.472   0.579  1.8857  0.3740 -1.4195
 8113TIP3    H248535   6.875   2.456   0.678  0.5668 -0.8911 -0.0653
 8114TIP3   OH248536   0.749   7.154   8.740  0.3342 -0.3027  0.4375
 8114TIP3    H148537   0.736   7.237   8.694  1.8780 -0.8718 -1.1072
 8114TIP3    H248538   0.805   7.175   8.814 -0.1436  0.1941  0.6640
 8115TIP3   OH248539   1.140   2.497   6.468 -0.2809  0.4200  0.0032
 8115TIP3    H148540   1.196   2.435   6.516 -0.6564  0.1157  0.0586
 8115TIP3    H248541   1.146   2.578   6.517  0.6629  0.5987 -0.3820
 8116TIP3   OH248542   7.146   4.129   6.438 -0.1910 -0.1802 -0.5362
 8116TIP3    H148543   7.052   4.110   6.441 -0.3387  0.5266 -0.4977
 8116TIP3    H248544   7.151   4.225   6.439  0.5096 -0.2055 -1.1557
 8117TIP3   OH248545   2.766   3.026   6.418  0.3789 -0.5569 -1.1408
 8117TIP3    H148546   2.857   3.029   6.387  0.7622 -2.7298 -0.3882
 8117TIP3    H248547   2.770   2.975   6.499 -0.6429  4.4294  2.5129
 8118TIP3   OH248548   6.296   2.098   6.662  0.6742  0.5089 -0.1750
 8118TIP3    H148549   6.255   2.168   6.713  2.4543  0.6174  1.1926
 8118TIP3    H248550   6.388   2.124   6.656  0.4833  0.9149 -4.1938
 8119TIP3   OH248551   1.480   5.858   8.991 -0.0090  0.3227 -0.0175
 8119TIP3    H148552   1.541   5.875   8.920 -1.1016  1.1287 -0.8016
 8119TIP3    H248553   1.393   5.869   8.951 -0.7394 -2.2688  0.6478
 8120TIP3   OH248554   0.702   1.304   2.270  0.1143  0.5076  0.4039
 8120TIP3    H148555   0.640   1.374   2.293  1.5542  1.0451  3.0817
 8120TIP3    H248556   0.778   1.350   2.235 -0.4453 -0.0783 -1.7518
 8121TIP3   OH248557   0.910   5.931   9.417  0.5268  0.5393  0.3839
 8121TIP3    H148558   0.955   5.847   9.420  0.0250  0.2475 -0.1133
 8121TIP3    H248559   0.835   5.920   9.476  0.0133  0.3604 -0.2816
 8122TIP3   OH248560   5.708   2.311   9.125  0.1613 -0.1315  0.6961
 8122TIP3    H148561   5.644   2.266   9.069  1.7239 -0.3984 -0.9810
 8122TIP3    H248562   5.700   2.403   9.100 -0.4453  0.0231  1.4296
 8123TIP3   OH248563   3.036   7.021   1.816  0.2278  0.3287  0.3836
 8123TIP3    H148564   3.124   6.983   1.813  0.4616  0.6875  1.9347
 8123TIP3    H248565   3.033   7.068   1.899 -2.6107 -2.6100  2.1899
 8124TIP3   OH248566   5.295   0.453   2.228  0.6786  0.2492 -0.3253
 8124TIP3    H148567   5.318   0.450   2.321  0.5636  0.0480 -0.3029
 8124TIP3    H248568   5.254   0.368   2.211  2.2034 -0.3923 -0.9586
 8125TIP3   OH248569   6.906   2.298   9.469  0.6174 -0.3489  1.2352
 8125TIP3    H148570   6.964   2.245   9.414 -0.3185 -0.0593 -0.0709
 8125TIP3    H248571   6.957   2.377   9.488  0.0494  0.7317 -1.4291
 8126TIP3   OH248572   1.095   5.680   0.078  0.4925  0.5021  0.3607
 8126TIP3    H148573   1.004   5.688   0.105  0.1516  0.2177 -0.6529
 8126TIP3    H248574   1.145   5.704   0.155 -0.3989 -2.3968  1.9702
 8127TIP3   OH248575   4.127   4.938   0.465  0.4213  0.1306 -0.2404
 8127TIP3    H148576   4.219   4.939   0.490  0.5092  0.7684 -0.5770
 8127TIP3    H248577   4.127   4.918   0.371  0.2385  0.4348 -0.3093
 8128TIP3   OH248578   6.266   2.810   8.547  0.2839 -0.1145 -0.5658
 8128TIP3    H148579   6.266   2.739   8.611  0.0877 -0.6155 -1.1173
 8128TIP3    H248580   6.181   2.804   8.504  0.4323  0.1870 -0.9068
 8129TIP3   OH248581   5.449   1.695   7.937  0.1181  0.2680  0.2136
 8129TIP3    H148582   5.490   1.759   7.879  1.4466  0.1990  1.0371
 8129TIP3    H248583   5.453   1.735   8.024  1.9452 -1.3066  0.9373
 8130TIP3   OH248584   3.385   2.151   8.581  0.1501 -0.6426 -0.7721
 8130TIP3    H148585   3.374   2.239   8.546  1.1061 -0.6886 -1.2276
 8130TIP3    H248586   3.456   2.113   8.529  1.0724 -0.9899  0.6687
 8131TIP3   OH248587   1.891   2.005   8.803  0.7336 -0.2172 -0.0803
 8131TIP3    H148588   1.931   1.995   8.889  1.9356 -1.0974 -0.7043
 8131TIP3    H248589   1.812   2.057   8.819  1.5488  0.6557  1.3642
 8132TIP3   OH248590   4.127   2.923   0.597  1.2709 -0.8423 -0.4199
 8132TIP3    H148591   4.104   2.841   0.641  0.3135 -1.0720 -1.3105
 8132TIP3    H248592   4.045   2.952   0.557  1.4874  0.7879  0.2462
 8133TIP3   OH248593   1.410   6.382   8.420 -0.6394  0.0730  0.2123
 8133TIP3    H148594   1.444   6.382   8.330  0.2650 -0.8382  0.5313
 8133TIP3    H248595   1.470   6.325   8.468 -1.5635 -0.0706  1.2300
 8134TIP3   OH248596   4.861   2.244   0.455  0.1712 -0.4819 -0.2133
 8134TIP3    H148597   4.935   2.263   0.512  0.0968 -0.4014 -0.1439
 8134TIP3    H248598   4.811   2.326   0.451 -1.1763 -1.1582  1.5898
 8135TIP3   OH248599   4.323   6.272   1.826  0.0691 -0.0549 -0.4293
 8135TIP3    H148600   4.376   6.336   1.873  0.6638 -1.0192  0.2355
 8135TIP3    H248601   4.233   6.290   1.855  0.0807  1.1775 -1.0921
 8136TIP3   OH248602   5.276   5.558   0.331 -0.0821 -0.1015 -0.0508
 8136TIP3    H148603   5.221   5.634   0.349 -1.1003 -0.7132 -0.4811
 8136TIP3    H248604   5.230   5.512   0.260 -0.5255 -2.1160  1.4491
 8137TIP3   OH248605   0.931   2.085   6.302 -0.1643 -0.7337 -0.1883
 8137TIP3    H148606   0.979   2.167   6.308 -0.3611 -0.7148  2.3664
 8137TIP3    H248607   0.996   2.017   6.317 -0.6014 -0.7800  1.8041
 8138TIP3   OH248608   3.162   2.123   1.439  0.1278 -0.4082 -0.3743
 8138TIP3    H148609   3.224   2.084   1.378  0.1951 -0.9699  0.0497
 8138TIP3    H248610   3.077   2.116   1.396  0.3609  0.4472 -0.9988
 8139TIP3   OH248611   4.023   6.274   1.771  0.6639 -0.1180 -0.4316
 8139TIP3    H148612   4.063   6.189   1.757 -0.2033 -0.7169  0.6114
 8139TIP3    H248613   3.946   6.274   1.714  0.2166 -0.3671  0.1578
 8140TIP3   OH248614   5.209   3.507   1.007 -0.2286 -0.4280 -0.5966
 8140TIP3    H148615   5.189   3.436   1.068 -0.6977 -1.5966 -2.0451
 8140TIP3    H248616   5.286   3.477   0.959  0.6736  0.8612 -0.0293
 8141TIP3   OH248617   1.072   0.691   9.144 -0.2387 -0.5117 -0.2893
 8141TIP3    H148618   1.139   0.714   9.207  1.2289  0.3795 -2.0901
 8141TIP3    H248619   1.021   0.771   9.131  0.2472 -0.3337 -1.1375
 8142TIP3   OH248620   4.648   7.063   0.280 -0.4118  0.0290  0.1800
 8142TIP3    H148621   4.715   7.071   0.347  0.4133 -1.1509 -0.4727
 8142TIP3    H248622   4.683   7.113   0.206  2.1691 -4.3224 -1.9237
 8143TIP3   OH248623   1.381   6.406   7.350 -0.5299 -0.2797  0.0016
 8143TIP3    H148624   1.467   6.415   7.391 -0.7120 -2.2960  0.9587
 8143TIP3    H248625   1.324   6.466   7.398  0.0840  0.1676  0.1705
 8144TIP3   OH248626   2.376   3.273   2.418  0.3036 -0.2450 -0.5195
 8144TIP3    H148627   2.373   3.307   2.508 -0.5052  0.5756 -0.8428
 8144TIP3    H248628   2.348   3.346   2.364  0.1257 -0.9396 -1.3879
 8145TIP3   OH248629   1.695   4.450   3.030  0.6676  0.0139  0.1317
 8145TIP3    H148630   1.730   4.391   3.097 -0.4220  2.4737  3.0762
 8145TIP3    H248631   1.748   4.530   3.039 -2.0915  1.8717  1.0020
 8146TIP3   OH248632   1.510   2.239   9.201  0.1170 -0.3402 -0.0726
 8146TIP3    H148633   1.535   2.196   9.283 -1.2979 -1.3211 -0.1343
 8146TIP3    H248634   1.459   2.174   9.154 -0.1635  0.6506 -1.1897
 8147TIP3   OH248635   6.995   7.074   9.030 -0.2774 -0.1264  0.0701
 8147TIP3    H148636   7.034   7.160   9.043  0.5167 -0.3618 -0.6731
 8147TIP3    H248637   7.006   7.030   9.115  1.9078 -0.4876 -0.3203
 8148TIP3   OH248638   7.212   7.292   7.344  0.3376 -0.5088  0.3046
 8148TIP3    H148639   7.260   7.211   7.323 -1.2743 -0.9358 -2.2259
 8148TIP3    H248640   7.198   7.288   7.438 -0.2947 -3.6042  0.1901
 8149TIP3   OH248641   0.670   6.997   2.457  0.0768  0.0465  0.7057
 8149TIP3    H148642   0.644   7.086   2.480  1.3788  0.4667  0.6583
 8149TIP3    H248643   0.646   6.944   2.533 -1.0586  0.3611  0.5724
 8150TIP3   OH248644   4.547   1.184   1.548 -0.2131 -0.0296 -0.5138
 8150TIP3    H148645   4.561   1.271   1.586  0.6152  0.0970 -1.0924
 8150TIP3    H248646   4.549   1.198   1.454  0.7844 -0.8046 -0.6232
 8151TIP3   OH248647   0.314   1.902   2.557 -0.0228  0.3914  0.2471
 8151TIP3    H148648   0.287   1.980   2.604  1.3740  0.6863  0.6160
 8151TIP3    H248649   0.278   1.829   2.608 -0.3522  0.7607  0.5471
 8152TIP3   OH248650   3.075   1.399   0.846 -0.2859 -0.0667  0.0262
 8152TIP3    H148651   3.167   1.425   0.834 -0.7003  0.8765 -1.2953
 8152TIP3    H248652   3.080   1.311   0.883  1.1503  0.1511  0.4298
 8153TIP3   OH248653   5.739   7.251   9.632  0.1326  0.1228 -0.7048
 8153TIP3    H148654   5.814   7.193   9.621 -0.0511 -0.2255 -0.1670
 8153TIP3    H248655   5.756   7.299   9.713 -0.3633 -0.1888 -0.4052
 8154TIP3   OH248656   1.381   0.601   7.996  0.3645  0.0109  0.0911
 8154TIP3    H148657   1.387   0.585   8.091  0.1648 -0.0189  0.0995
 8154TIP3    H248658   1.296   0.565   7.972  0.5658 -0.2991 -0.1620
 8155TIP3   OH248659   4.418   7.412   9.212 -0.1553  0.0242 -0.6726
 8155TIP3    H148660   4.353   7.352   9.176 -0.8987  0.4146 -0.0314
 8155TIP3    H248661   4.464   7.446   9.136 -0.7287 -0.2418 -1.1503
 8156TIP3   OH248662   5.940   6.206   2.224  0.4702 -0.0164  0.1428
 8156TIP3    H148663   5.934   6.291   2.268  0.7011 -0.2294  0.5943
 8156TIP3    H248664   5.958   6.144   2.295  2.3607 -0.1703 -0.4051
 8157TIP3   OH248665   0.747   0.440   0.844 -0.1919  0.0752 -0.2793
 8157TIP3    H148666   0.766   0.375   0.776 -0.2326  1.1494 -1.3296
 8157TIP3    H248667   0.719   0.387   0.919  1.9111 -1.2618 -0.3567
 8158TIP3   OH248668   2.567   3.809   7.750 -0.0780  0.4646 -0.1048
 8158TIP3    H148669   2.508   3.883   7.732 -0.3156  0.6894  1.4744
 8158TIP3    H248670   2.580   3.812   7.845  1.9473  0.0021 -0.3365
 8159TIP3   OH248671   0.756   5.738   8.067 -0.1517 -0.2532 -0.5059
 8159TIP3    H148672   0.765   5.693   7.983  1.2483 -0.0099 -0.5111
 8159TIP3    H248673   0.714   5.822   8.045  1.3655  0.3663 -1.1836
 8160TIP3   OH248674   4.310   1.756   7.511 -0.7607 -0.5010 -0.0532
 8160TIP3    H148675   4.405   1.767   7.519 -0.8466  1.6969 -1.3362
 8160TIP3    H248676   4.277   1.844   7.490 -2.9065 -1.5007 -1.1846
 8161TIP3   OH248677   7.407   3.941   0.889 -0.3393 -0.2589  0.2229
 8161TIP3    H148678   7.500   3.920   0.888 -0.3965 -0.6090  1.0355
 8161TIP3    H248679   7.383   3.953   0.797  1.3234  3.5696  0.1127
 8162TIP3   OH248680   1.046   5.078   0.283  0.6307 -0.1203  0.1599
 8162TIP3    H148681   1.029   5.016   0.354  2.2189 -1.9799 -1.0003
 8162TIP3    H248682   0.984   5.053   0.214  0.0605  0.7733  0.3285
 8163TIP3   OH248683   6.164   1.048   8.875 -0.0582 -0.0690  0.9728
 8163TIP3    H148684   6.233   0.982   8.881  0.6036  0.3134 -1.3825
 8163TIP3    H248685   6.083   0.998   8.868  0.1962 -0.5677  1.5091
 8164TIP3   OH248686   3.530   0.326   1.086 -0.0723 -0.1181  0.1836
 8164TIP3    H148687   3.566   0.286   1.166  0.1073  1.2481  0.8280
 8164TIP3    H248688   3.540   0.259   1.019 -1.0303 -1.6390  1.4915
 8165TIP3   OH248689   5.964   2.189   9.133 -0.3434  0.1180  0.6310
 8165TIP3    H148690   5.876   2.217   9.108  0.4032  1.0557 -1.0980
 8165TIP3    H248691   5.977   2.107   9.085 -0.7512 -0.7485  1.9560
 8166TIP3   OH248692   2.700   3.357   1.696  0.2859 -0.5764 -0.0220
 8166TIP3    H148693   2.719   3.379   1.787 -0.5892 -0.3823  0.1222
 8166TIP3    H248694   2.673   3.440   1.656  4.0787  0.1711 -1.4330
 8167TIP3   OH248695   3.722   4.772   1.757  0.5443 -0.4410 -0.1586
 8167TIP3    H148696   3.678   4.690   1.734 -1.6579  0.5259  0.3686
 8167TIP3    H248697   3.730   4.819   1.674  0.6605 -0.6657 -0.2739
 8168TIP3   OH248698   4.376   1.930   2.078  0.1666 -0.8956  0.6013
 8168TIP3    H148699   4.354   1.947   1.986 -2.0469  0.2264  1.2687
 8168TIP3    H248700   4.441   1.997   2.099  1.6436 -1.9378 -0.4352
 8169TIP3   OH248701   6.572   5.146   9.520 -0.0300  0.5193  0.4133
 8169TIP3    H148702   6.605   5.110   9.437  0.6635 -1.8555  1.6267
 8169TIP3    H248703   6.481   5.118   9.523 -0.3408  1.4485  0.0450
 8170TIP3   OH248704   4.812   0.274   2.028  0.0427 -0.1459 -0.3432
 8170TIP3    H148705   4.766   0.343   1.981  0.0240  0.4469  0.5117
 8170TIP3    H248706   4.867   0.232   1.963 -0.9210 -0.1766 -1.1606
 8171TIP3   OH248707   5.616   5.151   0.500  0.1564 -0.5091 -0.4232
 8171TIP3    H148708   5.541   5.208   0.481 -0.0661  0.1140  1.9767
 8171TIP3    H248709   5.582   5.087   0.563  1.3253 -0.9864 -0.2585
 8172TIP3   OH248710   1.661   5.763   1.696  0.0710  0.3985 -0.1416
 8172TIP3    H148711   1.666   5.819   1.618 -3.3460  0.4825 -0.4875
 8172TIP3    H248712   1.641   5.824   1.767 -2.8599 -0.1425 -0.3749
 8173TIP3   OH248713   3.502   0.201   8.737  0.7668 -0.1976  0.9966
 8173TIP3    H148714   3.576   0.150   8.767  0.1220 -0.4750  2.1764
 8173TIP3    H248715   3.475   0.252   8.814 -1.5122 -1.6170  1.2199
 8174TIP3   OH248716   1.262   0.730   1.261 -0.2501 -0.2531 -0.1277
 8174TIP3    H148717   1.323   0.766   1.197  0.8551 -1.9657 -0.0986
 8174TIP3    H248718   1.176   0.751   1.225  0.3323 -0.9430 -2.0974
 8175TIP3   OH248719   7.379   5.516   9.301  0.5423  0.5092  0.2798
 8175TIP3    H148720   7.320   5.441   9.291  1.6784 -0.6106  1.6350
 8175TIP3    H248721   7.348   5.579   9.235 -2.1762  0.0047  0.9364
 8176TIP3   OH248722   2.343   0.194   8.496  0.2987  0.0144 -0.2071
 8176TIP3    H148723   2.269   0.192   8.556 -0.0806  0.1922 -0.6634
 8176TIP3    H248724   2.339   0.281   8.456  0.4703 -0.1484 -0.5808
 8177TIP3   OH248725   6.728   2.291   7.990 -0.3358 -0.1771 -0.3370
 8177TIP3    H148726   6.657   2.258   7.935 -0.3083 -1.6392  0.4718
 8177TIP3    H248727   6.696   2.375   8.023 -0.9683 -0.0017 -1.3571
 8178TIP3   OH248728   2.077   4.615   9.411 -0.0489  0.6453 -0.4072
 8178TIP3    H148729   2.125   4.693   9.386  0.6414  0.2354 -0.3882
 8178TIP3    H248730   2.135   4.569   9.472 -0.0417 -0.3476 -1.1321
 8179TIP3   OH248731   5.142   3.346   6.792 -0.0080 -0.0764 -0.0296
 8179TIP3    H148732   5.054   3.375   6.767  0.2611  0.5630 -0.2572
 8179TIP3    H248733   5.132   3.253   6.809 -0.8179  0.0657  0.3451
 8180TIP3   OH248734   1.100   3.938   7.192 -0.1460  0.3036  0.1894
 8180TIP3    H148735   1.163   3.915   7.123  0.4286  0.2902  0.7031
 8180TIP3    H248736   1.028   3.876   7.182  0.2638 -0.1500  0.0359
 8181TIP3   OH248737   2.235   4.931   7.860 -0.6165 -0.0703  0.4840
 8181TIP3    H148738   2.303   4.953   7.797 -0.0771  1.2130  1.4744
 8181TIP3    H248739   2.245   4.837   7.874 -0.1376 -0.1923 -0.6172
 8182TIP3   OH248740   4.168   3.051   1.510 -0.4089  0.3491  0.3046
 8182TIP3    H148741   4.154   3.002   1.430 -0.1794  0.5759  0.1224
 8182TIP3    H248742   4.260   3.078   1.505 -0.7698  1.5776 -0.0413
 8183TIP3   OH248743   2.100   2.190   7.330  0.0131 -0.1546  0.3337
 8183TIP3    H148744   2.170   2.220   7.271  0.7743 -2.1552  0.1506
 8183TIP3    H248745   2.110   2.095   7.333 -2.2842 -0.4441  0.8664
 8184TIP3   OH248746   2.499   0.356   7.815  0.2647 -0.4747  0.3012
 8184TIP3    H148747   2.408   0.385   7.808  1.0243  2.8594  2.0529
 8184TIP3    H248748   2.545   0.431   7.851  4.1478 -1.3106 -2.3025
 8185TIP3   OH248749   6.414   1.994   1.784  0.6691  0.2107  0.4915
 8185TIP3    H148750   6.349   2.012   1.851 -1.4194 -2.6858 -0.5308
 8185TIP3    H248751   6.498   2.015   1.825 -0.7093  1.9019  2.6853
 8186TIP3   OH248752   6.295   0.826   2.756  0.3046 -0.6251 -0.4177
 8186TIP3    H148753   6.379   0.798   2.792  1.3492  0.4560 -1.8558
 8186TIP3    H248754   6.238   0.750   2.765  0.5444 -0.5466  3.0784
 8187TIP3   OH248755   6.170   7.175   9.203  0.1290  0.2994  0.1304
 8187TIP3    H148756   6.080   7.201   9.221  0.2940  0.7741  0.3046
 8187TIP3    H248757   6.165   7.084   9.175 -0.4331  0.4233 -0.1640
 8188TIP3   OH248758   4.130   4.194   2.495 -0.3602  0.2073 -0.2423
 8188TIP3    H148759   4.185   4.122   2.526  0.4006  1.3288  1.1202
 8188TIP3    H248760   4.132   4.259   2.566 -1.8621  1.1374 -0.9852
 8189TIP3   OH248761   5.289   2.320   7.195 -0.2637 -0.4663 -0.5710
 8189TIP3    H148762   5.238   2.360   7.124  0.3751 -0.0350 -0.7938
 8189TIP3    H248763   5.372   2.296   7.154  1.0185  1.8400  0.5158
 8190TIP3   OH248764   0.866   5.153   0.528  0.2493  0.4651 -0.4352
 8190TIP3    H148765   0.940   5.132   0.586  0.3330 -1.1274 -1.0672
 8190TIP3    H248766   0.882   5.243   0.501  0.9953  0.7423  0.8453
 8191TIP3   OH248767   1.306   0.293   1.990  0.5869 -0.5397  0.0336
 8191TIP3    H148768   1.304   0.213   2.043  2.5988 -2.6688 -2.7561
 8191TIP3    H248769   1.225   0.289   1.939  0.0315 -0.0402  0.8665
 8192TIP3   OH248770   2.128   6.597   6.414  0.3618  0.0545  0.2264
 8192TIP3    H148771   2.132   6.502   6.428 -0.9255 -0.0541 -0.0426
 8192TIP3    H248772   2.128   6.633   6.503 -0.9994 -0.3077  0.4016
 8193TIP3   OH248773   3.339   1.841   9.322 -0.2562 -0.2050  0.1826
 8193TIP3    H148774   3.422   1.817   9.282 -1.0401 -1.6081 -0.7094
 8193TIP3    H248775   3.294   1.893   9.255 -0.2593  0.2246  0.5143
 8194TIP3   OH248776   4.549   3.623   6.689  0.5854  0.1467  0.6659
 8194TIP3    H148777   4.497   3.563   6.743 -0.7021  0.9099  0.3089
 8194TIP3    H248778   4.513   3.614   6.601  1.3605  0.3705  0.3196
 8195TIP3   OH248779   7.420   4.801   0.919 -0.2058 -0.5455 -0.3197
 8195TIP3    H148780   7.433   4.809   0.824 -0.6513  2.1539 -0.2189
 8195TIP3    H248781   7.489   4.741   0.947  1.3202  0.2912 -2.0654
 8196TIP3   OH248782   2.877   3.183   1.568  0.2061  0.0481 -0.3556
 8196TIP3    H148783   2.818   3.250   1.603 -0.4404  0.0808 -1.4546
 8196TIP3    H248784   2.839   3.100   1.597  1.0772  0.1362  1.1140
 8197TIP3   OH248785   6.117   6.330   0.791 -0.1956 -0.1229 -0.2029
 8197TIP3    H148786   6.192   6.373   0.750 -0.6171 -0.7158 -1.6788
 8197TIP3    H248787   6.044   6.389   0.776 -0.3364 -0.2960 -0.2042
 8198TIP3   OH248788   2.338   5.539   0.978 -0.4159  0.1284  0.0598
 8198TIP3    H148789   2.415   5.543   1.034 -0.9536  1.4439  0.7301
 8198TIP3    H248790   2.366   5.487   0.902  0.5365 -1.0477  1.1753
 8199TIP3   OH248791   2.234   3.648   0.896 -0.4370 -0.1404 -0.1527
 8199TIP3    H148792   2.161   3.601   0.855 -0.1618  0.3441 -1.2195
 8199TIP3    H248793   2.308   3.588   0.888 -0.6692 -0.5614  0.7758
 8200TIP3   OH248794   0.130   5.800   0.742 -0.5136  0.2675  0.3498
 8200TIP3    H148795   0.066   5.764   0.681 -0.9960 -0.3415  1.1719
 8200TIP3    H248796   0.178   5.866   0.693 -0.6997 -0.3959 -0.7522
 8201TIP3   OH248797   1.177   0.117   2.429  0.5413 -0.4392 -0.3645
 8201TIP3    H148798   1.166   0.061   2.353 -0.2356  1.2558 -1.5686
 8201TIP3    H248799   1.181   0.057   2.503 -2.3888 -2.0228 -1.3403
 8202TIP3   OH248800   5.711   0.196   7.919  0.2215  0.3459  0.4378
 8202TIP3    H148801   5.641   0.168   7.861 -0.3781 -0.4287  1.5106
 8202TIP3    H248802   5.772   0.244   7.862 -0.4769 -0.1628 -0.7639
 8203TIP3   OH248803   1.664   6.624   7.164  0.0694 -0.1445  0.0864
 8203TIP3    H148804   1.676   6.622   7.259 -2.2386 -0.5016  0.4381
 8203TIP3    H248805   1.708   6.704   7.135 -0.7297  0.9542  1.7369
 8204TIP3   OH248806   1.747   6.150   1.766  0.5653  0.2573 -0.1544
 8204TIP3    H148807   1.658   6.140   1.801  0.6192  1.0517  0.2423
 8204TIP3    H248808   1.768   6.243   1.781  0.6802  0.5845 -2.1063
 8205TIP3   OH248809   6.174   4.467   2.544 -0.2086 -0.3295  0.7901
 8205TIP3    H148810   6.192   4.481   2.451 -0.1068 -0.0127  0.8575
 8205TIP3    H248811   6.123   4.544   2.571 -0.3130 -0.4613  0.9762
 8206TIP3   OH248812   2.183   0.263   0.941 -0.5641 -0.6009  0.8470
 8206TIP3    H148813   2.153   0.260   1.032  1.3250 -2.2611  1.4792
 8206TIP3    H248814   2.261   0.318   0.943 -1.1492  0.2885 -0.0096
 8207TIP3   OH248815   1.415   6.516   0.860 -0.2624 -0.5831  0.3690
 8207TIP3    H148816   1.338   6.522   0.804 -0.3285  0.3741  0.5439
 8207TIP3    H248817   1.485   6.554   0.807 -0.1980 -0.2223  0.7105
 8208TIP3   OH248818   4.945   7.034   1.652 -0.2461 -0.6703  0.3994
 8208TIP3    H148819   4.854   7.003   1.650 -0.5116  0.0799  0.4224
 8208TIP3    H248820   4.971   7.033   1.560 -1.0928  1.3809  0.0850
 8209TIP3   OH248821   2.881   2.880   7.558 -0.0262 -0.4274  0.4608
 8209TIP3    H148822   2.821   2.953   7.541  0.1433 -0.5901 -0.9175
 8209TIP3    H248823   2.837   2.829   7.627 -1.4579 -0.5069 -0.4691
 8210TIP3   OH248824   2.901   5.280   1.940 -0.1987  0.5382 -0.2761
 8210TIP3    H148825   2.936   5.227   1.868  0.0914 -0.4124  0.5434
 8210TIP3    H248826   2.839   5.222   1.984  0.8773  0.5065  1.2506
 8211TIP3   OH248827   6.129   5.282   0.537  0.2556  0.3795  0.2464
 8211TIP3    H148828   6.187   5.290   0.612 -0.2547 -0.3410  0.7285
 8211TIP3    H248829   6.050   5.240   0.571  0.0315  0.0038 -0.6874
 8212TIP3   OH248830   4.182   7.346   8.400  0.0472 -0.9351 -0.4186
 8212TIP3    H148831   4.120   7.321   8.468 -0.2893  0.5593 -0.1315
 8212TIP3    H248832   4.127   7.369   8.325 -0.0568  2.6605  0.5520
 8213TIP3   OH248833   1.580   5.019   2.704  0.1863  0.5130 -0.2693
 8213TIP3    H148834   1.594   5.008   2.610  0.3619 -0.7002 -0.1183
 8213TIP3    H248835   1.502   4.967   2.723 -1.6173  3.0637 -0.2050
 8214TIP3   OH248836   0.174   3.748   7.733  0.2475 -0.0600  0.0013
 8214TIP3    H148837   0.242   3.776   7.794 -0.3197 -1.2533  1.2374
 8214TIP3    H248838   0.093   3.755   7.784 -0.2249 -1.2193 -0.5722
 8215TIP3   OH248839   3.822   5.414   7.705 -0.2449  0.0449 -0.2148
 8215TIP3    H148840   3.819   5.421   7.609 -0.1984  0.3555 -0.1950
 8215TIP3    H248841   3.881   5.484   7.732 -1.1889  0.7329  0.1211
 8216TIP3   OH248842   6.550   2.598   1.009 -0.4253  0.0345 -0.3035
 8216TIP3    H148843   6.638   2.561   1.018  0.7914  1.9111 -3.1351
 8216TIP3    H248844   6.506   2.542   0.945 -0.2279  0.7669 -1.0943
 8217TIP3   OH248845   1.921   3.214   9.620 -0.1604  0.1931 -0.3525
 8217TIP3    H148846   1.926   3.135   9.673 -0.4003  0.5549  0.2111
 8217TIP3    H248847   1.827   3.233   9.612 -0.0672  1.1492  0.6114
 8218TIP3   OH248848   7.213   6.400   7.564 -0.5466 -0.8254  0.4048
 8218TIP3    H148849   7.147   6.468   7.551  0.5355  0.3410  0.7758
 8218TIP3    H248850   7.284   6.445   7.611  0.2740 -2.1720  0.4900
 8219TIP3   OH248851   1.804   3.337   2.114 -0.1429  0.3434 -0.0817
 8219TIP3    H148852   1.813   3.418   2.166  2.3975  0.6089 -0.8266
 8219TIP3    H248853   1.857   3.273   2.160 -1.8633 -0.8768  0.3018
 8220TIP3   OH248854   2.616   6.148   6.853  0.6573 -0.0254 -0.1018
 8220TIP3    H148855   2.710   6.144   6.833  0.7870  2.0485 -0.0768
 8220TIP3    H248856   2.583   6.222   6.802 -0.4341  0.9151  1.8416
 8221TIP3   OH248857   3.761   4.860   0.306  0.3589 -0.1130  0.7407
 8221TIP3    H148858   3.788   4.798   0.238  0.2472  0.0339  0.5594
 8221TIP3    H248859   3.665   4.858   0.304  0.3493  0.2892  0.5179
 8222TIP3   OH248860   6.544   2.543   7.229 -0.5536 -0.7967 -0.0487
 8222TIP3    H148861   6.528   2.589   7.146  1.3393  0.8327  0.4152
 8222TIP3    H248862   6.481   2.581   7.290  0.6071  0.8740  0.1795
 8223TIP3   OH248863   7.005   2.897   0.358  0.0964  0.1574  0.1458
 8223TIP3    H148864   6.997   2.992   0.367  0.0663 -0.0229  2.5843
 8223TIP3    H248865   7.094   2.878   0.386 -0.1624 -0.6063  0.4754
 8224TIP3   OH248866   6.181   4.741   2.307  0.5159  0.2336  0.4085
 8224TIP3    H148867   6.097   4.734   2.352  0.5541 -0.2553  0.4086
 8224TIP3    H248868   6.242   4.771   2.374  0.3646  0.4788  0.4362
 8225TIP3   OH248869   5.088   5.779   0.839 -0.6618  0.0902 -0.6225
 8225TIP3    H148870   5.090   5.828   0.757 -2.4392 -0.1244 -0.8406
 8225TIP3    H248871   5.051   5.839   0.903 -0.4364 -0.1451 -0.2636
 8226TIP3   OH248872   0.236   4.427   8.142  0.0137 -0.5686  0.6693
 8226TIP3    H148873   0.162   4.409   8.083 -0.5565 -0.7373  1.4234
 8226TIP3    H248874   0.312   4.430   8.084 -0.8466  2.0348 -0.4927
 8227TIP3   OH248875   2.577   3.551   8.559 -0.1066  0.0601 -0.1966
 8227TIP3    H148876   2.578   3.633   8.510  0.1699  0.6068  0.7078
 8227TIP3    H248877   2.581   3.578   8.651  1.5205 -1.0150  0.0725
 8228TIP3   OH248878   6.880   7.016   0.042 -0.6157 -0.0178  0.0869
 8228TIP3    H148879   6.907   7.018   0.133 -0.2251  0.9415 -0.0410
 8228TIP3    H248880   6.820   7.091   0.033 -2.3881 -1.3537  0.0688
 8229TIP3   OH248881   4.547   3.160   8.960  0.0791 -0.0061 -0.5406
 8229TIP3    H148882   4.623   3.106   8.977 -0.9469 -1.0866  0.7903
 8229TIP3    H248883   4.579   3.228   8.901  2.5904  0.8390  1.6048
 8230TIP3   OH248884   4.062   4.690   6.665  0.2069 -0.2026 -0.3072
 8230TIP3    H148885   4.138   4.710   6.611  1.3438 -0.4618  1.1254
 8230TIP3    H248886   4.018   4.775   6.676  0.5466  0.0367 -0.7709
 8231TIP3   OH248887   5.036   3.156   8.367  0.0306 -0.2854 -1.1600
 8231TIP3    H148888   5.071   3.069   8.388 -0.9878 -1.3464 -3.4784
 8231TIP3    H248889   5.112   3.206   8.336  0.1884 -1.3588 -2.6269
 8232TIP3   OH248890   0.646   4.887   1.853 -0.6213 -1.0599  0.0587
 8232TIP3    H148891   0.608   4.955   1.798  0.3289 -1.8014 -1.5890
 8232TIP3    H248892   0.726   4.927   1.888 -0.6341 -0.9636 -0.0202
 8233TIP3   OH248893   0.528   0.214   7.513 -0.9935 -0.3274  0.3417
 8233TIP3    H148894   0.522   0.240   7.604 -1.5102  1.9267 -0.2827
 8233TIP3    H248895   0.593   0.273   7.475 -0.6135 -1.3747 -0.7324
 8234TIP3   OH248896   3.284   2.712   7.474 -0.4314 -0.4480 -0.0225
 8234TIP3    H148897   3.255   2.801   7.494 -0.4899 -0.4903  0.0811
 8234TIP3    H248898   3.260   2.661   7.551  1.0603 -0.2385  0.6182
 8235TIP3   OH248899   5.126   6.430   1.843 -0.3762  0.1754 -0.3347
 8235TIP3    H148900   5.046   6.457   1.887 -1.4887 -1.1998 -1.4504
 8235TIP3    H248901   5.112   6.339   1.820  1.6550 -0.1960 -0.2712
 8236TIP3   OH248902   3.044   5.556   8.097 -0.6364 -0.5600  0.1565
 8236TIP3    H148903   3.035   5.463   8.075 -1.0781 -0.4534 -0.1239
 8236TIP3    H248904   2.961   5.579   8.137 -0.2676 -0.4551  0.8730
 8237TIP3   OH248905   0.529   6.362   9.553  0.1254 -0.0853 -0.1468
 8237TIP3    H148906   0.593   6.421   9.514 -0.8089  0.2160 -1.2862
 8237TIP3    H248907   0.575   6.279   9.561  0.2707 -0.2743 -2.3159
 8238TIP3   OH248908   4.516   2.841   8.612  0.0931 -0.1564 -0.0549
 8238TIP3    H148909   4.517   2.916   8.552 -2.0607  0.8118  0.9764
 8238TIP3    H248910   4.545   2.767   8.560  0.7204  1.1035 -1.5654
 8239TIP3   OH248911   6.378   2.012   8.991  0.2186  0.0044 -0.5170
 8239TIP3    H148912   6.432   2.081   8.952  1.0478  0.5670  1.4576
 8239TIP3    H248913   6.419   1.931   8.964 -1.2051  0.1537 -3.5039
 8240TIP3   OH248914   2.655   6.394   0.652  0.3236  0.3523  0.3006
 8240TIP3    H148915   2.743   6.359   0.636  0.3031 -1.1320  2.8335
 8240TIP3    H248916   2.662   6.440   0.735 -1.0183  1.4395 -0.1495
 8241TIP3   OH248917   6.260   4.858   2.079 -0.1657  0.1505 -0.2882
 8241TIP3    H148918   6.224   4.802   2.147 -0.8213 -0.2448 -0.9468
 8241TIP3    H248919   6.257   4.946   2.117  0.3860 -0.1819  0.5524
 8242TIP3   OH248920   6.217   6.141   1.996 -0.8471 -0.4913  0.1824
 8242TIP3    H148921   6.148   6.075   1.995 -1.6709  0.2405  2.5026
 8242TIP3    H248922   6.171   6.225   1.996  0.0900  0.0445 -0.0225
 8243TIP3   OH248923   2.380   7.191   8.716 -0.0240  0.3957 -0.2789
 8243TIP3    H148924   2.357   7.101   8.693  0.3137  0.7564 -2.2236
 8243TIP3    H248925   2.476   7.192   8.718 -0.0305  0.4101  1.1863
 8244TIP3   OH248926   1.497   3.091   1.856  0.1674  0.4464 -0.5595
 8244TIP3    H148927   1.499   2.995   1.864 -1.1991  0.2734 -1.8210
 8244TIP3    H248928   1.520   3.122   1.944 -1.8962 -1.0826  0.6253
 8245TIP3   OH248929   6.280   6.983   0.501 -0.0038  0.8921  0.4084
 8245TIP3    H148930   6.279   7.039   0.424 -0.2583 -2.0681 -1.8987
 8245TIP3    H248931   6.192   6.989   0.537  0.1826  2.4790  0.6561
 8246TIP3   OH248932   4.328   3.850   7.883 -0.0405 -0.2859 -0.5028
 8246TIP3    H148933   4.278   3.928   7.907 -0.4406 -0.2382 -1.4449
 8246TIP3    H248934   4.363   3.870   7.796  0.4734 -0.8685 -0.4379
 8247TIP3   OH248935   1.611   5.971   8.368 -0.6472  0.2502  0.2814
 8247TIP3    H148936   1.594   5.971   8.274  0.3302 -0.2276  0.1053
 8247TIP3    H248937   1.568   5.892   8.400 -1.2837  0.5924  0.3107
 8248TIP3   OH248938   1.194   3.377   8.509  0.6109  0.3651  0.4059
 8248TIP3    H148939   1.121   3.373   8.571 -1.1123 -1.4485 -1.5653
 8248TIP3    H248940   1.252   3.305   8.536  0.3824  0.2255  0.5350
 8249TIP3   OH248941   1.940   5.302   1.596  0.4690 -0.0603  0.0673
 8249TIP3    H148942   1.911   5.393   1.584 -0.1251 -0.2884 -0.2558
 8249TIP3    H248943   1.880   5.266   1.661  0.1284 -0.4864 -0.4784
 8250TIP3   OH248944   7.412   7.420   8.930 -0.1114 -0.4076 -0.1820
 8250TIP3    H148945   7.482   7.356   8.916 -0.1446 -0.6034  0.5267
 8250TIP3    H248946   7.455   7.494   8.974 -0.8352 -1.7171  3.0152
 8251TIP3   OH248947   0.417   6.973   1.397 -0.4230  0.2366  0.0583
 8251TIP3    H148948   0.355   6.923   1.344 -3.1277  0.7914  2.4497
 8251TIP3    H248949   0.451   7.039   1.337 -1.2524 -0.8260 -1.6646
 8252TIP3   OH248950   5.181   3.054   0.708 -0.1970  0.2760  0.6844
 8252TIP3    H148951   5.178   3.020   0.797 -0.7435  1.6223  1.2000
 8252TIP3    H248952   5.197   3.148   0.718  0.7217  0.2950 -0.6769
 8253TIP3   OH248953   2.447   1.596   0.256  0.7439  0.5787  0.2271
 8253TIP3    H148954   2.366   1.616   0.303  0.2951 -0.3046 -0.1371
 8253TIP3    H248955   2.513   1.651   0.297  0.0995  0.7897  1.0084
 8254TIP3   OH248956   4.641   7.320   2.090  0.3156 -0.1608 -0.5260
 8254TIP3    H148957   4.580   7.388   2.117 -1.0219 -1.6330  0.3526
 8254TIP3    H248958   4.631   7.251   2.156  1.2682 -1.4107 -1.6261
 8255TIP3   OH248959   4.293   4.984   9.082 -0.3069 -0.4829  0.6770
 8255TIP3    H148960   4.249   4.984   9.167  0.7028  0.8942  1.2407
 8255TIP3    H248961   4.236   5.034   9.024  0.1211  0.6464  1.2049
 8256TIP3   OH248962   6.231   1.020   0.516  0.1502 -0.0220  0.2356
 8256TIP3    H148963   6.310   1.056   0.556  1.2338 -0.5225 -1.3675
 8256TIP3    H248964   6.228   0.929   0.546  0.4701 -0.1392 -0.0716
 8257TIP3   OH248965   0.224   4.675   0.956 -0.3709  0.0145 -0.3952
 8257TIP3    H148966   0.275   4.605   0.915 -0.0003 -0.9468  1.5582
 8257TIP3    H248967   0.276   4.754   0.944  0.6541 -0.5959 -0.1315
 8258TIP3   OH248968   5.471   4.868   1.557  0.1881  0.0876 -0.9033
 8258TIP3    H148969   5.492   4.785   1.601 -2.2861 -0.7241 -1.1104
 8258TIP3    H248970   5.516   4.861   1.473  0.2720 -0.9281 -0.7941
 8259TIP3   OH248971   3.691   5.497   2.019  0.2137  0.1595 -0.2989
 8259TIP3    H148972   3.719   5.557   2.087 -0.7631  0.2037  0.0741
 8259TIP3    H248973   3.762   5.433   2.012  0.0667 -0.1837  1.1669
 8260TIP3   OH248974   1.088   2.793   7.343 -0.0055  0.5285  0.5420
 8260TIP3    H148975   1.063   2.873   7.296 -0.2578 -0.2831 -0.7558
 8260TIP3    H248976   1.128   2.737   7.276  0.8409 -0.1548  1.5825
 8261TIP3   OH248977   2.065   5.173   2.166  1.0173  0.4776 -0.1497
 8261TIP3    H148978   2.104   5.248   2.212  0.4372  0.3959  0.4934
 8261TIP3    H248979   2.130   5.149   2.100  1.0270  1.8360 -0.6682
 8262TIP3   OH248980   5.208   0.399   0.657 -0.1943  0.1328  0.3140
 8262TIP3    H148981   5.152   0.444   0.720  1.4236 -0.5965  2.3908
 8262TIP3    H248982   5.297   0.430   0.677  0.2359  2.0130 -3.4897
 8263TIP3   OH248983   1.303   4.477   8.393 -0.1786  0.4079  0.4781
 8263TIP3    H148984   1.266   4.390   8.399 -2.6728  1.2107 -1.4336
 8263TIP3    H248985   1.303   4.510   8.483 -1.5102 -0.6805  0.9064
 8264TIP3   OH248986   3.322   6.151   8.121 -0.2974  0.4308  0.2277
 8264TIP3    H148987   3.347   6.228   8.070  0.0494 -0.6670 -1.3097
 8264TIP3    H248988   3.385   6.083   8.097 -1.4474 -0.7666  0.4481
 8265TIP3   OH248989   4.804   4.906   1.398 -0.2881  0.2588 -0.2702
 8265TIP3    H148990   4.871   4.963   1.435  1.3045 -0.5295 -1.8393
 8265TIP3    H248991   4.800   4.832   1.458 -0.7669  0.9373  0.5600
 8266TIP3   OH248992   3.840   3.033   0.132 -0.3859 -0.7707 -1.4235
 8266TIP3    H148993   3.842   3.010   0.039  0.3909 -2.3450 -1.0525
 8266TIP3    H248994   3.892   3.113   0.138 -1.4751  0.0669 -2.4908
 8267TIP3   OH248995   5.212   5.650   7.393  1.0714 -0.0316 -0.1625
 8267TIP3    H148996   5.222   5.716   7.462  0.9518  0.2508 -0.4130
 8267TIP3    H248997   5.273   5.581   7.417 -0.7350 -1.1392  1.6286
 8268TIP3   OH248998   0.261   4.567   1.688  0.4927  0.9178 -0.0134
 8268TIP3    H148999   0.275   4.617   1.608 -1.1190  1.9838  0.3202
 8268TIP3    H249000   0.180   4.603   1.725  1.7029  1.1421  2.6247
 8269TIP3   OH249001   5.172   2.010   1.310 -0.5706 -0.1870  0.4906
 8269TIP3    H149002   5.228   1.971   1.377 -0.0467  1.5372  1.0989
 8269TIP3    H249003   5.199   1.965   1.229  2.9327  1.6049  0.4452
 8270TIP3   OH249004   7.351   0.566   0.066  0.2992 -0.3056  0.1264
 8270TIP3    H149005   7.401   0.484   0.063 -0.3250 -0.7799  1.7511
 8270TIP3    H249006   7.287   0.557  -0.005  1.7477 -0.1471 -1.2815
 8271TIP3   OH249007   2.840   4.038   2.665 -0.3291 -0.2429  0.1396
 8271TIP3    H149008   2.812   4.094   2.737  0.2308  0.1503  0.0636
 8271TIP3    H249009   2.919   4.081   2.631  0.3178 -1.2661  0.2982
 8272TIP3   OH249010   4.360   3.585   1.468 -0.1699  0.1825 -0.0427
 8272TIP3    H149011   4.344   3.679   1.479 -1.8049  0.1864 -2.0263
 8272TIP3    H249012   4.441   3.580   1.418 -0.3819  0.5645 -0.4294
 8273TIP3   OH249013   1.936   7.101   2.110  0.2397 -1.0604  0.3785
 8273TIP3    H149014   1.996   7.110   2.037  0.3124 -1.0648  0.4381
 8273TIP3    H249015   1.851   7.082   2.069 -0.3848  1.8913  0.1397
 8274TIP3   OH249016   6.394   0.109   2.423 -0.0938  0.3098  0.3391
 8274TIP3    H149017   6.423   0.185   2.473 -0.2307  0.0388  0.8418
 8274TIP3    H249018   6.382   0.041   2.489  0.4438 -0.2750 -0.1579
 8275TIP3   OH249019   5.259   1.424   7.333 -0.3303 -0.1969  0.2958
 8275TIP3    H149020   5.198   1.371   7.384  0.0438  0.1315  1.1103
 8275TIP3    H249021   5.303   1.480   7.398  0.8302 -0.4166 -0.2622
 8276TIP3   OH249022   5.501   2.818   8.173 -0.2571 -0.2484  0.6423
 8276TIP3    H149023   5.426   2.839   8.118 -0.5663  0.5738  1.3603
 8276TIP3    H249024   5.464   2.778   8.251  0.1057 -0.4950  0.6943
 8277TIP3   OH249025   5.878   4.048   9.653 -0.8181 -0.2487 -0.0781
 8277TIP3    H149026   5.919   4.133   9.638 -0.1114 -0.6698 -0.5919
 8277TIP3    H249027   5.826   4.033   9.575  0.8783 -1.3085 -1.0594
 8278TIP3   OH249028   4.894   5.397   2.361  0.1398 -0.3669 -0.2675
 8278TIP3    H149029   4.851   5.482   2.372  0.2287 -0.3464 -0.0763
 8278TIP3    H249030   4.987   5.418   2.349  0.2064 -0.4513  0.0818
 8279TIP3   OH249031   5.569   0.701   1.609 -0.3712  0.3637 -0.0198
 8279TIP3    H149032   5.528   0.764   1.668 -1.0835 -0.0910 -0.0168
 8279TIP3    H249033   5.609   0.754   1.540  2.5481  1.1016  2.0459
 8280TIP3   OH249034   4.954   0.868   9.149  0.1775  1.0170  0.0362
 8280TIP3    H149035   4.939   0.870   9.243 -1.3222 -2.5075  0.0382
 8280TIP3    H249036   4.883   0.920   9.112 -0.2991  0.9200  0.8062
 8281TIP3   OH249037   2.914   0.276   8.160 -0.1001 -0.3692 -0.0755
 8281TIP3    H149038   2.883   0.363   8.184 -0.4772 -0.1730 -1.2135
 8281TIP3    H249039   2.847   0.217   8.194 -0.0150 -0.1937  0.4054
 8282TIP3   OH249040   1.977   4.239   1.262 -0.2240  1.0506 -0.2826
 8282TIP3    H149041   1.925   4.221   1.340 -0.7447  2.3105 -0.3080
 8282TIP3    H249042   2.048   4.296   1.293 -0.5695  1.7508 -0.7573
 8283TIP3   OH249043   4.397   6.519   8.650 -0.1769 -0.0955 -0.2176
 8283TIP3    H149044   4.358   6.511   8.563 -0.3722  0.3685 -0.1756
 8283TIP3    H249045   4.407   6.428   8.680  1.2750 -0.3397 -1.3273
 8284TIP3   OH249046   2.326   2.270   0.003 -0.0930  0.0570  0.4567
 8284TIP3    H149047   2.338   2.280  -0.092 -3.7667 -1.1964 -0.3365
 8284TIP3    H249048   2.303   2.358   0.033  0.3035  0.3160  0.0159
 8285TIP3   OH249049   3.894   3.052   7.410 -0.3586  0.1095  0.0508
 8285TIP3    H149050   3.947   3.122   7.372 -0.5412  2.1558  3.2354
 8285TIP3    H249051   3.821   3.041   7.349  1.2921  0.3870 -2.1081
 8286TIP3   OH249052   5.583   0.423   0.363 -0.1204  0.1673 -0.4596
 8286TIP3    H149053   5.557   0.515   0.375 -0.4588  0.2114 -1.4620
 8286TIP3    H249054   5.589   0.389   0.452  2.0666  1.7195  0.0701
 8287TIP3   OH249055   0.470   4.622   0.806  0.1087  0.0433  0.1398
 8287TIP3    H149056   0.559   4.604   0.774  0.3782  1.2112  0.1559
 8287TIP3    H249057   0.446   4.704   0.762 -0.7832 -0.0237  0.4940
 8288TIP3   OH249058   4.803   2.683   0.114 -0.5447  0.1028  0.0614
 8288TIP3    H149059   4.768   2.683   0.203  0.0178 -2.6599  0.3557
 8288TIP3    H249060   4.734   2.723   0.062 -0.5059  2.6821  1.7974
 8289TIP3   OH249061   5.179   7.110   2.142  0.0900  0.1996  0.6012
 8289TIP3    H149062   5.136   7.104   2.057 -0.8112  2.0646  0.8591
 8289TIP3    H249063   5.166   7.024   2.182 -1.8475  0.1255 -0.0731
 8290TIP3   OH249064   6.600   2.084   8.684  0.1738  0.2397  0.1986
 8290TIP3    H149065   6.562   2.008   8.728  1.8505 -0.2330  0.9295
 8290TIP3    H249066   6.573   2.159   8.737 -0.2595 -0.0065  0.3329
 8291TIP3   OH249067   2.188   5.655   7.714  0.7377 -0.6233 -0.4983
 8291TIP3    H149068   2.250   5.707   7.764  0.3978  0.0732 -0.7962
 8291TIP3    H249069   2.103   5.691   7.736  0.4495 -1.3831 -0.3217
 8292TIP3   OH249070   7.038   1.972   9.055  0.1505 -0.0305 -0.5627
 8292TIP3    H149071   7.067   2.064   9.059  0.4047 -0.1084 -0.6219
 8292TIP3    H249072   7.103   1.925   9.108 -0.5558 -0.0281  0.3341
 8293TIP3   OH249073   7.364   5.452   7.406 -0.1378 -0.5498  0.0798
 8293TIP3    H149074   7.372   5.419   7.495 -0.2149 -0.1025  0.2546
 8293TIP3    H249075   7.449   5.491   7.387 -1.0837  2.3175  1.1754
 8294TIP3   OH249076   6.099   3.359   9.443 -0.5273  0.2035  0.3033
 8294TIP3    H149077   6.095   3.422   9.371  1.3746  0.2098  0.1572
 8294TIP3    H249078   6.066   3.407   9.519 -0.7145  0.8252 -0.1663
 8295TIP3   OH249079   4.059   5.159   7.123  0.0473  0.2697  0.0810
 8295TIP3    H149080   3.978   5.108   7.122 -0.2485  0.7440 -0.1779
 8295TIP3    H249081   4.116   5.112   7.185 -0.6113  0.2324  0.6691
 8296TIP3   OH249082   6.787   5.558   1.976 -0.6849  0.2777 -0.6614
 8296TIP3    H149083   6.834   5.634   1.942  4.5569 -2.3506 -0.2287
 8296TIP3    H249084   6.763   5.582   2.066 -1.3255  2.1137 -1.2734
 8297TIP3   OH249085   1.943   1.026   1.892  0.2882  0.2055 -0.6448
 8297TIP3    H149086   2.029   0.992   1.918 -0.3310 -1.9469 -1.1960
 8297TIP3    H249087   1.905   0.956   1.839 -0.7196  2.2159 -2.7377
 8298TIP3   OH249088   3.763   5.590   0.049  0.5516 -0.2965 -0.4554
 8298TIP3    H149089   3.743   5.554   0.136 -0.0899 -0.2118 -0.5610
 8298TIP3    H249090   3.857   5.577   0.039  0.3956 -1.6237 -0.3404
 8299TIP3   OH249091   3.519   2.797   0.052 -0.5884 -0.5292  0.3792
 8299TIP3    H149092   3.604   2.760   0.078 -0.5190 -0.5158  0.1700
 8299TIP3    H249093   3.456   2.727   0.072 -0.3674 -1.0775 -0.7462
 8300TIP3   OH249094   2.613   0.793   2.516 -0.3070 -0.4265 -0.0661
 8300TIP3    H149095   2.671   0.861   2.482  0.6564 -1.3323 -0.2614
 8300TIP3    H249096   2.661   0.712   2.505 -0.7071 -0.9587  1.7906
 8301TIP3   OH249097   4.422   6.999   1.771 -0.4223  0.5303 -0.0454
 8301TIP3    H149098   4.408   7.006   1.866  0.2232 -0.4072  0.1361
 8301TIP3    H249099   4.372   6.921   1.746 -0.9239  1.0074 -0.5588
 8302TIP3   OH249100   7.109   5.038   0.854  0.0332 -0.4638 -0.4039
 8302TIP3    H149101   7.131   5.000   0.939  1.4190 -1.6293 -1.2222
 8302TIP3    H249102   7.014   5.042   0.853 -0.0727 -1.9116  0.5993
 8303TIP3   OH249103   0.774   3.374   9.255  0.5035 -0.2534  0.2369
 8303TIP3    H149104   0.866   3.349   9.257  0.6480 -0.0852 -1.7929
 8303TIP3    H249105   0.775   3.467   9.231 -0.1810  0.2769  2.0804
 8304TIP3   OH249106   7.200   4.373   2.231  0.0503  0.0532 -0.0714
 8304TIP3    H149107   7.153   4.309   2.284 -0.0893  2.0126  2.3608
 8304TIP3    H249108   7.291   4.343   2.232 -0.3740 -1.3404 -1.0041
 8305TIP3   OH249109   1.571   1.605   1.371  0.1230  0.2313 -0.7065
 8305TIP3    H149110   1.553   1.511   1.384  0.5859  0.0340 -1.4209
 8305TIP3    H249111   1.648   1.622   1.426 -1.1554  0.6959  1.0528
 8306TIP3   OH249112   6.917   2.861   1.140  0.0160  0.1154  0.4274
 8306TIP3    H149113   6.866   2.842   1.061  1.7790 -1.0068 -0.4956
 8306TIP3    H249114   6.946   2.776   1.172  2.7857  0.7510 -0.1368
 8307TIP3   OH249115   2.248   2.280   8.068  0.3549  0.4770  0.2903
 8307TIP3    H149116   2.189   2.240   8.004 -0.2529  1.8553 -0.0370
 8307TIP3    H249117   2.206   2.264   8.152  0.9170 -0.9202  0.3468
 8308TIP3   OH249118   7.226   3.249   1.896  0.1377  0.3732 -0.1292
 8308TIP3    H149119   7.223   3.218   1.805 -1.6676 -1.3119  0.4181
 8308TIP3    H249120   7.317   3.235   1.923  0.1218 -1.5920 -0.9170
 8309TIP3   OH249121   5.177   2.546   0.499  0.3042 -0.2503 -0.4336
 8309TIP3    H149122   5.128   2.482   0.552  0.9530 -0.0043  0.4948
 8309TIP3    H249123   5.259   2.501   0.478  0.6386  0.1630 -0.0268
 8310TIP3   OH249124   0.731   4.537   1.087  0.0257 -0.3275 -0.1076
 8310TIP3    H149125   0.796   4.486   1.134 -0.1699 -0.6502 -0.1819
 8310TIP3    H249126   0.652   4.483   1.089 -0.7448  0.7776  1.4276
 8311TIP3   OH249127   3.441   5.662   7.457 -0.1529 -0.6172  0.1091
 8311TIP3    H149128   3.453   5.644   7.364 -0.9622 -3.0962  0.3987
 8311TIP3    H249129   3.528   5.651   7.495  0.5750  2.1931 -0.5030
 8312TIP3   OH249130   0.413   5.640   0.446  0.2644 -0.0710  0.0933
 8312TIP3    H149131   0.407   5.731   0.416 -4.7939  0.3218  1.3173
 8312TIP3    H249132   0.400   5.646   0.541  0.3400 -2.0713  0.2629
 8313TIP3   OH249133   3.654   0.499   8.986 -0.0385  0.0230  0.4426
 8313TIP3    H149134   3.613   0.504   8.900 -0.8001 -1.1555  0.7186
 8313TIP3    H249135   3.746   0.517   8.970 -0.4086  1.4140 -0.3789
 8314TIP3   OH249136   4.095   0.829   9.219 -0.6339 -0.0065 -0.4097
 8314TIP3    H149137   4.161   0.897   9.230  0.2424 -0.5861 -1.8036
 8314TIP3    H249138   4.019   0.861   9.268 -0.5049  2.3115 -1.6020
 8315TIP3   OH249139   1.795   2.692   1.403 -0.7521  0.5293  0.4464
 8315TIP3    H149140   1.758   2.752   1.468 -1.8619 -0.1549  0.4768
 8315TIP3    H249141   1.867   2.649   1.449 -1.3415  0.2619  1.1602
 8316TIP3   OH249142   5.211   2.357   1.686  0.3051 -0.4145 -0.2589
 8316TIP3    H149143   5.183   2.344   1.777 -3.0160  1.1024 -0.9178
 8316TIP3    H249144   5.166   2.288   1.637  0.9213 -0.3312 -0.9638
 8317TIP3   OH249145   7.381   2.257   0.650  0.1117 -0.1141  0.1675
 8317TIP3    H149146   7.400   2.182   0.593 -1.4191  0.9804 -1.9429
 8317TIP3    H249147   7.418   2.332   0.603 -1.8855  0.9285  0.1495
 8318TIP3   OH249148   2.528   4.943   7.714  0.1517  0.2330  0.0050
 8318TIP3    H149149   2.505   5.027   7.674  1.2935  0.4896 -0.1590
 8318TIP3    H249150   2.524   4.960   7.808  1.5000  0.8346 -0.0137
 8319TIP3   OH249151   2.289   3.759   1.168 -0.6308  0.1325  0.1348
 8319TIP3    H149152   2.242   3.712   1.100 -1.8509 -0.0588  1.0742
 8319TIP3    H249153   2.312   3.691   1.233 -3.0773  0.8435  1.8784
 8320TIP3   OH249154   3.963   0.726   0.711  0.7822  0.3436  0.0816
 8320TIP3    H149155   3.946   0.632   0.719  1.6867  0.1534 -0.0830
 8320TIP3    H249156   3.982   0.738   0.618 -0.5660  0.9216 -0.1403
 8321TIP3   OH249157   4.775   4.740   0.216 -0.3269  0.9180 -0.6568
 8321TIP3    H149158   4.764   4.822   0.167  1.4817  0.0228 -2.7325
 8321TIP3    H249159   4.842   4.692   0.167  0.3203 -0.8389  1.7736
 8322TIP3   OH249160   5.672   4.410   7.061 -0.0930  1.0013 -0.3929
 8322TIP3    H149161   5.683   4.456   7.144 -1.6134 -0.2055  0.5433
 8322TIP3    H249162   5.707   4.322   7.078 -1.1564  0.4897 -0.7335
 8323TIP3   OH249163   2.276   0.770   2.803 -0.4503  0.6933  0.2922
 8323TIP3    H149164   2.234   0.799   2.884  0.3767 -0.0985  1.0209
 8323TIP3    H249165   2.229   0.817   2.733 -1.0569  1.5156  1.2328
 8324TIP3   OH249166   1.818   5.334   8.887  0.0153 -0.3507 -0.1608
 8324TIP3    H149167   1.778   5.246   8.886  0.4528 -0.5566  0.1550
 8324TIP3    H249168   1.746   5.391   8.915 -0.4636 -0.5033 -1.0408
 8325TIP3   OH249169   6.732   4.822   6.821 -0.0277 -0.5511 -0.5557
 8325TIP3    H149170   6.775   4.745   6.858  0.4686  0.9842  2.3902
 8325TIP3    H249171   6.640   4.797   6.814  0.5615 -2.4145 -2.7900
 8326TIP3   OH249172   0.363   0.434   0.806  0.1378  0.0343 -0.0622
 8326TIP3    H149173   0.278   0.458   0.841 -0.9422 -0.4918 -2.1682
 8326TIP3    H249174   0.370   0.340   0.820  1.1926  0.3215  1.6641
 8327TIP3   OH249175   5.583   6.171   6.547  0.1790 -0.1621  0.3427
 8327TIP3    H149176   5.666   6.154   6.502  0.1731  0.8466 -0.0837
 8327TIP3    H249177   5.522   6.108   6.509  0.8616 -1.2886  1.0494
 8328TIP3   OH249178   1.460   0.971   7.096 -0.4173 -0.1180 -0.1955
 8328TIP3    H149179   1.483   1.057   7.061 -1.4788  0.3865  0.2580
 8328TIP3    H249180   1.374   0.952   7.058 -0.9258 -0.2243  0.9657
 8329TIP3   OH249181   5.853   0.853   2.513  0.1645  0.2933  0.0030
 8329TIP3    H149182   5.936   0.900   2.507 -0.7215  1.7202 -1.5195
 8329TIP3    H249183   5.879   0.765   2.541  1.8370  1.6562  3.2779
 8330TIP3   OH249184   3.824   3.066   8.614 -0.0912 -0.7548  0.5647
 8330TIP3    H149185   3.741   3.067   8.663 -0.4524 -1.0842 -0.0237
 8330TIP3    H249186   3.834   2.975   8.586  1.3293 -1.0950  2.0365
 8331TIP3   OH249187   2.406   4.723   9.604  0.1762 -0.0923 -0.2523
 8331TIP3    H149188   2.460   4.648   9.578  2.4204  1.7594 -1.2809
 8331TIP3    H249189   2.427   4.791   9.540 -0.5437  1.9499  1.5617
 8332TIP3   OH249190   4.258   4.360   0.069  0.3201 -0.4874 -0.3247
 8332TIP3    H149191   4.166   4.366   0.045  0.3517 -2.3346 -1.0221
 8332TIP3    H249192   4.261   4.384   0.161 -0.8027 -0.1576 -0.3678
 8333TIP3   OH249193   3.484   4.872   0.257  0.4867 -0.2353 -0.1673
 8333TIP3    H149194   3.411   4.818   0.228  0.3532 -0.5205  0.6717
 8333TIP3    H249195   3.495   4.938   0.188 -0.6918 -0.0637 -0.2066
 8334TIP3   OH249196   2.296   1.345   7.201 -0.3638  0.3813 -0.3566
 8334TIP3    H149197   2.202   1.333   7.186 -0.5121  1.3824 -0.3108
 8334TIP3    H249198   2.333   1.359   7.114  0.0352 -1.6943 -0.5722
 8335TIP3   OH249199   5.351   3.125   1.259 -0.2663  0.1257 -0.0495
 8335TIP3    H149200   5.399   3.159   1.334 -0.2785  1.1324 -0.4797
 8335TIP3    H249201   5.289   3.194   1.237 -0.8158 -0.4896 -0.4932
 8336TIP3   OH249202   6.509   2.766   2.129  0.2807  0.2357  0.5767
 8336TIP3    H149203   6.525   2.860   2.127 -0.9930  0.4710 -1.2788
 8336TIP3    H249204   6.513   2.740   2.037 -0.9206 -1.2432  0.9108
 8337TIP3   OH249205   1.705   4.277   7.470 -0.2303 -0.1995  0.8044
 8337TIP3    H149206   1.619   4.318   7.484 -0.0288  0.3995  0.2734
 8337TIP3    H249207   1.746   4.279   7.556 -1.0299 -1.1703  1.2465
 8338TIP3   OH249208   7.053   2.832   8.758 -0.0728 -0.1440  0.5613
 8338TIP3    H149209   7.104   2.761   8.797  0.2204  0.6034  1.5978
 8338TIP3    H249210   7.029   2.887   8.833 -1.9986 -0.2142  0.0400
 8339TIP3   OH249211   3.872   4.483   0.299 -0.7529 -0.2828  0.6054
 8339TIP3    H149212   3.933   4.410   0.313 -0.4833  0.1095  1.5841
 8339TIP3    H249213   3.849   4.478   0.207  1.3184 -0.0132  0.0244
 8340TIP3   OH249214   6.089   4.490   8.499 -0.0986 -0.2038  0.6969
 8340TIP3    H149215   6.136   4.431   8.557 -0.5014 -1.2211  0.0201
 8340TIP3    H249216   6.075   4.439   8.419  1.9638  1.7163 -1.0083
 8341TIP3   OH249217   0.605   5.495   8.478  0.4232  0.0910  0.6430
 8341TIP3    H149218   0.591   5.518   8.386  0.2187 -2.7162 -0.1182
 8341TIP3    H249219   0.648   5.571   8.516  1.7452  0.8355 -2.1043
 8342TIP3   OH249220   2.940   1.379   8.839 -0.1499  0.2433 -0.1280
 8342TIP3    H149221   3.033   1.401   8.837  0.1303 -0.5761  1.7879
 8342TIP3    H249222   2.935   1.289   8.807 -0.4860  0.7097 -1.4854
 8343TIP3   OH249223   2.590   0.752   9.581  0.0807  0.0099  0.3668
 8343TIP3    H149224   2.592   0.677   9.521  1.3518  0.5535 -0.2945
 8343TIP3    H249225   2.521   0.808   9.547 -1.2511 -1.0662  1.1703
 8344TIP3   OH249226   3.063   0.983   2.567 -0.2420 -0.2695 -0.0760
 8344TIP3    H149227   3.069   0.970   2.661 -0.2653 -1.0557 -0.1744
 8344TIP3    H249228   2.985   1.036   2.554 -0.8502 -1.0666  0.2733
 8345TIP3   OH249229   0.630   5.633   7.807 -0.2924 -0.3603 -0.4990
 8345TIP3    H149230   0.557   5.628   7.869 -0.0298  0.7124 -0.0758
 8345TIP3    H249231   0.588   5.640   7.721 -0.6674 -1.0333 -0.3775
 8346TIP3   OH249232   0.585   0.092   0.919 -0.1612 -0.0104 -0.4306
 8346TIP3    H149233   0.613   0.160   0.981 -1.4156 -0.8314  1.1053
 8346TIP3    H249234   0.612   0.010   0.959 -2.3277 -0.6644 -0.1326
 8347TIP3   OH249235   3.375   3.149   1.734 -0.4156  0.0284 -0.3066
 8347TIP3    H149236   3.459   3.165   1.776 -1.1906  0.7129  1.0777
 8347TIP3    H249237   3.316   3.214   1.773 -1.5549 -0.3529 -1.3260
 8348TIP3   OH249238   6.002   6.613   2.176 -0.7156 -0.0140 -0.0456
 8348TIP3    H149239   6.045   6.692   2.208 -0.3764 -0.1612 -0.1370
 8348TIP3    H249240   5.919   6.610   2.225  0.4515 -1.0499  1.9805
 8349TIP3   OH249241   3.009   2.863   1.806 -0.2241  0.2065  0.7657
 8349TIP3    H149242   2.993   2.796   1.740 -1.2705  1.7609 -0.6393
 8349TIP3    H249243   3.103   2.881   1.800 -0.3472  0.5060 -0.5001
 8350TIP3   OH249244   5.479   0.398   1.074  0.2886  0.6153 -0.2839
 8350TIP3    H149245   5.441   0.482   1.101  2.4060  1.2727  0.8486
 8350TIP3    H249246   5.412   0.333   1.098 -0.6216  1.8048  0.5288
 8351TIP3   OH249247   6.986   2.753   1.888 -0.2660 -0.4771 -0.5865
 8351TIP3    H149248   6.989   2.847   1.909  0.2688 -0.2606 -1.5859
 8351TIP3    H249249   7.020   2.711   1.967  0.7316  0.2567 -0.5923
 8352TIP3   OH249250   3.364   0.792   8.500  0.3583  1.0448  0.3939
 8352TIP3    H149251   3.387   0.741   8.578 -0.3131  1.3759  0.8160
 8352TIP3    H249252   3.270   0.780   8.490  0.7850 -1.1875 -1.9602
 8353TIP3   OH249253   5.635   7.064   8.611  0.1264 -0.4228  0.6073
 8353TIP3    H149254   5.683   7.063   8.694 -0.9406 -0.7474  1.2345
 8353TIP3    H249255   5.610   7.155   8.598 -0.8110 -0.5705  1.3075
 8354TIP3   OH249256   3.327   5.105   2.113  0.2573 -0.1050  0.3108
 8354TIP3    H149257   3.319   5.154   2.031 -0.7259 -1.1028 -0.2308
 8354TIP3    H249258   3.294   5.164   2.180  0.3305  0.4492 -0.1372
 8355TIP3   OH249259   4.750   0.226   8.968 -0.3386 -0.2590  0.1574
 8355TIP3    H149260   4.763   0.251   8.877 -0.8171  0.2253  0.2181
 8355TIP3    H249261   4.672   0.169   8.967  0.5015 -1.4448  0.0741
 8356TIP3   OH249262   6.344   3.227   9.214  0.3452  0.3800 -0.7292
 8356TIP3    H149263   6.389   3.151   9.177 -0.8854 -0.3282 -0.8359
 8356TIP3    H249264   6.251   3.203   9.213  0.1515  0.7089  1.8958
 8357TIP3   OH249265   3.343   2.358   7.912 -0.5695 -0.1289 -0.4671
 8357TIP3    H149266   3.294   2.395   7.986 -0.3746  1.6311 -1.1667
 8357TIP3    H249267   3.293   2.385   7.835  0.5417  0.1959 -1.0986
 8358TIP3   OH249268   4.303   5.246   9.630  0.2083 -0.3832  0.3930
 8358TIP3    H149269   4.214   5.246   9.665  0.6723 -1.5357  1.7003
 8358TIP3    H249270   4.353   5.300   9.691  0.7939 -1.4166  0.8533
 8359TIP3   OH249271   2.004   4.761   8.346 -0.4993 -0.3054 -0.2308
 8359TIP3    H149272   1.958   4.685   8.310 -1.4150 -0.6910  1.6522
 8359TIP3    H249273   1.971   4.769   8.435  0.2020  1.8157 -0.1143
 8360TIP3   OH249274   1.212   0.148   7.822 -0.1847 -0.4119 -0.5683
 8360TIP3    H149275   1.224   0.221   7.761  0.3683 -0.3573 -0.4035
 8360TIP3    H249276   1.243   0.182   7.906 -3.1660  0.3169  0.3384
 8361TIP3   OH249277   0.555   5.302   0.043  0.3621 -0.2260 -0.0256
 8361TIP3    H149278   0.530   5.372   0.103 -1.0198 -0.5701 -0.1483
 8361TIP3    H249279   0.472   5.274   0.004  1.3587  1.6626 -4.0232
 8362TIP3   OH249280   0.827   2.036   9.019  0.2452 -0.3467 -0.7518
 8362TIP3    H149281   0.732   2.039   9.012  0.2632 -1.0563 -1.3467
 8362TIP3    H249282   0.856   1.984   8.944  1.0154 -1.1289  0.0524
 8363TIP3   OH249283   0.796   5.926   0.972 -0.2772 -0.1623 -0.3248
 8363TIP3    H149284   0.799   5.975   1.054 -2.7166  1.5580 -1.1319
 8363TIP3    H249285   0.792   5.834   0.998 -0.7101  0.3380  1.4907
 8364TIP3   OH249286   4.914   7.070   9.128  0.5132  0.0405  0.1548
 8364TIP3    H149287   4.971   7.071   9.051  0.9431 -2.0235  0.3842
 8364TIP3    H249288   4.833   7.028   9.098  0.5321 -0.4105  0.7132
 8365TIP3   OH249289   4.266   0.973   9.403 -0.2195  0.0950  0.0803
 8365TIP3    H149290   4.349   0.936   9.372  0.1756  0.9894  0.0467
 8365TIP3    H249291   4.239   1.033   9.334 -1.7394 -1.3540 -0.6665
 8366TIP3   OH249292   3.904   0.158   1.664  0.0668 -0.4262 -0.0859
 8366TIP3    H149293   3.855   0.077   1.672  1.8861 -1.6897 -1.1170
 8366TIP3    H249294   3.977   0.149   1.725  0.5249  0.2239 -0.5131
 8367TIP3   OH249295   4.630   7.214   0.743  0.1644  0.2026  0.1702
 8367TIP3    H149296   4.554   7.269   0.726  0.0788  0.4126  1.1859
 8367TIP3    H249297   4.610   7.172   0.827  0.5864 -0.7533 -0.1993
 8368TIP3   OH249298   4.628   5.582   1.839  0.1352  0.1907  0.3772
 8368TIP3    H149299   4.640   5.643   1.766 -1.3351  2.5195  1.9563
 8368TIP3    H249300   4.545   5.608   1.878  1.3717 -0.2498  3.5270
 8369TIP3   OH249301   1.571   3.468   9.471  0.0802 -0.1975 -0.0655
 8369TIP3    H149302   1.586   3.469   9.376 -0.1527  2.9107 -0.1757
 8369TIP3    H249303   1.651   3.506   9.508 -0.9793  1.4981  0.6505
 8370TIP3   OH249304   5.455   0.523   8.274 -0.0434 -0.2717 -0.3198
 8370TIP3    H149305   5.429   0.611   8.247  0.3907  0.9032  2.6605
 8370TIP3    H249306   5.503   0.488   8.199 -0.2939  1.9862 -1.6260
 8371TIP3   OH249307   4.272   0.113   7.676  0.6185  0.4095 -0.1444
 8371TIP3    H149308   4.285   0.155   7.591 -0.1209  0.4989 -0.2115
 8371TIP3    H249309   4.353   0.133   7.724  0.6348  1.1878 -0.4743
 8372TIP3   OH249310   5.932   2.280   0.818  0.0784 -0.3862 -0.0134
 8372TIP3    H149311   5.929   2.294   0.723  2.4706 -0.8264 -0.2429
 8372TIP3    H249312   5.859   2.330   0.853 -1.3414 -0.8455 -2.1494
 8373TIP3   OH249313   2.395   0.889   9.440 -0.7633  0.4138 -0.5011
 8373TIP3    H149314   2.302   0.900   9.420 -0.2880  5.3473 -1.0748
 8373TIP3    H249315   2.437   0.969   9.409  3.4513 -0.6830  1.5514
 8374TIP3   OH249316   4.483   4.951   1.034  0.2328 -0.4142 -0.0309
 8374TIP3    H149317   4.568   4.913   1.057  0.5264 -0.7500 -1.5960
 8374TIP3    H249318   4.457   5.000   1.112  1.8367 -0.3541  0.4939
 8375TIP3   OH249319   4.710   1.078   1.204 -0.3497  0.0909  0.4050
 8375TIP3    H149320   4.715   0.987   1.176 -0.2511 -0.3628  1.8064
 8375TIP3    H249321   4.785   1.090   1.262 -0.4940  0.9944  0.4260
 8376TIP3   OH249322   0.525   1.481   1.731 -0.1031 -0.5131  0.2177
 8376TIP3    H149323   0.550   1.403   1.682  1.6025 -0.6848  1.2833
 8376TIP3    H249324   0.556   1.465   1.820  2.3535  2.2431  0.0109
 8377TIP3   OH249325   1.749   3.531   0.540 -0.1401  0.2799 -0.9877
 8377TIP3    H149326   1.753   3.506   0.633 -0.5529  0.7499 -0.8407
 8377TIP3    H249327   1.700   3.460   0.498 -0.8045  0.5510 -0.6755
 8378TIP3   OH249328   1.625   7.080   1.309 -0.0982  0.4611 -0.5127
 8378TIP3    H149329   1.649   7.144   1.376 -0.7504 -0.4545  0.6342
 8378TIP3    H249330   1.537   7.106   1.282 -0.0815  0.4710 -0.5567
 8379TIP3   OH249331   4.299   5.996   7.126  0.0186 -0.4795  0.7691
 8379TIP3    H149332   4.279   5.920   7.071 -0.7209  0.0963  0.2329
 8379TIP3    H249333   4.343   6.057   7.067  1.3845 -0.8149  1.3998
 8380TIP3   OH249334   0.621   2.407   6.992 -0.6254 -0.2576  0.0266
 8380TIP3    H149335   0.638   2.313   6.986 -2.1873 -0.5028 -1.1324
 8380TIP3    H249336   0.529   2.417   6.967 -0.9164  1.4339  1.5783
 8381TIP3   OH249337   2.030   1.982   0.363 -0.2589  0.2622  0.0626
 8381TIP3    H149338   1.990   1.909   0.315 -0.1892  0.4872 -0.3447
 8381TIP3    H249339   1.955   2.030   0.400 -0.3792  0.6317 -0.6252
 8382TIP3   OH249340   5.913   0.913   8.171 -0.1554 -0.1734  0.2013
 8382TIP3    H149341   5.848   0.917   8.242  0.4958 -1.1990  0.8753
 8382TIP3    H249342   5.889   0.834   8.122  0.7289 -0.7065  0.6111
 8383TIP3   OH249343   0.187   6.714   2.249  0.1713  0.0864  0.5534
 8383TIP3    H149344   0.111   6.656   2.236 -0.7716  1.4243 -0.1738
 8383TIP3    H249345   0.216   6.696   2.338 -1.7285  0.3320  1.2770
 8384TIP3   OH249346   1.498   3.805   0.451  0.6715  0.0274  0.2692
 8384TIP3    H149347   1.504   3.898   0.472 -0.0781  0.4489 -1.2269
 8384TIP3    H249348   1.516   3.801   0.357  0.8952 -1.3730  0.3535
 8385TIP3   OH249349   2.335   0.045   7.943 -0.8623  0.1102 -0.1455
 8385TIP3    H149350   2.422   0.037   7.904 -0.9360 -1.8567 -0.0348
 8385TIP3    H249351   2.275   0.055   7.868 -0.6667  0.1345 -0.2983
 8386TIP3   OH249352   4.661   0.553   1.332  0.0791  0.1620 -0.2757
 8386TIP3    H149353   4.726   0.496   1.290 -0.4076 -0.1407 -0.6299
 8386TIP3    H249354   4.705   0.585   1.411 -0.7283 -3.3373  1.7966
 8387TIP3   OH249355   6.550   2.890   7.273  0.0104 -0.0992  0.2926
 8387TIP3    H149356   6.487   2.917   7.339 -0.7804  0.2436 -0.5798
 8387TIP3    H249357   6.619   2.845   7.322  0.4114  1.8017  1.5854
 8388TIP3   OH249358   7.030   0.871   2.290 -0.5453  0.2322 -0.3268
 8388TIP3    H149359   7.061   0.960   2.277 -2.7704  0.9843 -0.8984
 8388TIP3    H249360   6.962   0.878   2.356 -1.0394 -0.9813 -0.6673
 8389TIP3   OH249361   4.774   1.253   8.366 -0.0895  0.2618  0.1505
 8389TIP3    H149362   4.733   1.178   8.323  2.5182 -1.5767  0.6019
 8389TIP3    H249363   4.737   1.255   8.454  0.8173 -1.4768  0.6167
 8390TIP3   OH249364   4.836   3.324   8.057 -0.0599  0.5658  0.4278
 8390TIP3    H149365   4.784   3.244   8.068  0.2179  0.4632  1.0494
 8390TIP3    H249366   4.912   3.295   8.007  0.8414  0.0624  1.9954
 8391TIP3   OH249367   5.160   7.352   7.728  0.1901 -0.0836 -0.5087
 8391TIP3    H149368   5.129   7.440   7.747 -0.9729 -0.0776 -2.2451
 8391TIP3    H249369   5.155   7.306   7.812 -0.8163  1.0238  0.0573
 8392TIP3   OH249370   2.458   5.610   2.272 -0.1343  0.1594 -0.5300
 8392TIP3    H149371   2.441   5.596   2.179  0.6326  0.4669 -0.7199
 8392TIP3    H249372   2.553   5.618   2.279  0.0319 -2.1175  0.5906
 8393TIP3   OH249373   0.409   5.227   9.294  0.0742  0.1790  0.5303
 8393TIP3    H149374   0.450   5.310   9.272  1.0790 -0.6620 -0.9810
 8393TIP3    H249375   0.326   5.227   9.246  1.1367 -0.6147 -1.4061
 8394TIP3   OH249376   0.592   6.757   0.683 -0.5360  0.0927  0.2099
 8394TIP3    H149377   0.535   6.787   0.613  0.3932 -0.3751 -0.7774
 8394TIP3    H249378   0.680   6.778   0.654  0.1465 -2.9685 -0.3062
 8395TIP3   OH249379   6.257   3.637   2.760 -0.9633 -0.1643 -0.1372
 8395TIP3    H149380   6.225   3.561   2.712 -3.2237 -0.1817  1.2494
 8395TIP3    H249381   6.187   3.702   2.751 -0.2623  0.7732  0.9287
 8396TIP3   OH249382   4.879   2.432   1.612  0.0373  0.0472  0.3126
 8396TIP3    H149383   4.926   2.515   1.601  1.0151 -0.5067  0.2193
 8396TIP3    H249384   4.941   2.365   1.584 -0.4955 -0.7732  1.0372
 8397TIP3   OH249385   5.480   1.648   2.661  0.2062  0.2584 -0.3937
 8397TIP3    H149386   5.404   1.672   2.715 -1.0162 -2.0069 -1.0011
 8397TIP3    H249387   5.442   1.603   2.585  2.1243 -0.1535 -1.1557
 8398TIP3   OH249388   5.037   2.557   7.822 -0.3737  0.0752 -0.1990
 8398TIP3    H149389   4.982   2.622   7.779 -0.5556  0.3101  0.3791
 8398TIP3    H249390   5.090   2.520   7.752  0.1464  1.2491 -0.4502
 8399TIP3   OH249391   1.288   3.279   1.024  0.0626  0.1820 -0.1797
 8399TIP3    H149392   1.256   3.310   1.109  1.1029 -0.6571  0.5541
 8399TIP3    H249393   1.255   3.189   1.018  0.1902  0.1590 -0.5437
 8400TIP3   OH249394   4.119   5.080   7.918  0.3473  0.0952  0.6191
 8400TIP3    H149395   4.068   5.111   7.993 -2.5869 -1.0388 -0.7416
 8400TIP3    H249396   4.072   5.114   7.842 -0.0832 -3.2641 -0.7943
 8401TIP3   OH249397   3.351   3.278   2.180  0.1037  0.0857 -0.1593
 8401TIP3    H149398   3.286   3.292   2.249 -0.4584 -0.1660 -0.6251
 8401TIP3    H249399   3.376   3.186   2.189 -2.3338 -0.9080 -2.2305
 8402TIP3   OH249400   5.158   6.342   9.105  0.0532  0.2664  0.6604
 8402TIP3    H149401   5.225   6.311   9.166  0.5621 -2.0668 -0.9570
 8402TIP3    H249402   5.144   6.269   9.045 -3.3687  0.9657  0.3976
 8403TIP3   OH249403   3.852   6.828   1.844 -0.1303  0.3870 -0.3839
 8403TIP3    H149404   3.930   6.852   1.793  1.3162  0.9684  1.9274
 8403TIP3    H249405   3.861   6.734   1.859  1.5484  0.8330  1.9282
 8404TIP3   OH249406   0.008   2.355   2.146 -0.0921 -0.1612 -0.3880
 8404TIP3    H149407   0.086   2.385   2.099  0.0696 -1.8174 -1.2649
 8404TIP3    H249408  -0.064   2.406   2.109  0.6559  2.4987  1.4854
 8405TIP3   OH249409   2.057   0.718   1.957 -0.1215 -0.1258  0.2389
 8405TIP3    H149410   2.087   0.766   1.880 -0.5636  1.3054  0.9272
 8405TIP3    H249411   2.130   0.660   1.980  0.4227  0.2112 -0.6120
 8406TIP3   OH249412   5.570   1.990   9.494 -0.3434  0.6502  0.1570
 8406TIP3    H149413   5.645   2.047   9.476  1.8530 -1.8880  0.6591
 8406TIP3    H249414   5.513   2.002   9.418  1.4965  1.2363 -1.2220
 8407TIP3   OH249415   6.902   0.211   0.191 -0.0965 -0.3577 -0.6670
 8407TIP3    H149416   6.814   0.222   0.226  0.3614  0.3422  0.3162
 8407TIP3    H249417   6.906   0.119   0.164 -0.1783 -1.2747  2.1011
 8408TIP3   OH249418   6.462   3.863   8.962 -0.7612  0.4450 -0.3899
 8408TIP3    H149419   6.554   3.885   8.975 -0.0342 -1.4219 -1.8940
 8408TIP3    H249420   6.424   3.940   8.920  0.6573  0.4513 -1.7203
 8409TIP3   OH249421   6.400   6.519   0.730  0.5754 -0.2337  0.0573
 8409TIP3    H149422   6.456   6.591   0.701  0.8073 -0.7339 -0.7831
 8409TIP3    H249423   6.448   6.478   0.801  0.8075 -0.0450  0.0111
 8410TIP3   OH249424   3.726   0.038   8.828  0.3911 -0.0030 -0.0331
 8410TIP3    H149425   3.777  -0.029   8.873  0.7173 -0.0987 -0.5447
 8410TIP3    H249426   3.790   0.104   8.801  0.0886  0.4566  0.3568
 8411TIP3   OH249427   4.029   2.124   1.014 -0.5193  0.2629 -0.3492
 8411TIP3    H149428   3.954   2.179   0.990  0.4374  1.6096 -0.2889
 8411TIP3    H249429   3.989   2.042   1.044 -1.9431  0.7059 -0.9533
 8412TIP3   OH249430   1.890   4.913   9.002 -0.2188  0.2376  0.1895
 8412TIP3    H149431   1.878   4.960   9.085 -1.5536 -1.2027  0.8753
 8412TIP3    H249432   1.861   4.824   9.021  0.6124 -0.4398 -1.5171
 8413TIP3   OH249433   6.738   6.771   9.197 -0.8343 -0.1218  0.6486
 8413TIP3    H149434   6.726   6.680   9.170  1.3782 -0.4411  0.5982
 8413TIP3    H249435   6.682   6.821   9.138  0.1483 -1.2165 -1.3005
 8414TIP3   OH249436   2.946   6.313   9.442 -0.6581 -0.5103 -0.4110
 8414TIP3    H149437   2.983   6.320   9.354 -1.0710 -0.3020 -0.5723
 8414TIP3    H249438   2.883   6.241   9.436 -2.5551  1.1090 -0.9793
 8415TIP3   OH249439   3.275   2.622   8.169  0.7807  0.4295 -0.0222
 8415TIP3    H149440   3.213   2.679   8.216  1.4197  1.8514 -0.8390
 8415TIP3    H249441   3.350   2.614   8.228 -0.3595 -1.8644  1.2759
 8416TIP3   OH249442   5.881   0.668   8.019 -0.2165  0.0153 -0.2290
 8416TIP3    H149443   5.885   0.665   7.923  1.3369 -1.6505 -0.1735
 8416TIP3    H249444   5.843   0.583   8.043 -0.5765  0.4197  0.6374
 8417TIP3   OH249445   7.075   3.209   1.461 -0.1655 -0.3558 -0.5024
 8417TIP3    H149446   7.102   3.162   1.383  0.7053 -0.4070 -0.1860
 8417TIP3    H249447   7.150   3.202   1.520 -0.5283  0.2994  0.0534
 8418TIP3   OH249448   3.012   4.376   2.243 -0.1073 -0.2421  0.1132
 8418TIP3    H149449   2.937   4.318   2.258  0.9364 -1.7557 -0.3262
 8418TIP3    H249450   3.074   4.353   2.312  0.6085 -0.1494 -0.4841
 8419TIP3   OH249451   5.782   3.884   2.967 -0.3946 -0.1350  0.1054
 8419TIP3    H149452   5.828   3.825   3.027 -1.8279 -0.5869  0.8138
 8419TIP3    H249453   5.698   3.901   3.010 -1.7130 -0.9074 -2.0065
 8420TIP3   OH249454   2.978   7.402   1.556  0.0588 -0.2618 -0.1946
 8420TIP3    H149455   3.063   7.387   1.515  0.8715  0.1498  1.2492
 8420TIP3    H249456   2.979   7.494   1.582 -0.0221 -0.6998  1.5162
 8421TIP3   OH249457   5.945   1.692   6.660  0.3384 -0.3686  0.0195
 8421TIP3    H149458   6.015   1.756   6.669  0.5024 -0.1473 -2.2524
 8421TIP3    H249459   5.877   1.737   6.611 -0.2020 -1.4673 -0.2818
 8422TIP3   OH249460   0.300   4.082   8.283 -0.0426 -0.7074  0.0569
 8422TIP3    H149461   0.305   4.088   8.188  1.0925 -1.1680  0.0728
 8422TIP3    H249462   0.336   4.165   8.314  1.3320 -1.2943  0.0911
 8423TIP3   OH249463   6.169   3.016   7.224  0.7573 -0.3250 -0.5612
 8423TIP3    H149464   6.160   2.957   7.148  0.7326 -0.5803 -0.3611
 8423TIP3    H249465   6.080   3.030   7.254  0.8101 -0.7042 -0.2162
 8424TIP3   OH249466   3.902   6.616   1.179 -0.5923  0.0470  0.0066
 8424TIP3    H149467   3.931   6.614   1.270  0.0481 -1.9746 -0.1877
 8424TIP3    H249468   3.837   6.546   1.173  0.0875 -0.5019 -1.2903
 8425TIP3   OH249469   0.764   3.968   0.014 -0.3888  0.0258 -0.4335
 8425TIP3    H149470   0.724   3.993  -0.069  0.8336 -0.1313 -1.1011
 8425TIP3    H249471   0.779   4.050   0.060  1.3590  0.3727 -1.5469
 8426TIP3   OH249472   4.433   2.880   7.060 -0.1269  0.1160 -0.2364
 8426TIP3    H149473   4.417   2.887   6.966  0.4376 -0.9351 -0.4252
 8426TIP3    H249474   4.363   2.931   7.101 -1.5243 -1.0118 -1.1515
 8427TIP3   OH249475   4.929   2.465   8.578 -0.4016  0.1867 -0.4612
 8427TIP3    H149476   4.948   2.431   8.491  2.6764 -0.8076  0.4779
 8427TIP3    H249477   4.844   2.427   8.601 -0.8019 -0.3042 -2.6005
 8428TIP3   OH249478   1.625   7.376   1.000  0.1419 -0.0831 -0.1767
 8428TIP3    H149479   1.542   7.332   1.016 -0.3848  1.2738  1.0626
 8428TIP3    H249480   1.675   7.315   0.946 -0.6384 -2.0964  1.2548
 8429TIP3   OH249481   2.063   0.167   1.568 -0.1529 -0.3485 -0.0890
 8429TIP3    H149482   2.022   0.156   1.654  0.4524 -0.9272  0.1350
 8429TIP3    H249483   2.151   0.130   1.579 -0.2206 -0.8146 -1.0815
 8430TIP3   OH249484   3.348   5.425   7.890  0.6165  0.2176 -0.2274
 8430TIP3    H149485   3.442   5.418   7.899  0.7348  0.9840 -0.7201
 8430TIP3    H249486   3.312   5.388   7.971  1.3651  0.6269  0.2981
 8431TIP3   OH249487   4.583   1.129   7.212  0.4388 -0.3737  0.0028
 8431TIP3    H149488   4.508   1.172   7.171 -0.5518 -0.7013  1.3800
 8431TIP3    H249489   4.611   1.063   7.149 -0.3990 -0.2111 -0.5499
 8432TIP3   OH249490   3.897   1.519   0.153  0.2406 -0.2180  0.5577
 8432TIP3    H149491   3.852   1.448   0.107  1.4628  0.2992 -1.5892
 8432TIP3    H249492   3.989   1.493   0.153  1.1908  2.3895 -2.6945
 8433TIP3   OH249493   1.932   5.288   7.974 -0.0253 -0.2720 -0.6941
 8433TIP3    H149494   1.858   5.299   8.034 -0.1251  0.5130 -0.9462
 8433TIP3    H249495   1.966   5.201   7.993 -0.3587 -0.2233  0.1624
 8434TIP3   OH249496   5.176   0.452   1.251  0.7866  0.0344  0.2792
 8434TIP3    H149497   5.140   0.446   1.162 -0.0044  0.7625  0.5298
 8434TIP3    H249498   5.111   0.408   1.306  2.0935 -1.9535  0.3241
 8435TIP3   OH249499   7.221   6.941   2.134 -0.0277 -0.0435 -0.5979
 8435TIP3    H149500   7.153   6.965   2.197 -0.2995 -0.3741 -0.7662
 8435TIP3    H249501   7.289   6.899   2.188 -0.4381 -0.6889 -0.5742
 8436TIP3   OH249502   5.100   4.731   2.908 -0.3503 -0.1705 -0.2516
 8436TIP3    H149503   5.155   4.653   2.896 -0.8845 -0.6968  0.6431
 8436TIP3    H249504   5.144   4.799   2.856  0.9480 -0.6678  0.1506
 8437TIP3   OH249505   3.549   6.301   0.948  0.6547 -0.0409 -0.2817
 8437TIP3    H149506   3.635   6.342   0.954  0.8550 -0.5307  0.2418
 8437TIP3    H249507   3.566   6.213   0.912  0.3893 -0.1801 -0.0757
 8438TIP3   OH249508   2.369   7.423   1.281 -0.1667  0.1896 -0.4549
 8438TIP3    H149509   2.373   7.355   1.213 -0.6137 -0.3846  0.0837
 8438TIP3    H249510   2.445   7.406   1.337  0.0839  0.5355 -0.6834
 8439TIP3   OH249511   4.924   1.918   7.587 -0.1702 -0.0749 -0.0687
 8439TIP3    H149512   4.965   1.900   7.503  0.4342 -0.2082  0.2475
 8439TIP3    H249513   4.864   1.991   7.570 -0.4611 -0.4638 -0.7254
 8440TIP3   OH249514   2.406   4.930   2.128  0.0990  0.3358 -0.4231
 8440TIP3    H149515   2.486   4.903   2.171  0.3302  2.2397  0.4591
 8440TIP3    H249516   2.421   4.912   2.035  0.9882 -0.5639 -0.1248
 8441TIP3   OH249517   1.606   3.497   8.234  0.5389 -0.1970  0.3460
 8441TIP3    H149518   1.655   3.559   8.288 -0.1575  0.0878  0.6736
 8441TIP3    H249519   1.658   3.487   8.154  0.3212  1.3517 -0.0203
 8442TIP3   OH249520   4.849   5.806   0.483 -0.1126  0.0436 -0.1422
 8442TIP3    H149521   4.768   5.758   0.500  0.3486 -0.1102  1.8866
 8442TIP3    H249522   4.910   5.739   0.449 -0.1400 -0.3631  0.5825
 8443TIP3   OH249523   6.557   1.831   8.862  0.1833  0.1480  0.4953
 8443TIP3    H149524   6.477   1.783   8.882 -0.5892  1.1701 -0.0540
 8443TIP3    H249525   6.577   1.808   8.771 -0.5153  1.2829  0.0367
 8444TIP3   OH249526   1.389   7.244   8.053 -0.3697 -0.1831 -0.3662
 8444TIP3    H149527   1.445   7.286   7.989 -1.3459 -1.2455 -1.9789
 8444TIP3    H249528   1.300   7.270   8.029 -0.6964  0.6240  1.5038
 8445TIP3   OH249529   0.230   2.671   7.744 -0.5672  0.9821  0.2000
 8445TIP3    H149530   0.156   2.663   7.683  0.5203  1.4538 -1.2296
 8445TIP3    H249531   0.224   2.761   7.776 -0.3593  1.1754 -0.2845
 8446TIP3   OH249532   0.934   2.281   0.837 -0.0299 -0.0858  0.3958
 8446TIP3    H149533   0.894   2.298   0.922 -0.3067 -1.6692  0.6009
 8446TIP3    H249534   1.010   2.226   0.856 -0.8139 -1.5203 -0.4685
 8447TIP3   OH249535   0.322   4.239   1.145  0.3935  0.2511  0.0065
 8447TIP3    H149536   0.235   4.277   1.130  0.4271  0.0528 -0.7221
 8447TIP3    H249537   0.381   4.292   1.091  0.2146 -1.8013 -2.3968
 8448TIP3   OH249538   6.347   1.679   8.951 -0.2533 -0.0836 -0.1936
 8448TIP3    H149539   6.290   1.688   9.028  0.3254  0.3481  0.1931
 8448TIP3    H249540   6.302   1.616   8.895 -0.6657 -0.4228  0.5116
 8449TIP3   OH249541   6.311   0.702   9.662  0.3084  0.1039  0.1539
 8449TIP3    H149542   6.304   0.721   9.755  0.5512 -1.0183  0.4157
 8449TIP3    H249543   6.240   0.641   9.643 -0.5482  1.3189 -0.6953
 8450TIP3   OH249544   2.121   6.989   1.354 -0.4860  0.1651  0.0826
 8450TIP3    H149545   2.180   7.050   1.310 -0.2488  0.9532  1.4529
 8450TIP3    H249546   2.094   6.929   1.285  1.0361  0.4558 -0.8257
 8451TIP3   OH249547   4.251   4.834   1.921 -0.0565  0.2393 -0.3259
 8451TIP3    H149548   4.319   4.849   1.855 -1.7634  0.2527 -2.1720
 8451TIP3    H249549   4.171   4.870   1.882 -0.7473  2.4924  2.7798
 8452TIP3   OH249550   3.228   5.383   9.462  0.2323 -0.5867  0.2722
 8452TIP3    H149551   3.155   5.325   9.440  1.4181 -1.9683 -0.1892
 8452TIP3    H249552   3.272   5.340   9.535  2.3391 -1.4553 -1.3845
 8453TIP3   OH249553   5.025   3.993   7.799  0.1716 -0.5643 -0.0617
 8453TIP3    H149554   5.077   4.064   7.759 -2.4527  1.0176 -0.9069
 8453TIP3    H249555   5.033   4.008   7.893 -3.3868  3.5268 -0.1124
 8454TIP3   OH249556   6.215   0.085   1.284 -0.1551 -0.4010 -0.3090
 8454TIP3    H149557   6.235   0.160   1.340 -0.5207  0.0854 -0.8135
 8454TIP3    H249558   6.249   0.009   1.331  1.5810  0.2389 -0.4796
 8455TIP3   OH249559   0.983   2.658   0.204  0.2964 -0.0359  0.1133
 8455TIP3    H149560   1.058   2.707   0.172  0.2907  0.5670  0.9861
 8455TIP3    H249561   1.012   2.567   0.206  0.9386  0.1710  0.2637
 8456TIP3   OH249562   5.552   7.316   9.369  0.2552 -0.0632 -0.3603
 8456TIP3    H149563   5.641   7.297   9.398  0.3667 -2.1553 -1.8657
 8456TIP3    H249564   5.514   7.367   9.441  2.3706  0.1366  0.6909
 8457TIP3   OH249565   5.179   1.034   8.243 -0.0701  0.4207  0.0270
 8457TIP3    H149566   5.193   1.079   8.326 -2.9845 -0.0697  0.8741
 8457TIP3    H249567   5.212   0.945   8.258  0.2324  0.5812  0.3354
 8458TIP3   OH249568   3.742   6.548   9.416 -0.1290 -0.3186 -0.3685
 8458TIP3    H149569   3.810   6.615   9.424 -1.0475  0.6752 -0.6737
 8458TIP3    H249570   3.786   6.466   9.439  1.2086  0.2812 -0.7095
 8459TIP3   OH249571   3.097   2.017   1.941 -0.2470  0.0043  0.2385
 8459TIP3    H149572   3.087   1.988   2.032  0.2248 -1.4359 -0.1499
 8459TIP3    H249573   3.028   1.971   1.894 -0.2124  0.4114 -0.2163
 8460TIP3   OH249574   2.247   0.401   0.622  0.4676 -0.3331  0.3578
 8460TIP3    H149575   2.288   0.315   0.627 -0.0022 -0.5265  1.2325
 8460TIP3    H249576   2.262   0.439   0.709  0.1540  0.2185  0.1750
 8461TIP3   OH249577   5.330   5.734   2.630 -0.0585 -0.2907  0.4607
 8461TIP3    H149578   5.382   5.655   2.613  0.0918  0.1281 -1.1842
 8461TIP3    H249579   5.371   5.773   2.707  2.4413  0.2919 -1.0473
 8462TIP3   OH249580   5.222   6.950   6.697  0.4465  0.3406 -0.0482
 8462TIP3    H149581   5.217   7.042   6.720 -1.5469  0.2775 -0.0852
 8462TIP3    H249582   5.204   6.948   6.603  0.8615 -0.0698 -0.1258
 8463TIP3   OH249583   5.253   6.983   9.545  0.1001  0.0229  0.0449
 8463TIP3    H149584   5.339   6.943   9.553  0.1343 -0.6037 -2.4246
 8463TIP3    H249585   5.192   6.911   9.564 -0.0369  0.9127  3.7285
 8464TIP3   OH249586   6.976   1.416   6.799  0.3891 -0.2528 -0.4505
 8464TIP3    H149587   6.899   1.470   6.818  1.4531  0.9045  0.7780
 8464TIP3    H249588   6.993   1.370   6.881  0.7089 -0.8947 -0.8757
 8465TIP3   OH249589   5.776   0.241   1.797  0.0545  0.2730  0.7448
 8465TIP3    H149590   5.720   0.164   1.807  1.5047 -0.7845  1.0846
 8465TIP3    H249591   5.721   0.305   1.752 -0.5526 -1.7727 -1.7142
 8466TIP3   OH249592   2.844   5.093   7.587 -0.5815  0.5244 -0.1069
 8466TIP3    H149593   2.928   5.077   7.544 -0.0393 -0.0183  1.0827
 8466TIP3    H249594   2.809   5.171   7.545  1.6408  2.1868  0.9350
 8467TIP3   OH249595   6.233   5.516   2.745 -0.1477 -0.2382 -0.4633
 8467TIP3    H149596   6.139   5.528   2.763 -0.3206 -1.0202 -0.7860
 8467TIP3    H249597   6.243   5.421   2.736  0.6734 -0.1548 -0.4613
 8468TIP3   OH249598   0.584   5.694   0.728 -0.3647  0.4048  0.1102
 8468TIP3    H149599   0.531   5.697   0.807  1.1452 -0.3649  1.1956
 8468TIP3    H249600   0.627   5.780   0.723  0.4690  0.0368  0.8088
 8469TIP3   OH249601   1.771   4.235   1.052  0.5686 -0.8151  0.1005
 8469TIP3    H149602   1.849   4.231   1.106 -0.3546 -0.5493  1.4941
 8469TIP3    H249603   1.762   4.327   1.030 -0.2695 -0.5695  1.3714
 8470TIP3   OH249604   2.731   1.861   8.230  0.0101  0.5969  0.3223
 8470TIP3    H149605   2.807   1.848   8.173 -0.8126 -2.0218 -0.2976
 8470TIP3    H249606   2.658   1.875   8.170 -0.6342 -0.8141  0.7451
 8471TIP3   OH249607   3.441   4.816   7.890  0.2382  0.1423  0.2257
 8471TIP3    H149608   3.404   4.785   7.972  1.0454  1.2736  1.0478
 8471TIP3    H249609   3.526   4.772   7.884 -0.1816 -0.6011 -0.4509
 8472TIP3   OH249610   2.085   1.164   9.187  0.1137 -0.1970 -0.2432
 8472TIP3    H149611   2.019   1.120   9.134  0.7099 -0.5181 -0.7349
 8472TIP3    H249612   2.157   1.182   9.126  0.1228  0.9405  0.0801
 8473TIP3   OH249613   1.680   7.267   0.274 -0.5586  0.4812  0.5519
 8473TIP3    H149614   1.707   7.190   0.223 -1.3685 -0.6981  1.8190
 8473TIP3    H249615   1.754   7.327   0.267 -0.7118  0.4649 -2.1275
 8474TIP3   OH249616   6.094   3.387   1.463 -0.1090 -0.5992 -0.6670
 8474TIP3    H149617   6.162   3.439   1.420 -1.2425  1.4376 -0.1267
 8474TIP3    H249618   6.013   3.433   1.444 -1.0304 -1.4967  0.8952
 8475TIP3   OH249619   6.465   2.727   9.078 -0.2133 -0.3615  0.2247
 8475TIP3    H149620   6.448   2.656   9.016  1.6979 -0.3285 -0.3929
 8475TIP3    H249621   6.536   2.777   9.038 -1.4006  1.8424  0.7230
 8476TIP3   OH249622   2.117   2.194   0.946  0.0432  0.2373  0.5357
 8476TIP3    H149623   2.150   2.165   1.030 -0.3831 -1.4025  0.1682
 8476TIP3    H249624   2.168   2.145   0.881 -0.3445  0.6921 -0.1318
 8477TIP3   OH249625   0.341   6.217   1.725  0.5242  0.2185 -0.2750
 8477TIP3    H149626   0.322   6.179   1.811  1.4479  0.3493 -0.0039
 8477TIP3    H249627   0.303   6.155   1.663  0.3695 -0.1806  0.2050
 8478TIP3   OH249628   1.186   5.188   1.705  0.4545 -0.5299  0.2133
 8478TIP3    H149629   1.264   5.231   1.667  0.7279 -0.1106  1.2141
 8478TIP3    H249630   1.113   5.246   1.681  0.5101 -0.7017 -0.3726
 8479TIP3   OH249631   1.524   5.870   7.650 -0.1271  0.1708  0.2474
 8479TIP3    H149632   1.436   5.907   7.660 -1.0126 -2.2252  2.1526
 8479TIP3    H249633   1.512   5.796   7.590  1.0730  1.1615 -1.2820
 8480TIP3   OH249634   3.802   0.859   0.053  0.3179 -0.1658 -0.0884
 8480TIP3    H149635   3.884   0.824   0.021  0.7014 -0.2305  0.9138
 8480TIP3    H249636   3.739   0.787   0.044  0.9767 -0.9832  1.4799
 8481TIP3   OH249637   5.842   7.362   8.795  0.3170  0.2632  0.4511
 8481TIP3    H149638   5.777   7.403   8.852  0.3640  2.1300 -0.7375
 8481TIP3    H249639   5.865   7.431   8.732  1.0950 -1.3418 -1.1117
 8482TIP3   OH249640   6.624   5.924   7.338 -0.2687 -0.6169 -0.0490
 8482TIP3    H149641   6.540   5.893   7.372 -0.5449 -0.0840 -0.2313
 8482TIP3    H249642   6.611   5.929   7.243  0.6748 -2.6415 -0.3392
 8483TIP3   OH249643   3.747   5.390   1.719 -0.4370 -0.3590 -0.3407
 8483TIP3    H149644   3.831   5.396   1.763 -0.5191  1.0266 -0.3303
 8483TIP3    H249645   3.725   5.297   1.720  0.4352 -0.5647  0.8860
 8484TIP3   OH249646   1.115   1.976   2.820 -0.0263 -0.1137 -0.0943
 8484TIP3    H149647   1.211   1.969   2.822 -0.0033 -0.1378 -0.8613
 8484TIP3    H249648   1.083   1.891   2.848  0.1767 -0.1169  0.1294
 8485TIP3   OH249649   1.704   4.761   8.068 -0.6055  0.0947 -0.2355
 8485TIP3    H149650   1.784   4.807   8.095  0.2859 -1.3616 -0.2920
 8485TIP3    H249651   1.720   4.738   7.976 -0.4325 -1.4805  0.1559
 8486TIP3   OH249652   6.432   6.229   0.458 -0.0539  0.2629  0.1165
 8486TIP3    H149653   6.474   6.257   0.540 -0.1148  0.0616  0.2187
 8486TIP3    H249654   6.339   6.236   0.475 -0.1029 -1.1276  0.5649
 8487TIP3   OH249655   5.694   1.337   8.293  0.1601 -0.0942  0.4240
 8487TIP3    H149656   5.656   1.420   8.267  0.3690 -0.5039 -1.3403
 8487TIP3    H249657   5.664   1.275   8.226  1.2517 -1.0952  0.8207
 8488TIP3   OH249658   1.820   4.274   8.219 -0.3553 -0.6882  0.2636
 8488TIP3    H149659   1.773   4.256   8.301 -1.6945  2.0791  0.2247
 8488TIP3    H249660   1.754   4.264   8.151 -0.3081  0.8518 -0.0459
 8489TIP3   OH249661   1.534   3.119   1.543  0.3320  0.5106  0.2866
 8489TIP3    H149662   1.546   3.026   1.563  0.6416  0.8103  1.6107
 8489TIP3    H249663   1.442   3.126   1.518  0.9072 -0.5678 -2.5307
 8490TIP3   OH249664   0.773   5.476   7.466  0.4059 -0.0525 -0.0875
 8490TIP3    H149665   0.798   5.384   7.461 -0.2362 -0.1794 -2.7820
 8490TIP3    H249666   0.802   5.513   7.383  0.1038  2.0560  0.6820
 8491TIP3   OH249667   4.173   6.325   1.018 -0.4955 -0.4657  0.1270
 8491TIP3    H149668   4.099   6.290   1.067 -1.5189  1.1455 -0.1750
 8491TIP3    H249669   4.133   6.377   0.948  0.9404 -1.1516 -1.2529
 8492TIP3   OH249670   2.750   3.554   0.541  0.9546 -0.1052 -0.0800
 8492TIP3    H149671   2.815   3.499   0.585  0.4283 -0.1795  0.6405
 8492TIP3    H249672   2.675   3.496   0.527  0.1658  0.5379  1.2270
 8493TIP3   OH249673   1.912   3.091   9.339 -0.0807 -0.0811 -0.1678
 8493TIP3    H149674   2.006   3.088   9.324  0.1905  0.2730  1.3178
 8493TIP3    H249675   1.902   3.136   9.423 -1.4999 -1.3942  0.4162
 8494TIP3   OH249676   0.567   3.459   7.911  0.4513  0.5191 -0.3372
 8494TIP3    H149677   0.539   3.371   7.938 -2.5234  1.1830 -0.8706
 8494TIP3    H249678   0.551   3.513   7.987 -0.9267  1.1251 -1.0232
 8495TIP3   OH249679   4.417   3.205   2.083  0.3065 -0.2272  0.2985
 8495TIP3    H149680   4.421   3.300   2.071  1.5611 -0.3688 -0.5048
 8495TIP3    H249681   4.508   3.175   2.077  0.0747 -1.3458  1.7922
 8496TIP3   OH249682   7.168   3.909   2.705 -0.1435 -0.5217  0.0812
 8496TIP3    H149683   7.136   3.999   2.696 -0.8344 -0.6059  1.3516
 8496TIP3    H249684   7.263   3.918   2.712 -0.2567  0.2018  0.9298
 8497TIP3   OH249685   1.539   3.626   7.988  0.5061 -0.2317 -0.6528
 8497TIP3    H149686   1.511   3.609   7.897 -1.6236  0.1888 -0.1278
 8497TIP3    H249687   1.633   3.642   7.981  0.5427 -0.9561 -2.6853
 8498TIP3   OH249688   0.058   2.043   2.356 -0.1935 -0.0898 -0.2857
 8498TIP3    H149689   0.015   1.964   2.387 -0.0282 -0.0376  0.0876
 8498TIP3    H249690   0.149   2.016   2.340 -0.0455  0.1055  0.1981
 8499TIP3   OH249691   4.283   2.198   1.820  0.1185 -0.6243  0.2772
 8499TIP3    H149692   4.378   2.202   1.808  0.0603  1.4073  0.0213
 8499TIP3    H249693   4.247   2.234   1.739 -0.8102 -0.3985  0.7694
 8500TIP3   OH249694   3.041   1.490   1.541 -0.1662 -0.0924 -0.1704
 8500TIP3    H149695   3.024   1.549   1.614 -1.9801  0.0655 -0.6872
 8500TIP3    H249696   3.020   1.541   1.463  0.1639 -0.7841 -0.7261
 8501TIP3   OH249697   6.467   6.099   1.104  0.1404 -0.1523 -0.3660
 8501TIP3    H149698   6.507   6.124   1.020 -0.7403  0.7916 -0.5225
 8501TIP3    H249699   6.529   6.036   1.142  1.9347  1.4687 -0.4398
 8502TIP3   OH249700   0.247   4.162   0.255  0.3095 -0.4550  0.6555
 8502TIP3    H149701   0.310   4.148   0.184 -0.5465 -2.7468  0.2703
 8502TIP3    H249702   0.166   4.187   0.212  0.3155  0.1799  0.9954
 8503TIP3   OH249703   2.031   2.552   2.025 -0.0910  0.2322  0.3405
 8503TIP3    H149704   2.063   2.567   1.936 -0.9155  1.7652  0.2666
 8503TIP3    H249705   2.079   2.615   2.079 -0.2527 -0.0565  0.8319
 8504TIP3   OH249706   6.911   1.596   1.281 -0.3000 -0.9527 -0.6357
 8504TIP3    H149707   6.955   1.574   1.363  0.8142  1.3280 -0.5438
 8504TIP3    H249708   6.858   1.672   1.302 -0.8933 -1.0235 -1.7916
 8505TIP3   OH249709   1.550   3.181   9.334  0.4961  0.1004 -0.6123
 8505TIP3    H149710   1.623   3.228   9.295  0.5801 -0.7031 -1.4408
 8505TIP3    H249711   1.547   3.213   9.425  0.3087  1.9813 -1.2256
 8506TIP3   OH249712   0.397   1.795   1.184  0.1610 -0.0194  0.6432
 8506TIP3    H149713   0.433   1.858   1.122  0.5191 -0.1609  0.7049
 8506TIP3    H249714   0.313   1.832   1.210  0.7952  0.9301  1.4210
 8507TIP3   OH249715   2.472   5.166   7.357 -0.0868 -0.5693  0.5526
 8507TIP3    H149716   2.456   5.190   7.448  0.2281 -2.7974  1.2560
 8507TIP3    H249717   2.554   5.210   7.335  0.6290 -1.2052  1.8408
 8508TIP3   OH249718   4.068   0.651   0.176 -0.3377 -0.0997 -0.0498
 8508TIP3    H149719   4.031   0.645   0.087 -0.5682  2.0493 -0.1512
 8508TIP3    H249720   4.159   0.675   0.162 -0.3496  0.1420  0.2965
 8509TIP3   OH249721   6.363   2.112   1.365 -0.1708  0.0904  0.2115
 8509TIP3    H149722   6.427   2.061   1.315  1.1624 -1.4363  3.2104
 8509TIP3    H249723   6.318   2.047   1.419 -1.3150  1.6655  1.2292
 8510TIP3   OH249724   4.950   1.952   8.787  0.0199  0.2042 -0.2267
 8510TIP3    H149725   5.031   1.910   8.760  0.5713 -0.5111  2.3193
 8510TIP3    H249726   4.885   1.882   8.785  0.0011  0.2142  0.0344
 8511TIP3   OH249727   5.666   5.185   8.095  0.2213  0.2368  0.2096
 8511TIP3    H149728   5.578   5.174   8.131  0.1680 -0.0780 -0.0143
 8511TIP3    H249729   5.690   5.275   8.118 -0.1794  0.3414  0.2257
 8512TIP3   OH249730   0.491   1.210   9.416  0.7009 -0.0085 -0.8669
 8512TIP3    H149731   0.547   1.202   9.493 -2.6225  1.1354  1.9382
 8512TIP3    H249732   0.423   1.144   9.428 -2.1395  2.7085 -0.5444
 8513TIP3   OH249733   6.008   6.905   2.385 -0.1085 -0.2600  0.5794
 8513TIP3    H149734   5.993   6.931   2.476 -0.2276 -1.1925  0.8393
 8513TIP3    H249735   5.921   6.900   2.346 -0.0571  0.1400  0.4162
 8514TIP3   OH249736   7.351   1.668   7.107  0.4837  0.5874  0.1231
 8514TIP3    H149737   7.287   1.612   7.064  1.5487  2.1172 -3.8779
 8514TIP3    H249738   7.307   1.752   7.117  0.7548  0.6714  0.6549
 8515TIP3   OH249739   4.570   4.053   8.002 -0.0295 -0.8848  0.0296
 8515TIP3    H149740   4.580   4.129   8.059 -0.1918 -0.5498 -0.3799
 8515TIP3    H249741   4.595   3.979   8.056  2.9155 -0.3166 -0.3583
 8516TIP3   OH249742   0.778   1.425   0.523 -0.4223  0.2342 -0.3082
 8516TIP3    H149743   0.764   1.417   0.428  1.0222  0.9867 -0.6118
 8516TIP3    H249744   0.703   1.475   0.554  0.3971  2.2978 -1.4945
 8517TIP3   OH249745   2.850   7.142   0.064 -0.0542  0.2136 -0.3391
 8517TIP3    H149746   2.835   7.060   0.112 -0.5561  1.1303  1.1448
 8517TIP3    H249747   2.924   7.122   0.007 -1.2710 -1.7936 -1.3549
 8518TIP3   OH249748   6.367   4.439   0.117  0.0582 -0.0252 -0.4805
 8518TIP3    H149749   6.359   4.374   0.048  1.2304 -0.6347 -0.0686
 8518TIP3    H249750   6.403   4.516   0.073  0.4754 -0.2975 -0.6214
 8519TIP3   OH249751   4.510   6.765   6.828 -0.0776  0.2992 -0.2420
 8519TIP3    H149752   4.422   6.795   6.807 -0.7146 -0.0129  1.7422
 8519TIP3    H249753   4.506   6.669   6.818  0.8434  0.4499 -2.7422
 8520TIP3   OH249754   7.073   4.713   8.821  0.0847  0.2052 -0.0232
 8520TIP3    H149755   7.104   4.778   8.758 -0.4219  0.2479 -0.2348
 8520TIP3    H249756   7.008   4.662   8.772 -0.0104 -0.0244  0.3427
 8521TIP3   OH249757   0.394   0.608   2.129  0.3242  0.2708 -0.1076
 8521TIP3    H149758   0.469   0.666   2.114 -0.2594  1.1565  0.3216
 8521TIP3    H249759   0.401   0.541   2.061  1.0967  0.7527 -0.5157
 8522TIP3   OH249760   3.568   2.242   2.197 -0.1287  0.5087  0.0047
 8522TIP3    H149761   3.619   2.291   2.262 -0.0698  0.4419  0.0096
 8522TIP3    H249762   3.626   2.236   2.121 -1.7654  4.6334 -1.9097
 8523TIP3   OH249763   1.511   3.229   8.854  0.8316  0.2557 -0.1546
 8523TIP3    H149764   1.549   3.160   8.908 -1.9588 -1.9558 -0.7768
 8523TIP3    H249765   1.472   3.290   8.916  2.6047  0.9421  0.3704
 8524TIP3   OH249766   3.636   6.400   1.336 -0.1049  0.0779  0.3495
 8524TIP3    H149767   3.662   6.310   1.354 -0.8837  0.0310  1.3269
 8524TIP3    H249768   3.617   6.437   1.422 -1.0977  0.7666 -0.1524
 8525TIP3   OH249769   1.143   0.409   0.147 -0.3188 -0.1460 -0.3214
 8525TIP3    H149770   1.139   0.461   0.227  0.7174 -0.3314 -0.1289
 8525TIP3    H249771   1.059   0.363   0.144 -0.1701 -0.5331  0.9405
 8526TIP3   OH249772   4.755   6.884   8.928  0.7490  0.0543  0.0539
 8526TIP3    H149773   4.731   6.932   8.849  0.0015  0.8904  0.7700
 8526TIP3    H249774   4.777   6.796   8.897  1.3313  0.6181 -1.1807
 8527TIP3   OH249775   5.546   6.460   1.064 -0.4486 -0.2221  0.5205
 8527TIP3    H149776   5.622   6.518   1.075 -1.2793  1.2793 -1.1756
 8527TIP3    H249777   5.489   6.482   1.137  0.5518 -1.1261  1.6221
 8528TIP3   OH249778   3.852   5.672   0.981  0.1437 -0.2017  0.0865
 8528TIP3    H149779   3.871   5.760   0.947  3.3108 -0.0030  2.0044
 8528TIP3    H249780   3.884   5.612   0.914 -0.0180  0.1251 -0.2837
 8529TIP3   OH249781   0.788   7.344   1.891  0.1473 -0.0279 -1.2080
 8529TIP3    H149782   0.833   7.300   1.964  0.8925  0.0137 -1.6360
 8529TIP3    H249783   0.781   7.278   1.823 -1.6205 -0.4240 -0.6834
 8530TIP3   OH249784   0.209   1.319   1.462  0.1791 -0.4723  0.0870
 8530TIP3    H149785   0.235   1.408   1.489  0.1824 -0.6687  0.7397
 8530TIP3    H249786   0.214   1.321   1.366 -1.9293  0.8797 -0.0609
 8531TIP3   OH249787   3.981   5.182   8.137  0.7137 -0.6223  0.1380
 8531TIP3    H149788   3.977   5.271   8.104  3.3098 -0.1030  1.0191
 8531TIP3    H249789   3.892   5.163   8.167  0.2125  1.8095  0.3308
 8532TIP3   OH249790   6.314   0.365   0.857  0.1952 -0.1828  0.4387
 8532TIP3    H149791   6.225   0.374   0.824  0.4415  0.8332  0.0078
 8532TIP3    H249792   6.325   0.440   0.916  0.2182 -1.2194  1.7997
 8533TIP3   OH249793   2.930   2.614   7.453  0.3387  0.0546 -0.0715
 8533TIP3    H149794   2.966   2.700   7.431 -0.9758  0.7172  0.2635
 8533TIP3    H249795   2.859   2.602   7.390 -0.4470 -0.1046  0.8192
 8534TIP3   OH249796   0.249   4.929   6.766  0.4758 -0.0832  0.3634
 8534TIP3    H149797   0.287   4.942   6.679 -1.5831  0.8106 -0.4753
 8534TIP3    H249798   0.186   4.859   6.754 -0.1044  0.3156  1.0439
 8535TIP3   OH249799   2.077   7.219   0.594  0.0339  0.2356  0.5153
 8535TIP3    H149800   2.049   7.129   0.612  0.8293 -0.0134  0.5427
 8535TIP3    H249801   2.145   7.237   0.658 -0.7457  1.1904  1.0919
 8536TIP3   OH249802   2.930   7.085   0.413 -0.2439 -0.3041 -0.1730
 8536TIP3    H149803   2.932   6.999   0.454  0.3453 -0.5749 -0.7633
 8536TIP3    H249804   3.000   7.083   0.348 -2.0758 -0.4068 -2.2614
 8537TIP3   OH249805   3.859   5.817   8.299 -0.5004  0.5262  0.4784
 8537TIP3    H149806   3.838   5.745   8.240  1.4801 -0.4228  0.8544
 8537TIP3    H249807   3.779   5.870   8.301 -0.8696  0.2520 -2.5131
 8538TIP3   OH249808   0.147   1.643   9.156 -0.5413 -0.3420  0.1696
 8538TIP3    H149809   0.185   1.650   9.243  0.0296 -0.1440 -0.0873
 8538TIP3    H249810   0.181   1.560   9.121 -0.0799 -0.0149 -0.1789
 8539TIP3   OH249811   0.237   5.108   6.127 -0.6128  0.8743 -0.4814
 8539TIP3    H149812   0.314   5.069   6.086 -1.8128 -0.7897 -1.2464
 8539TIP3    H249813   0.269   5.146   6.208  0.9033 -0.3148 -0.4990
 8540TIP3   OH249814   6.854   4.621   0.191  0.6199 -0.3873 -0.1116
 8540TIP3    H149815   6.797   4.692   0.163 -0.9328 -1.3431  0.4764
 8540TIP3    H249816   6.871   4.571   0.112 -2.7532 -2.3822  0.2055
 8541TIP3   OH249817   2.125   4.750   7.539 -0.7544 -0.1472 -0.2089
 8541TIP3    H149818   2.108   4.809   7.465 -1.2170 -2.4552 -2.0945
 8541TIP3    H249819   2.220   4.756   7.553 -0.8958  1.5838  0.1846
 8542TIP3   OH249820   3.305   6.925   1.844  0.4349  0.0860  0.0703
 8542TIP3    H149821   3.399   6.906   1.842  0.9096  2.1961 -0.3740
 8542TIP3    H249822   3.286   6.944   1.936  0.4352 -0.2764  0.1491
 8543TIP3   OH249823   0.316   4.595   7.430  0.4414  1.0179  0.1163
 8543TIP3    H149824   0.336   4.553   7.514 -3.9253 -0.2003  0.7869
 8543TIP3    H249825   0.316   4.688   7.449  0.6571  0.8192  1.1747
 8544TIP3   OH249826   1.465   0.720   0.062 -0.1823  0.3629 -0.3045
 8544TIP3    H149827   1.418   0.640   0.037  1.6823 -0.9267  0.0751
 8544TIP3    H249828   1.515   0.744  -0.016  0.3530  0.3102  0.0125
 8545TIP3   OH249829   3.459   5.908   8.074 -0.2954 -0.4031 -0.4881
 8545TIP3    H149830   3.546   5.880   8.043 -0.4543 -1.4801 -0.0030
 8545TIP3    H249831   3.399   5.842   8.038 -0.7166 -0.5586  0.4793
 8546TIP3   OH249832   4.836   2.480   1.898 -0.0561 -0.1116 -0.3245
 8546TIP3    H149833   4.833   2.447   1.809  0.4271 -0.4272 -0.2278
 8546TIP3    H249834   4.747   2.467   1.932 -0.3399  0.3657 -0.8811
 8547TIP3   OH249835   6.470   6.490   0.278  0.1444  0.1089 -0.1158
 8547TIP3    H149836   6.522   6.529   0.208 -0.5943  1.0327 -0.1699
 8547TIP3    H249837   6.532   6.476   0.350  1.3392 -2.5424 -1.5102
 8548TIP3   OH249838   5.672   1.427   8.564 -0.6377  0.0057  0.1053
 8548TIP3    H149839   5.753   1.397   8.606 -0.9940 -0.2211  0.6475
 8548TIP3    H249840   5.669   1.380   8.481 -0.4890 -0.3990  0.3274
 8549TIP3   OH249841   2.742   1.457   1.865 -0.0743  0.0428 -0.3529
 8549TIP3    H149842   2.822   1.503   1.837  0.5856 -0.4917  0.5899
 8549TIP3    H249843   2.746   1.372   1.822 -0.1905  0.0546 -0.3880
 8550TIP3   OH249844   6.396   2.499   0.535  0.2315 -0.1994  0.3407
 8550TIP3    H149845   6.483   2.474   0.504  1.7171  2.9223  1.6340
 8550TIP3    H249846   6.349   2.528   0.456  1.8999  2.0554  0.0899
 8551TIP3   OH249847   4.798   1.397   9.379  0.0319  0.1824  0.3106
 8551TIP3    H149848   4.863   1.447   9.427  0.5158 -0.3857  0.2543
 8551TIP3    H249849   4.844   1.317   9.352  0.2075  1.0596 -2.2714
 8552TIP3   OH249850   1.609   2.270   7.462 -0.1829  0.0488  0.8317
 8552TIP3    H149851   1.674   2.257   7.393 -1.1430 -0.1156 -0.0597
 8552TIP3    H249852   1.648   2.336   7.519  1.2076 -0.7902  0.8915
 8553TIP3   OH249853   1.548   0.726   0.314 -0.2802  0.0017 -0.2477
 8553TIP3    H149854   1.517   0.742   0.225  0.5925  0.0054 -0.5649
 8553TIP3    H249855   1.556   0.813   0.352  0.9852  0.1274 -0.7540
 8554TIP3   OH249856   4.601   3.107   9.250 -0.3339 -0.0285 -0.4696
 8554TIP3    H149857   4.560   3.131   9.167 -1.3641  0.8887  0.2796
 8554TIP3    H249858   4.693   3.130   9.238 -0.7098  1.3089 -0.9077
 8555TIP3   OH249859   1.070   1.120   7.005 -0.5517  0.1140  0.3114
 8555TIP3    H149860   0.996   1.084   6.956  0.2135 -1.4065  0.2049
 8555TIP3    H249861   1.119   1.171   6.941 -0.7107 -0.0883  0.0297
 8556TIP3   OH249862   5.241   1.372   8.129  0.3757  0.1083  0.0584
 8556TIP3    H149863   5.195   1.358   8.211 -0.8346  1.3265 -0.3822
 8556TIP3    H249864   5.270   1.285   8.103 -0.4059 -0.4795  1.0856
 8557TIP3   OH249865   4.192   5.287   0.865 -0.0205 -0.1604 -0.2208
 8557TIP3    H149866   4.238   5.359   0.821  0.3739 -1.4715 -2.1134
 8557TIP3    H249867   4.193   5.216   0.800  0.3426 -2.1615  1.8495
 8558TIP3   OH249868   0.191   2.637   8.291 -0.1254  0.5571  0.4085
 8558TIP3    H149869   0.208   2.555   8.244  1.1750  0.6423  0.7043
 8558TIP3    H249870   0.121   2.614   8.353 -0.0458 -0.2266  0.2192
 8559TIP3   OH249871   2.385   6.383   0.795  0.1251  0.3077 -0.2833
 8559TIP3    H149872   2.320   6.453   0.791 -0.4936 -0.3420 -2.2222
 8559TIP3    H249873   2.445   6.402   0.723  0.1048 -0.9938 -0.6579
 8560TIP3   OH249874   1.547   1.224   9.506  0.2685  0.0161 -0.0765
 8560TIP3    H149875   1.632   1.200   9.542 -0.1689 -0.3214  0.7450
 8560TIP3    H249876   1.555   1.206   9.412  1.2289  0.3723 -0.0758
 8561TIP3   OH249877   4.181   6.295   9.000 -0.3470 -0.4959 -0.0014
 8561TIP3    H149878   4.219   6.288   9.087 -0.0552  0.3533 -0.0508
 8561TIP3    H249879   4.100   6.345   9.013  0.7177  1.4509 -0.4770
 8562TIP3   OH249880   7.341   1.584   2.179 -0.0517  0.1368  0.2000
 8562TIP3    H149881   7.246   1.581   2.169  0.0851 -0.5475 -1.2114
 8562TIP3    H249882   7.371   1.497   2.152  1.0128  0.5012  0.1237
 8563TIP3   OH249883   4.617   4.821   2.221  1.0471  0.8968  0.3976
 8563TIP3    H149884   4.591   4.912   2.209 -1.3737  0.2354  0.0818
 8563TIP3    H249885   4.597   4.802   2.312  0.3673  0.3679  0.1475
 8564TIP3   OH249886   2.076   2.690   9.137  0.7206  0.4776 -0.3677
 8564TIP3    H149887   2.029   2.686   9.220  1.6424  2.2645  0.2814
 8564TIP3    H249888   2.055   2.607   9.094 -1.9857  0.6675  0.4169
 8565TIP3   OH249889   5.080   5.796   7.916  0.3220 -0.0288 -0.6537
 8565TIP3    H149890   4.991   5.761   7.908  0.0525  0.7014 -0.9397
 8565TIP3    H249891   5.136   5.728   7.879  0.0995 -1.3731  1.3117
 8566TIP3   OH249892   2.619   3.383   3.038  0.2293  0.2238  0.0414
 8566TIP3    H149893   2.683   3.431   3.091  1.0239  1.0507 -1.5863
 8566TIP3    H249894   2.668   3.310   3.000 -0.1435  0.0565 -0.1309
 8567TIP3   OH249895   4.560   4.434   9.015  0.2555  0.1776  0.1385
 8567TIP3    H149896   4.506   4.512   9.010  0.6583  0.4214 -0.5639
 8567TIP3    H249897   4.600   4.438   9.102 -0.1418  0.4673  0.3106
 8568TIP3   OH249898   5.457   2.273   6.956 -0.1545  0.0426  0.1781
 8568TIP3    H149899   5.465   2.353   6.904  1.9833 -0.4680 -0.3806
 8568TIP3    H249900   5.541   2.228   6.943 -1.2791 -2.2652  0.5199
 8569TIP3   OH249901   3.484   6.494   8.705  0.4765  0.0581  0.3241
 8569TIP3    H149902   3.454   6.487   8.796 -0.6881  1.2784  0.0567
 8569TIP3    H249903   3.448   6.417   8.662  1.3112 -0.7062  0.9488
 8570TIP3   OH249904   0.831   6.108   0.328 -0.3489 -0.3251  0.5713
 8570TIP3    H149905   0.900   6.138   0.387 -1.1667  0.7883  0.9912
 8570TIP3    H249906   0.845   6.157   0.247  0.9368 -2.0443 -0.3233
 8571TIP3   OH249907   6.035   6.961   1.281 -0.2462  0.3770 -0.2572
 8571TIP3    H149908   6.075   7.035   1.235 -0.1888  0.3154 -0.3056
 8571TIP3    H249909   5.979   7.002   1.347  0.8919  0.4511  0.6876
 8572TIP3   OH249910   3.992   5.448   1.567 -0.1855  0.1545  0.4250
 8572TIP3    H149911   3.914   5.443   1.622  0.5408  0.6120  1.5257
 8572TIP3    H249912   3.968   5.401   1.487 -2.2718  1.9885 -0.1103
 8573TIP3   OH249913   3.527   0.178   8.039 -0.6333  0.5709 -0.1366
 8573TIP3    H149914   3.571   0.164   8.123 -0.6350 -0.2666 -0.2572
 8573TIP3    H249915   3.560   0.107   7.983 -0.1876  1.4636 -1.0269
 8574TIP3   OH249916   5.459   0.207   8.440  0.9002  0.3730  0.7782
 8574TIP3    H149917   5.424   0.217   8.529 -2.2124 -1.0147 -0.1358
 8574TIP3    H249918   5.386   0.233   8.383  2.6738  0.8752 -1.4151
 8575TIP3   OH249919   7.297   1.468   7.348  0.2485  0.5178 -0.1738
 8575TIP3    H149920   7.252   1.436   7.270  1.7768  1.1402 -1.3720
 8575TIP3    H249921   7.237   1.531   7.388 -1.9508 -2.1960  1.0868
 8576TIP3   OH249922   5.974   7.095   0.315  0.0486  0.3674  0.3096
 8576TIP3    H149923   6.038   7.090   0.244  1.7759  0.9154  1.7603
 8576TIP3    H249924   5.926   7.013   0.309  0.3242  0.2926 -1.3258
 8577TIP3   OH249925   0.312   3.682   0.230 -0.1281  0.5686  0.7403
 8577TIP3    H149926   0.258   3.608   0.258  1.1366 -0.3123  0.9492
 8577TIP3    H249927   0.305   3.745   0.302 -0.6730  0.3550  0.8775
 8578TIP3   OH249928   7.264   5.687   8.602  0.0869  0.5529 -0.4424
 8578TIP3    H149929   7.186   5.633   8.595  0.9447 -1.2554  2.1703
 8578TIP3    H249930   7.236   5.763   8.653  0.1527 -0.6207  1.4575
 8579TIP3   OH249931   7.382   7.199   8.664 -0.3594  0.6726  0.1798
 8579TIP3    H149932   7.363   7.231   8.576  0.5129 -2.1280 -1.1687
 8579TIP3    H249933   7.470   7.230   8.683 -0.1276  0.4097 -0.4281
 8580TIP3   OH249934   5.485   4.500   8.535  0.2663  0.7804  0.0866
 8580TIP3    H149935   5.534   4.582   8.536  2.3023 -0.3646  0.0489
 8580TIP3    H249936   5.550   4.433   8.558  0.0774 -1.5679 -5.0100
 8581TIP3   OH249937   4.662   3.977   2.199  0.0032  0.1570 -0.3959
 8581TIP3    H149938   4.719   3.903   2.176  2.2438  2.2335 -2.1093
 8581TIP3    H249939   4.699   4.011   2.281 -0.1967  0.1780 -0.3138
 8582TIP3   OH249940   3.762   4.190   0.036  0.2230  0.6198  0.2481
 8582TIP3    H149941   3.807   4.185  -0.048 -0.0846  0.6655  0.0792
 8582TIP3    H249942   3.673   4.218   0.014  0.6822  2.6602  0.7531
 8583TIP3   OH249943   3.195   4.450   9.586 -0.2645  0.0136 -0.4312
 8583TIP3    H149944   3.272   4.401   9.555  0.3800  0.8632 -0.2284
 8583TIP3    H249945   3.172   4.408   9.669 -1.1805 -1.4207 -1.3674
 8584TIP3   OH249946   6.079   1.302   8.959  0.3238 -0.7874 -0.5822
 8584TIP3    H149947   6.168   1.322   8.988  0.3106 -0.2992 -0.8803
 8584TIP3    H249948   6.082   1.208   8.939 -0.1485 -1.6295  2.7424
 8585TIP3   OH249949   0.964   6.749   0.894 -0.5673  0.1750  0.2405
 8585TIP3    H149950   1.038   6.745   0.955  0.3977 -0.8846 -0.9537
 8585TIP3    H249951   0.904   6.681   0.924 -1.4304  1.4606  1.6023
 8586TIP3   OH249952   7.115   0.491   1.568 -0.6805  0.3211 -0.0466
 8586TIP3    H149953   7.179   0.542   1.618 -0.3000 -1.9720  1.9992
 8586TIP3    H249954   7.142   0.502   1.477  2.7305 -0.5376  0.7108
 8587TIP3   OH249955   4.458   3.683   0.223 -0.1924 -0.2550  0.0887
 8587TIP3    H149956   4.437   3.764   0.178  1.3081 -0.3000 -0.7523
 8587TIP3    H249957   4.473   3.620   0.153  1.6785 -0.4483  0.6174
 8588TIP3   OH249958   4.150   3.902   6.767  0.1097  0.1305  0.1044
 8588TIP3    H149959   4.116   3.951   6.842  1.6771  1.4720 -0.0017
 8588TIP3    H249960   4.245   3.906   6.777  0.3464  0.0046 -1.7347
 8589TIP3   OH249961   6.166   7.252   9.571  0.6367  0.0415 -0.2106
 8589TIP3    H149962   6.078   7.235   9.537  0.3477 -1.0206  0.9777
 8589TIP3    H249963   6.221   7.258   9.493  0.1415 -2.9817 -0.9516
 8590TIP3   OH249964   5.519   2.349   8.259 -0.0508 -0.1893  0.6995
 8590TIP3    H149965   5.479   2.380   8.341 -0.1499  1.8398 -0.0611
 8590TIP3    H249966   5.590   2.411   8.243 -0.3445 -0.2683 -1.0032
 8591TIP3   OH249967   2.173   5.721   1.374  0.0518  0.2441 -0.1623
 8591TIP3    H149968   2.232   5.768   1.316  1.1154  0.6809  1.2143
 8591TIP3    H249969   2.147   5.786   1.439 -1.2619 -0.1809 -0.2417
 8592TIP3   OH249970   6.057   1.764   1.624 -0.0031 -0.3458 -0.4403
 8592TIP3    H149971   6.126   1.698   1.630  0.9090  0.4480 -1.6978
 8592TIP3    H249972   6.098   1.838   1.580 -1.5783  0.2790 -0.9360
 8593TIP3   OH249973   2.338   7.355   9.460  0.3392 -0.3168 -0.0382
 8593TIP3    H149974   2.398   7.299   9.509  0.6478  0.2621  0.2574
 8593TIP3    H249975   2.382   7.440   9.455  0.6171 -0.5299 -1.8957
 8594TIP3   OH249976   5.907   2.728   7.716  0.5665 -0.0434 -0.0889
 8594TIP3    H149977   5.858   2.748   7.636 -1.2701 -3.2966  0.0720
 8594TIP3    H249978   5.842   2.729   7.786  0.9510 -2.8040  0.4169
 8595TIP3   OH249979   1.395   5.963   1.540  0.5988  0.4648  0.3646
 8595TIP3    H149980   1.442   5.981   1.621  2.6455 -1.4309 -0.3047
 8595TIP3    H249981   1.431   6.025   1.477  0.9640  0.1479  0.2612
 8596TIP3   OH249982   0.696   5.067   0.122 -0.0505 -0.4454  0.1602
 8596TIP3    H149983   0.652   5.136   0.072  0.9331  1.8433  2.2270
 8596TIP3    H249984   0.643   5.058   0.202  0.5087 -1.2579  0.4513
 8597TIP3   OH249985   7.153   5.507   9.009 -0.0686 -0.3982  0.3188
 8597TIP3    H149986   7.244   5.537   9.009 -0.1690  0.3937 -3.5844
 8597TIP3    H249987   7.105   5.576   9.055  0.5934  2.4937 -2.9413
 8598TIP3   OH249988   2.930   1.516   8.195  0.1215 -0.1078 -0.8000
 8598TIP3    H149989   3.018   1.530   8.228 -0.0933 -0.0185 -0.2553
 8598TIP3    H249990   2.919   1.582   8.127  0.4539 -0.0860 -0.8337
 8599TIP3   OH249991   3.535   1.142   0.816 -0.3184  0.4311  0.5924
 8599TIP3    H149992   3.629   1.146   0.834 -0.3225  0.7300  0.5620
 8599TIP3    H249993   3.521   1.210   0.750  0.1950 -2.4462 -2.7669
 8600TIP3   OH249994   2.054   0.632   0.952 -0.1235  0.2583  0.1505
 8600TIP3    H149995   2.124   0.578   0.991 -1.2534 -0.5557  1.1190
 8600TIP3    H249996   2.051   0.603   0.861 -0.1638 -0.7603  0.4576
 8601TIP3   OH249997   3.954   1.412   1.843  0.0135  0.3648  0.4054
 8601TIP3    H149998   3.869   1.384   1.877 -0.1979  0.1223 -0.3087
 8601TIP3    H249999   3.943   1.413   1.748  0.3675  1.7800  0.3661
 8602TIP3   OH250000   4.323   3.113   7.193  0.3919 -0.4877 -0.6701
 8602TIP3    H150001   4.365   3.149   7.115 -0.3106 -0.4578 -1.0428
 8602TIP3    H250002   4.245   3.167   7.205  1.3040  0.5352  0.9979
 8603TIP3   OH250003   4.486   6.342   2.336  0.4663 -0.4171  0.0380
 8603TIP3    H150004   4.484   6.436   2.351 -1.6560 -0.1714 -1.3697
 8603TIP3    H250005   4.506   6.304   2.422  0.6469  1.2769  0.7721
 8604TIP3   OH250006   4.267   1.204   7.771  0.1185  0.1223  0.2599
 8604TIP3    H150007   4.248   1.296   7.785  0.3201  0.2958 -0.5412
 8604TIP3    H250008   4.192   1.170   7.723  0.9425  0.3843 -1.3004
 8605TIP3   OH250009   5.071   0.040   8.876  0.0306  0.0975 -0.2097
 8605TIP3    H150010   5.008   0.060   8.946  0.6738  1.1723  0.0974
 8605TIP3    H250011   5.123  -0.032   8.911  0.7105  0.9885  0.6950
 8606TIP3   OH250012   1.894   2.155   2.278 -0.2764  0.3108  0.4374
 8606TIP3    H150013   1.868   2.082   2.223 -1.1670 -0.3643  1.7065
 8606TIP3    H250014   1.813   2.183   2.321  0.3286  1.0343  1.1385
 8607TIP3   OH250015   4.055   2.307   9.485  0.5093 -0.3634  0.5909
 8607TIP3    H150016   4.018   2.242   9.545  1.2498 -1.5687 -0.2049
 8607TIP3    H250017   4.111   2.256   9.427 -0.0592  0.7890 -1.0238
 8608TIP3   OH250018   2.478   4.156   0.508 -0.4962  0.3196 -0.2161
 8608TIP3    H150019   2.507   4.246   0.495  2.5464 -0.5545 -0.1543
 8608TIP3    H250020   2.446   4.153   0.598  0.8588  0.9933  0.2969
 8609TIP3   OH250021   0.308   4.609   9.177 -0.0051  0.0867  0.9306
 8609TIP3    H150022   0.301   4.617   9.082 -0.5586 -2.9045  0.6294
 8609TIP3    H250023   0.219   4.623   9.209  0.1620  0.9889  1.0222
 8610TIP3   OH250024   2.664   4.843   2.200  0.1795  0.0024 -0.7981
 8610TIP3    H150025   2.746   4.890   2.179  0.4544 -0.3413 -0.5008
 8610TIP3    H250026   2.685   4.751   2.184  0.7490 -0.4256  1.9434
 8611TIP3   OH250027   5.282   3.904   8.406  0.2817 -0.5591 -0.1666
 8611TIP3    H150028   5.360   3.960   8.405  1.3867 -2.0308 -0.9793
 8611TIP3    H250029   5.217   3.952   8.354  1.0674  0.1422 -0.5253
 8612TIP3   OH250030   4.635   4.572   1.335  0.1337  0.5292 -0.6377
 8612TIP3    H150031   4.591   4.655   1.320  0.5998  0.7612 -0.7437
 8612TIP3    H250032   4.728   4.594   1.339  0.2588  0.0221 -0.6153
 8613TIP3   OH250033   6.787   2.160   2.646  0.0354 -0.5478 -0.5972
 8613TIP3    H150034   6.755   2.133   2.560  0.0797 -5.6229  0.6843
 8613TIP3    H250035   6.735   2.110   2.708  1.1993  1.6017  2.3390
 8614TIP3   OH250036   6.939   5.070   7.184 -0.6300 -0.3527  0.3810
 8614TIP3    H150037   6.938   5.130   7.259  1.4671  1.6049 -1.0204
 8614TIP3    H250038   7.031   5.056   7.165 -1.0984 -1.3596 -1.4135
 8615TIP3   OH250039   4.720   6.619   7.696  0.6012 -0.3811 -0.0960
 8615TIP3    H150040   4.700   6.536   7.653 -0.9273  0.2112 -0.6033
 8615TIP3    H250041   4.704   6.602   7.789 -0.6520 -0.4130 -0.3027
 8616TIP3   OH250042   5.805   4.175   7.412 -0.1368  0.1110 -0.0724
 8616TIP3    H150043   5.742   4.102   7.418 -0.3549  0.1185 -1.7635
 8616TIP3    H250044   5.751   4.253   7.426 -0.1919  0.0360  0.1484
 8617TIP3   OH250045   0.100   2.831   8.089  0.5148  0.2111 -0.8069
 8617TIP3    H150046   0.154   2.782   8.152  1.6217  1.4972 -0.7200
 8617TIP3    H250047   0.088   2.917   8.130  0.0196  0.5767 -1.7047
 8618TIP3   OH250048   0.662   3.248   7.262 -0.3642 -0.3171  0.1810
 8618TIP3    H150049   0.710   3.219   7.340  0.8246  0.8258 -0.0772
 8618TIP3    H250050   0.711   3.209   7.189 -2.1559 -2.3597 -0.0210
 8619TIP3   OH250051   7.170   1.865   7.189 -0.2144  0.0359 -0.3746
 8619TIP3    H150052   7.187   1.861   7.283  0.0996  1.1688 -0.3726
 8619TIP3    H250053   7.075   1.853   7.182 -0.0163 -1.9907 -0.0731
 8620TIP3   OH250054   5.196   3.657   8.524  0.1130 -0.2821 -0.0900
 8620TIP3    H150055   5.267   3.695   8.473 -0.5754 -0.3260 -1.1043
 8620TIP3    H250056   5.120   3.713   8.505 -0.2678 -0.5795  0.5167
 8621TIP3   OH250057   1.243   6.435   9.125 -0.2571  0.2122 -0.2796
 8621TIP3    H150058   1.202   6.442   9.211 -1.1046  0.2659 -0.6754
 8621TIP3    H250059   1.178   6.471   9.064 -0.5234 -1.6772 -1.1787
 8622TIP3   OH250060   2.349   1.395   6.941 -0.1183 -0.2441 -0.6486
 8622TIP3    H150061   2.303   1.470   6.904 -0.3532  0.0544  0.2042
 8622TIP3    H250062   2.294   1.319   6.921  0.1004 -0.1839 -1.4783
 8623TIP3   OH250063   5.136   4.334   1.294 -0.4780 -0.2374 -0.0659
 8623TIP3    H150064   5.232   4.328   1.294 -0.4044  0.8410 -0.3860
 8623TIP3    H250065   5.116   4.412   1.346 -1.0705  0.9297 -1.9728
 8624TIP3   OH250066   6.038   2.905   1.197  0.2522 -0.1827  0.3266
 8624TIP3    H150067   6.013   2.946   1.114 -0.8330 -1.7171 -0.1597
 8624TIP3    H250068   6.133   2.911   1.200  0.2617  0.3803 -0.7728
 8625TIP3   OH250069   0.219   7.184   8.267 -0.4304  0.1333  0.1661
 8625TIP3    H150070   0.227   7.246   8.339  1.6103 -0.6453  0.6669
 8625TIP3    H250071   0.141   7.133   8.287 -1.2524  1.4893  0.5383
 8626TIP3   OH250072   6.099   3.113   8.576 -0.6660 -0.1391  0.1878
 8626TIP3    H150073   6.121   3.070   8.493 -0.5518  2.2134 -1.0740
 8626TIP3    H250074   6.012   3.150   8.562 -0.5816  0.4198  1.0656
 8627TIP3   OH250075   6.368   3.628   8.862 -0.4166 -0.4544 -0.1925
 8627TIP3    H150076   6.374   3.544   8.908 -0.7406 -1.2704 -1.5640
 8627TIP3    H250077   6.408   3.692   8.922  1.6752 -1.9083  0.0866
 8628TIP3   OH250078   6.424   3.325   1.753  0.0420 -0.1317 -0.3954
 8628TIP3    H150079   6.330   3.322   1.737  0.2187  0.4067 -1.7299
 8628TIP3    H250080   6.447   3.418   1.745  0.7353 -0.3044 -0.4948
 8629TIP3   OH250081   6.919   5.780   1.913  0.4920 -0.1986  0.1196
 8629TIP3    H150082   6.859   5.786   1.839 -0.2188  1.0636  0.7857
 8629TIP3    H250083   6.974   5.858   1.906  0.2668  0.0535  1.0478
 8630TIP3   OH250084   2.142   5.033   1.006  0.1191 -0.3754  0.4621
 8630TIP3    H150085   2.165   5.117   1.045 -0.8972  0.4272 -0.5849
 8630TIP3    H250086   2.220   4.978   1.018  1.3141  1.1519 -0.0487
 8631TIP3   OH250087   4.631   1.479   2.988 -0.0609  0.1635 -0.0226
 8631TIP3    H150088   4.703   1.534   2.957 -0.9541  1.4417  0.0562
 8631TIP3    H250089   4.572   1.472   2.913 -0.6545  0.5334  0.4011
 8632TIP3   OH250090   6.734   0.390   8.896 -0.3069 -0.9943 -0.0960
 8632TIP3    H150091   6.644   0.358   8.896 -0.0025 -2.0187 -1.7485
 8632TIP3    H250092   6.782   0.325   8.948 -0.3039 -1.2371 -0.3953
 8633TIP3   OH250093   3.148   2.964   8.088  0.2777 -0.3796 -0.3080
 8633TIP3    H150094   3.124   3.034   8.147  0.5632  0.7875 -1.5275
 8633TIP3    H250095   3.236   2.985   8.060 -0.8325  0.7535 -3.3598
 8634TIP3   OH250096   2.341   1.532   7.844  0.2911  0.0020 -0.4145
 8634TIP3    H150097   2.375   1.564   7.761 -0.4517 -0.5895 -0.9717
 8634TIP3    H250098   2.302   1.447   7.822 -0.6451  0.2091  0.3702
 8635TIP3   OH250099   2.802   6.105   8.071 -0.0568  0.0389 -0.4859
 8635TIP3    H150100   2.896   6.090   8.068  0.0663  0.5308  0.4159
 8635TIP3    H250101   2.782   6.149   7.989  0.3827 -0.6766 -0.9851
 8636TIP3   OH250102   3.577   1.926   2.437  0.1478 -0.7063  0.1404
 8636TIP3    H150103   3.603   1.865   2.506 -0.5909 -2.3553 -0.9719
 8636TIP3    H250104   3.651   1.929   2.378 -0.1436 -1.2585 -0.2673
 8637TIP3   OH250105   3.720   4.213   0.648  0.6531  0.6830 -0.1442
 8637TIP3    H150106   3.696   4.235   0.558 -0.8969 -0.1172  0.0518
 8637TIP3    H250107   3.789   4.276   0.670 -0.5871  2.4406 -1.0709
 8638TIP3   OH250108   7.199   4.997   1.683  0.2412 -0.0135  0.0896
 8638TIP3    H150109   7.215   5.006   1.777 -0.8471  0.6660  0.2255
 8638TIP3    H250110   7.258   5.062   1.643  0.7646 -0.3587  0.2866
 8639TIP3   OH250111   0.078   4.082   1.319 -0.1382 -0.4044  0.5808
 8639TIP3    H150112   0.097   4.158   1.373 -0.1490  0.8906 -1.1547
 8639TIP3    H250113   0.153   4.023   1.333 -0.1593 -0.1239  1.9877
 8640TIP3   OH250114   0.913   3.455   7.590 -0.1406 -0.3402 -0.5257
 8640TIP3    H150115   0.903   3.413   7.675  0.8411 -0.8230 -0.6293
 8640TIP3    H250116   0.960   3.536   7.608 -0.6823 -0.0188 -0.5175
 8641TIP3   OH250117   3.902   1.770   0.864 -0.6545  0.1661  0.2226
 8641TIP3    H150118   3.908   1.826   0.942  0.6300  1.7761 -0.9619
 8641TIP3    H250119   3.877   1.830   0.794  0.8395 -0.7105 -1.1082
 8642TIP3   OH250120   5.688   5.979   8.326  0.0850 -0.6584  0.2393
 8642TIP3    H150121   5.659   6.017   8.243  2.2724 -1.1408 -0.8098
 8642TIP3    H250122   5.614   5.993   8.385 -2.7794 -2.8256 -2.4557
 8643TIP3   OH250123   5.412   2.234   7.503  0.4561  0.3188  0.3028
 8643TIP3    H150124   5.340   2.200   7.448  0.7195 -1.0595  0.7771
 8643TIP3    H250125   5.376   2.234   7.591  1.3887 -1.5581  0.7355
 8644TIP3   OH250126   6.736   4.724   7.138  0.2692 -0.1604 -0.3606
 8644TIP3    H150127   6.701   4.810   7.116 -1.7843 -0.7883  0.2354
 8644TIP3    H250128   6.762   4.687   7.053 -1.7494 -0.1297 -1.0517
 8645TIP3   OH250129   0.739   0.957   0.501  0.2799 -0.5679  0.3916
 8645TIP3    H150130   0.679   1.006   0.445  0.2594 -0.8187  0.1946
 8645TIP3    H250131   0.684   0.894   0.547  0.6317 -2.0972 -1.1959
 8646TIP3   OH250132   4.117   1.000   1.140 -0.0721  0.1855  0.4439
 8646TIP3    H150133   4.089   1.090   1.154  0.5950  0.2700  1.3200
 8646TIP3    H250134   4.191   1.006   1.080 -1.2651  0.0381 -1.1052
 8647TIP3   OH250135   5.595   3.431   1.966 -0.1651 -0.3862 -0.0771
 8647TIP3    H150136   5.527   3.477   1.918 -0.2757 -0.6818 -0.2092
 8647TIP3    H250137   5.552   3.352   1.999  0.4287 -1.2662 -1.2921
 8648TIP3   OH250138   3.236   2.007   8.045 -0.1788  0.6548  0.6036
 8648TIP3    H150139   3.155   1.960   8.068  0.4698 -0.4731  0.6237
 8648TIP3    H250140   3.209   2.099   8.040 -1.9105  0.1361 -1.2966
 8649TIP3   OH250141   4.324   5.288   2.231 -0.8876  0.3895 -0.3034
 8649TIP3    H150142   4.408   5.244   2.226 -1.0592  0.1028 -0.6973
 8649TIP3    H250143   4.306   5.295   2.325 -1.4348 -1.4862 -0.2305
 8650TIP3   OH250144   1.625   0.402   9.133 -0.2157 -0.2756 -0.2538
 8650TIP3    H150145   1.624   0.496   9.118  0.8864 -0.4984 -2.0705
 8650TIP3    H250146   1.679   0.367   9.061  1.3823 -2.0399  1.6693
 8651TIP3   OH250147   4.370   2.281   8.423  0.2141 -0.2432 -0.0810
 8651TIP3    H150148   4.361   2.194   8.462  0.2810 -0.5693 -0.7623
 8651TIP3    H250149   4.433   2.268   8.352 -1.0572 -0.0237 -1.2983
 8652TIP3   OH250150   2.721   6.942   9.522  0.1124 -0.2540 -0.0931
 8652TIP3    H150151   2.810   6.932   9.557  0.4416 -2.5768 -1.4483
 8652TIP3    H250152   2.729   7.014   9.458  0.9473 -0.2508 -0.0002
 8653TIP3   OH250153   6.483   0.092   8.699  0.6229 -0.5684  0.1037
 8653TIP3    H150154   6.560   0.075   8.753 -0.2231 -0.7638  1.2998
 8653TIP3    H250155   6.431   0.011   8.706 -0.8502  0.4321  1.3581
 8654TIP3   OH250156   0.648   5.553   2.039  0.3500 -0.4826 -0.2095
 8654TIP3    H150157   0.583   5.602   1.988  0.7642 -0.0644 -0.3499
 8654TIP3    H250158   0.617   5.559   2.130  0.8073  0.7529 -0.1057
 8655TIP3   OH250159   1.278   4.827   0.466 -0.3147  0.1824 -0.6558
 8655TIP3    H150160   1.250   4.808   0.376  1.8817 -0.2695 -1.3016
 8655TIP3    H250161   1.326   4.749   0.493  1.4569  1.3824 -0.1465
 8656TIP3   OH250162   1.321   6.753   8.341  0.0603 -0.0514 -0.0164
 8656TIP3    H150163   1.295   6.671   8.382 -0.1630  0.2786  0.5245
 8656TIP3    H250164   1.414   6.762   8.362  0.6317 -1.1724 -1.8485
 8657TIP3   OH250165   3.356   2.978   1.154  0.1761  0.0495 -0.9794
 8657TIP3    H150166   3.299   2.999   1.080 -0.8642  0.9251  0.0358
 8657TIP3    H250167   3.324   3.033   1.225 -0.3997 -2.4600  0.8294
 8658TIP3   OH250168   5.570   5.252   8.860 -0.6815 -0.8236  0.3879
 8658TIP3    H150169   5.545   5.343   8.850  2.1073  0.0983  1.0369
 8658TIP3    H250170   5.583   5.220   8.770  0.0068 -0.0523  0.2081
 8659TIP3   OH250171   3.695   2.695   9.043  0.1554 -0.4691 -0.1030
 8659TIP3    H150172   3.644   2.758   8.993  1.8947  1.3354  0.2449
 8659TIP3    H250173   3.661   2.610   9.017 -1.7585  0.5709 -1.2063
 8660TIP3   OH250174   4.558   4.701   8.535  0.1704 -0.3057 -0.3037
 8660TIP3    H150175   4.521   4.748   8.460  0.0188 -2.0407 -1.3804
 8660TIP3    H250176   4.492   4.635   8.556  0.9640 -0.9380  0.2604
 8661TIP3   OH250177   5.234   1.171   0.504 -0.1511 -0.5747 -0.4371
 8661TIP3    H150178   5.210   1.246   0.559  2.6812 -1.3350  2.1629
 8661TIP3    H250179   5.293   1.208   0.438 -1.5429 -0.0482 -1.4323
 8662TIP3   OH250180   6.931   5.357   0.426 -0.0980  0.7959  0.2687
 8662TIP3    H150181   6.925   5.453   0.420 -0.6937  0.7113 -0.7022
 8662TIP3    H250182   6.907   5.337   0.517  0.3620  1.5811  0.5780
 8663TIP3   OH250183   2.306   6.496   0.525  0.5430 -0.0993  0.3693
 8663TIP3    H150184   2.266   6.410   0.514  0.7826 -0.5290  2.5162
 8663TIP3    H250185   2.239   6.550   0.566  1.1291  0.0549  1.1564
 8664TIP3   OH250186   6.070   6.930   7.925  0.7335  0.1172  0.5392
 8664TIP3    H150187   6.041   6.907   7.837  1.8354 -1.1031  0.4619
 8664TIP3    H250188   6.025   7.012   7.945  1.1232  0.8738 -1.4922
 8665TIP3   OH250189   2.004   1.003   8.400  0.3621  0.2172 -0.3982
 8665TIP3    H150190   1.953   1.066   8.349 -0.5685 -0.6959 -0.6293
 8665TIP3    H250191   1.940   0.937   8.427  0.5727  1.1458  2.8160
 8666TIP3   OH250192   3.254   6.237   0.605 -0.7677  0.3253  0.0489
 8666TIP3    H150193   3.291   6.308   0.658 -0.5088  0.2277  0.0015
 8666TIP3    H250194   3.211   6.180   0.669  0.1451 -0.1661  0.2495
 8667TIP3   OH250195   4.915   6.929   6.556 -0.1361  0.1167 -0.6582
 8667TIP3    H150196   4.928   6.845   6.513  2.8720  0.0277  0.1924
 8667TIP3    H250197   4.822   6.931   6.578 -0.3007 -3.0114 -0.6568
 8668TIP3   OH250198   4.435   0.745   7.345  0.3283 -0.0064  0.1325
 8668TIP3    H150199   4.501   0.689   7.387  0.1333 -0.7533 -0.5304
 8668TIP3    H250200   4.454   0.833   7.378  1.2121 -0.3189  0.4988
 8669TIP3   OH250201   3.079   2.829   1.137  0.3593  0.2952 -0.3950
 8669TIP3    H150202   3.074   2.734   1.130  1.5189  0.1474  0.4897
 8669TIP3    H250203   3.123   2.844   1.221  1.4623  1.5914 -1.1848
 8670TIP3   OH250204   7.349   1.012   2.281 -0.3153 -0.3356  0.0007
 8670TIP3    H150205   7.315   0.948   2.344  0.3720 -0.2508  0.4723
 8670TIP3    H250206   7.376   1.086   2.335  2.2983 -1.1172 -0.1142
 8671TIP3   OH250207   6.873   3.083   0.768 -0.1987  0.4497  0.1446
 8671TIP3    H150208   6.876   3.132   0.850 -1.0657 -1.3852  1.3473
 8671TIP3    H250209   6.965   3.071   0.743  0.0729  0.9874  0.8732
 8672TIP3   OH250210   6.783   0.946   1.166 -0.9399  0.0151 -0.5587
 8672TIP3    H150211   6.854   1.005   1.193 -1.3336  0.6467 -0.8839
 8672TIP3    H250212   6.786   0.946   1.071 -0.5399 -1.0022 -0.5606
 8673TIP3   OH250213   5.985   2.106   0.426 -0.4594  0.0402  0.2728
 8673TIP3    H150214   5.923   2.114   0.354 -1.4054  0.9743  1.1540
 8673TIP3    H250215   6.028   2.021   0.412 -2.9705 -1.3395  0.4249
 8674TIP3   OH250216   0.146   2.183   9.433 -0.1974 -0.1929 -0.0367
 8674TIP3    H150217   0.064   2.232   9.428  0.1105  0.5815  1.6355
 8674TIP3    H250218   0.129   2.101   9.386 -1.2230  0.8447 -1.5227
 8675TIP3   OH250219   1.240   2.075   9.560  0.7906 -0.3392 -0.0105
 8675TIP3    H150220   1.323   2.053   9.518  1.6512  0.4843  1.2210
 8675TIP3    H250221   1.175   2.024   9.511  1.9243 -0.5269 -1.3924
 8676TIP3   OH250222   0.167   6.767   7.482 -0.2517 -0.6772 -0.1673
 8676TIP3    H150223   0.180   6.860   7.501  0.0816 -0.9054  0.8089
 8676TIP3    H250224   0.100   6.766   7.414 -0.6615  0.2630  0.1951
 8677TIP3   OH250225   6.708   0.751   7.336 -0.0460  0.2773  0.1894
 8677TIP3    H150226   6.713   0.705   7.419  0.2478 -0.4576 -0.2252
 8677TIP3    H250227   6.794   0.739   7.296 -0.7252 -0.9163 -0.9985
 8678TIP3   OH250228   0.536   0.958   7.016  0.4317  0.4447 -0.0904
 8678TIP3    H150229   0.458   0.903   7.006  0.2312  0.5963  0.5647
 8678TIP3    H250230   0.555   0.990   6.928 -0.3517  0.5479 -0.2313
 8679TIP3   OH250231   0.969   4.598   9.288  0.3292 -0.1783 -0.6103
 8679TIP3    H150232   0.989   4.535   9.357 -3.8248 -0.6999  0.3485
 8679TIP3    H250233   0.964   4.683   9.333 -1.3243 -0.3531 -0.4292
 8680TIP3   OH250234   2.934   4.550   1.973  0.1689  0.1788  0.0706
 8680TIP3    H150235   2.901   4.572   1.886  3.0622 -1.1105 -1.4816
 8680TIP3    H250236   2.856   4.549   2.028 -1.5698  2.8143 -2.0657
 8681TIP3   OH250237   4.597   0.418   7.442 -0.4351  0.4760 -0.2585
 8681TIP3    H150238   4.639   0.500   7.414  2.4146 -0.8256 -0.0890
 8681TIP3    H250239   4.590   0.426   7.537  2.4951 -0.5162  0.1311
 8682TIP3   OH250240   0.898   4.015   1.026 -0.3583 -0.1786 -0.2809
 8682TIP3    H150241   0.845   4.094   1.032 -1.7862 -1.1101 -0.1292
 8682TIP3    H250242   0.982   4.040   1.065 -0.5832  1.3995 -0.7165
 8683TIP3   OH250243   2.437   3.125   0.631  0.2687  0.2029 -0.2731
 8683TIP3    H150244   2.371   3.058   0.615 -0.1594  0.4435  0.4722
 8683TIP3    H250245   2.497   3.086   0.695  1.4993 -0.4318 -1.7359
 8684TIP3   OH250246   0.742   5.793   6.891  0.4027  0.3514  0.0185
 8684TIP3    H150247   0.804   5.720   6.885  1.6074  1.3516  0.1391
 8684TIP3    H250248   0.781   5.853   6.954 -2.0615 -0.2747  2.3425
 8685TIP3   OH250249   1.802   4.169   9.120  0.0431  0.0121 -0.1608
 8685TIP3    H150250   1.781   4.263   9.119  1.0336  0.2569  0.8898
 8685TIP3    H250251   1.866   4.159   9.190 -0.2524 -1.5069 -0.0788
 8686TIP3   OH250252   1.242   4.690   7.255 -0.1564  0.7131 -0.5324
 8686TIP3    H150253   1.195   4.666   7.335 -0.7333 -0.9705 -1.3381
 8686TIP3    H250254   1.194   4.766   7.220 -1.2747  0.0471 -0.4710
 8687TIP3   OH250255   4.303   6.418   8.396 -0.1277  0.0954 -0.3402
 8687TIP3    H150256   4.289   6.490   8.335  2.8783  0.9777 -0.1701
 8687TIP3    H250257   4.369   6.363   8.354  0.7515 -0.2229  1.3392
 8688TIP3   OH250258   7.161   7.126   0.088  0.0483  0.3898 -0.2440
 8688TIP3    H150259   7.256   7.139   0.092  0.1994 -0.4218 -0.8742
 8688TIP3    H250260   7.134   7.170   0.007 -0.0631  0.3270 -0.2420
 8689TIP3   OH250261   5.062   5.705   1.252  0.1215  0.1892 -0.4900
 8689TIP3    H150262   5.120   5.631   1.272 -0.7584 -0.9905 -2.0406
 8689TIP3    H250263   5.099   5.779   1.301  0.4753 -1.4680  1.9566
 8690TIP3   OH250264   4.873   5.686   7.590 -0.1294 -0.2293 -0.6733
 8690TIP3    H150265   4.862   5.645   7.676 -4.7526  3.2994  0.8579
 8690TIP3    H250266   4.833   5.624   7.529  0.0610 -1.2864  0.2364
 8691TIP3   OH250267   5.872   5.820   1.122 -0.2816  0.0147 -0.6872
 8691TIP3    H150268   5.843   5.880   1.053  1.0350  1.0163 -0.4142
 8691TIP3    H250269   5.864   5.733   1.084 -2.4782  0.3066 -1.0106
 8692TIP3   OH250270   6.166   1.354   6.436  0.1245  0.1246 -0.0827
 8692TIP3    H150271   6.219   1.375   6.359 -0.4830  0.2479 -0.4772
 8692TIP3    H250272   6.205   1.406   6.507  0.8808 -0.2286 -0.2293
 8693TIP3   OH250273   3.408   7.116   7.697 -0.1200 -0.0928 -0.5218
 8693TIP3    H150274   3.390   7.032   7.654 -1.8238  0.8798 -1.8419
 8693TIP3    H250275   3.503   7.122   7.698  0.0212 -1.3428 -1.8447
 8694TIP3   OH250276   4.128   3.114   7.913  0.1637 -0.1574 -0.2050
 8694TIP3    H150277   4.116   3.114   8.008  0.4544 -0.8095 -0.1623
 8694TIP3    H250278   4.194   3.046   7.898 -0.4374 -0.5774 -0.9465
 8695TIP3   OH250279   5.615   5.447   7.612  0.4168 -0.0932 -0.2758
 8695TIP3    H150280   5.698   5.419   7.650 -0.2662 -1.8745 -0.0185
 8695TIP3    H250281   5.625   5.542   7.601  1.8946 -0.0277  1.1905
 8696TIP3   OH250282   7.231   4.649   1.556  0.1057 -0.6011  0.1785
 8696TIP3    H150283   7.313   4.601   1.543 -0.5821 -1.3182 -1.9484
 8696TIP3    H250284   7.220   4.701   1.476  0.1359  2.1835  1.8302
 8697TIP3   OH250285   0.027   4.455   7.924  0.3790  0.6273 -0.8974
 8697TIP3    H150286  -0.062   4.479   7.951  0.2124 -1.0782  0.2602
 8697TIP3    H250287   0.014   4.397   7.849  0.5478  0.7739 -1.0405
 8698TIP3   OH250288   4.408   4.039   7.036  0.0284 -0.0507  0.1884
 8698TIP3    H150289   4.439   4.031   6.946  1.4243  0.8556  0.5595
 8698TIP3    H250290   4.362   3.956   7.052 -2.8630  0.9141 -2.2517
 8699TIP3   OH250291   4.187   4.944   9.352  0.5059 -0.2073 -0.3375
 8699TIP3    H150292   4.257   4.987   9.402  1.1772  1.1904 -2.3353
 8699TIP3    H250293   4.161   4.869   9.405  1.6290  0.8040  1.7451
 8700TIP3   OH250294   0.835   0.532   0.078  0.4932  0.0872 -0.2963
 8700TIP3    H150295   0.912   0.570   0.035  0.6219  0.7490  0.4964
 8700TIP3    H250296   0.842   0.561   0.169 -0.6099  0.0034 -0.1780
 8701TIP3   OH250297   1.526   5.421   7.977  0.3074 -0.1043 -0.0569
 8701TIP3    H150298   1.483   5.475   8.044  0.6430 -0.3285  0.3439
 8701TIP3    H250299   1.484   5.336   7.984 -2.1800  0.7747 -2.5443
 8702TIP3   OH250300   0.569   1.848   0.575  0.2803  0.4263  0.7990
 8702TIP3    H150301   0.522   1.871   0.494 -1.0208  1.0964  1.7034
 8702TIP3    H250302   0.505   1.864   0.644  0.9123 -1.4564  1.8748
 8703TIP3   OH250303   2.104   2.881   7.849  0.1224 -0.0295 -0.8594
 8703TIP3    H150304   2.182   2.837   7.884 -0.1177  0.7921  0.7846
 8703TIP3    H250305   2.037   2.870   7.916 -1.0051 -0.1527 -1.9668
 8704TIP3   OH250306   0.138   4.880   0.657 -0.2271  0.1697  0.0925
 8704TIP3    H150307   0.183   4.909   0.578 -2.4361  0.7608 -1.0161
 8704TIP3    H250308   0.070   4.820   0.626 -0.1457 -0.8316  1.7161
 8705TIP3   OH250309   6.966   6.438   1.587 -0.4221  0.1955 -0.1084
 8705TIP3    H150310   7.015   6.508   1.544 -0.8241 -0.8061 -2.3327
 8705TIP3    H250311   6.879   6.442   1.548 -0.6200 -1.1947  0.1272
 8706TIP3   OH250312   3.868   4.163   9.432 -0.1445 -0.3107 -0.0669
 8706TIP3    H150313   3.853   4.069   9.421 -0.3620 -0.3909  0.8253
 8706TIP3    H250314   3.897   4.193   9.346  2.6088 -1.6934  0.2629
 8707TIP3   OH250315   0.511   2.176   1.016 -0.0880  0.0040  0.5775
 8707TIP3    H150316   0.585   2.237   1.019 -0.3809  0.3256  2.3037
 8707TIP3    H250317   0.483   2.168   1.107 -1.1515 -1.3897  0.1619
 8708TIP3   OH250318   0.210   5.398   8.576  0.4181 -0.4631  0.2031
 8708TIP3    H150319   0.127   5.420   8.617 -0.2621 -2.1701 -0.1800
 8708TIP3    H250320   0.269   5.381   8.650 -0.2645 -1.6313  0.4950
 8709TIP3   OH250321   1.999   4.924   7.710  0.1967  0.7489 -0.0948
 8709TIP3    H150322   2.079   4.947   7.757  0.9915  1.6381 -1.7732
 8709TIP3    H250323   2.027   4.858   7.646 -1.0607 -1.2353  1.2850
 8710TIP3   OH250324   0.213   2.049   1.214 -0.2468  0.1654 -0.5307
 8710TIP3    H150325   0.232   2.066   1.122  1.8413  2.3304  0.1924
 8710TIP3    H250326   0.277   2.101   1.262 -0.9160 -1.2933  2.1801
 8711TIP3   OH250327   0.515   3.777   9.518  0.0584  0.4709  0.6629
 8711TIP3    H150328   0.423   3.757   9.537  0.1284  1.6001  2.4538
 8711TIP3    H250329   0.553   3.693   9.492 -0.9968 -0.4830  2.0305
 8712TIP3   OH250330   5.303   4.113   1.381  0.0652  0.1679  0.0683
 8712TIP3    H150331   5.219   4.126   1.426  0.2230 -0.2703  0.4912
 8712TIP3    H250332   5.359   4.184   1.413 -0.5855  1.3774 -1.3373
 8713TIP3   OH250333   5.128   2.009   0.379 -0.4997  0.1065 -0.1119
 8713TIP3    H150334   5.223   2.007   0.373 -0.5501 -0.4161 -0.9360
 8713TIP3    H250335   5.102   2.088   0.330 -0.5716 -0.7927 -1.6022
 8714TIP3   OH250336   0.170   6.049   0.652  0.5189 -0.1592 -0.5174
 8714TIP3    H150337   0.132   6.135   0.670  0.3224 -0.1636 -0.8954
 8714TIP3    H250338   0.191   6.051   0.558  0.4788 -0.5336 -0.5371
 8715TIP3   OH250339   2.875   1.010   0.130  0.6076 -0.3652 -0.2620
 8715TIP3    H150340   2.854   1.046   0.044  1.4067  0.5320 -0.0991
 8715TIP3    H250341   2.963   1.042   0.149 -0.1792  0.8626  1.6138
 8716TIP3   OH250342   5.945   5.476   2.143 -0.2572 -0.2719 -0.6369
 8716TIP3    H150343   5.908   5.405   2.091 -0.4542  0.6679 -1.8202
 8716TIP3    H250344   6.000   5.525   2.081 -1.2450  1.4250 -0.2261
 8717TIP3   OH250345   7.085   1.394   6.525  0.4463 -0.4085 -0.5115
 8717TIP3    H150346   7.162   1.406   6.470  1.0255 -0.3706  0.2945
 8717TIP3    H250347   7.116   1.409   6.614 -0.7866  0.9252 -0.2761
 8718TIP3   OH250348   6.567   1.058   1.391  0.0931 -0.1811 -0.4093
 8718TIP3    H150349   6.520   1.078   1.472  0.7324 -1.0060  0.1834
 8718TIP3    H250350   6.658   1.085   1.409  0.3344 -0.7969 -0.6759
 8719TIP3   OH250351   2.782   3.029   1.786 -0.0505 -0.2965  0.8404
 8719TIP3    H150352   2.813   3.081   1.859  1.1865  0.1444  0.0300
 8719TIP3    H250353   2.853   2.967   1.769  0.2396  0.4095 -0.7391
 8720TIP3   OH250354   2.960   1.448   0.478 -0.2826  0.3432  0.6182
 8720TIP3    H150355   3.039   1.484   0.517  0.5060  2.0945 -2.2793
 8720TIP3    H250356   2.991   1.372   0.427 -0.4581  0.8831 -0.3234
 8721TIP3   OH250357   6.468   5.764   9.170  0.1060  0.0771 -0.2795
 8721TIP3    H150358   6.458   5.711   9.249 -2.3981 -1.5282 -1.5302
 8721TIP3    H250359   6.409   5.838   9.183 -0.6390 -0.4113 -0.7513
 8722TIP3   OH250360   4.770   6.955   7.090  0.0277 -0.6396  0.6400
 8722TIP3    H150361   4.832   7.021   7.122 -0.6352  1.4650 -2.0237
 8722TIP3    H250362   4.810   6.922   7.009  0.0723 -3.2363  1.6164
 8723TIP3   OH250363   6.682   0.978   8.500  0.0729 -0.4851 -0.4062
 8723TIP3    H150364   6.616   0.927   8.548 -1.4995  2.6413  1.0943
 8723TIP3    H250365   6.765   0.952   8.539 -0.8734 -0.4172  1.8079
 8724TIP3   OH250366   2.649   5.283   0.428  0.2222  0.0541  0.2477
 8724TIP3    H150367   2.565   5.251   0.460  0.6653 -1.4223  0.0454
 8724TIP3    H250368   2.629   5.364   0.381 -1.2609 -0.9045 -0.8571
 8725TIP3   OH250369   7.275   5.372   1.214 -0.7238  0.2661  0.2351
 8725TIP3    H150370   7.251   5.282   1.194  1.9498 -0.0722 -2.0096
 8725TIP3    H250371   7.242   5.423   1.140 -0.3955  0.8039  0.4485
 8726TIP3   OH250372   4.621   5.382   7.860 -0.3041  0.3070  0.1261
 8726TIP3    H150373   4.618   5.290   7.883 -0.3443  0.5828  1.2823
 8726TIP3    H250374   4.550   5.422   7.911 -1.1511  0.7835 -1.3478
 8727TIP3   OH250375   5.842   2.185   7.856  0.2845  0.8931 -0.2673
 8727TIP3    H150376   5.850   2.276   7.828 -2.3587  1.4874  0.5490
 8727TIP3    H250377   5.773   2.149   7.800  0.8065 -0.4043 -0.1021
 8728TIP3   OH250378   0.504   2.941   0.727  0.4986  0.5792 -0.2672
 8728TIP3    H150379   0.430   2.902   0.774 -0.9065  2.1624 -1.0414
 8728TIP3    H250380   0.524   3.022   0.776  0.3609  1.1916 -1.1979
 8729TIP3   OH250381   1.139   5.916   1.600  0.0513  0.5937 -0.1174
 8729TIP3    H150382   1.227   5.928   1.564  0.0063 -0.4626 -0.6028
 8729TIP3    H250383   1.148   5.846   1.664 -0.4326  0.4798 -0.1659
 8730TIP3   OH250384   0.635   6.332   1.114 -0.1719  0.4194  0.0767
 8730TIP3    H150385   0.551   6.295   1.087 -0.7415  0.9326  1.0792
 8730TIP3    H250386   0.615   6.379   1.195  1.0600  0.6673  0.2498
 8731TIP3   OH250387   5.907   0.506   0.151 -0.0169  0.4764  0.0686
 8731TIP3    H150388   5.852   0.439   0.192  0.3997 -0.1182 -0.3195
 8731TIP3    H250389   5.850   0.582   0.141 -0.6693 -0.0206 -0.0116
 8732TIP3   OH250390   1.444   0.994   8.463 -0.1962 -0.1582  0.7352
 8732TIP3    H150391   1.418   0.912   8.419 -1.1914  0.3963  0.2510
 8732TIP3    H250392   1.456   0.968   8.555  0.8014 -1.1044  0.3587
 8733TIP3   OH250393   0.418   6.499   8.264  0.6125  0.2480  0.0479
 8733TIP3    H150394   0.355   6.457   8.206  0.9065 -0.4370  0.2158
 8733TIP3    H250395   0.366   6.530   8.338  0.5027 -0.5381  0.3080
 8734TIP3   OH250396   1.957   4.177   0.814  0.2250  0.0200 -0.1133
 8734TIP3    H150397   1.892   4.110   0.830  0.0739 -0.2824 -1.8791
 8734TIP3    H250398   2.002   4.187   0.899  1.5316 -3.6354 -0.2032
 8735TIP3   OH250399   7.263   3.411   0.298 -1.0488 -0.4323  0.3807
 8735TIP3    H150400   7.284   3.324   0.262 -2.2959 -0.1243 -1.2390
 8735TIP3    H250401   7.170   3.405   0.321 -1.0078  0.3122  0.7549
 8736TIP3   OH250402   4.773   2.444   8.162 -0.3242 -0.2877  0.0790
 8736TIP3    H150403   4.824   2.398   8.228 -1.0460 -0.8859  0.2276
 8736TIP3    H250404   4.753   2.529   8.202 -0.8646 -0.6937  0.6944
 8737TIP3   OH250405   2.616   6.965   1.392 -0.0263 -0.4865 -0.4018
 8737TIP3    H150406   2.708   6.937   1.392 -0.0759 -0.7225  0.7982
 8737TIP3    H250407   2.607   7.015   1.473 -1.1427 -1.1227 -0.1209
 8738TIP3   OH250408   3.933   2.033   7.559  0.4469 -0.4138 -0.1832
 8738TIP3    H150409   3.984   2.103   7.601  1.5838 -1.1525 -0.2890
 8738TIP3    H250410   3.923   1.967   7.628 -1.9635  0.4699  0.4026
 8739TIP3   OH250411   3.926   4.281   0.938  0.5961 -0.2637 -0.5025
 8739TIP3    H150412   3.938   4.291   1.033  0.9086 -1.0661 -0.4494
 8739TIP3    H250413   3.946   4.189   0.921 -1.6711 -0.7396 -0.9981
 8740TIP3   OH250414   3.154   3.833   7.445  0.2231 -0.3060  0.3981
 8740TIP3    H150415   3.113   3.856   7.529  0.8787  1.3959  0.2769
 8740TIP3    H250416   3.243   3.867   7.451 -0.5933  2.7186 -2.1328
 8741TIP3   OH250417   1.795   3.109   9.095  0.9918 -0.4038 -0.2071
 8741TIP3    H150418   1.867   3.115   9.033  1.5687 -0.3783  0.4515
 8741TIP3    H250419   1.838   3.105   9.181  0.2235 -0.7773  0.1687
 8742TIP3   OH250420   6.261   1.491   6.708 -0.2019  0.0378  0.2843
 8742TIP3    H150421   6.171   1.489   6.742 -0.3155 -1.0905 -0.0447
 8742TIP3    H250422   6.316   1.495   6.786 -0.5209  2.1405  0.4835
 8743TIP3   OH250423   5.045   1.577   7.707 -0.0033  0.0270  0.0084
 8743TIP3    H150424   5.110   1.637   7.744 -0.6846  1.5472 -1.1659
 8743TIP3    H250425   5.097   1.515   7.656  0.6359  0.3651  0.2387
 8744TIP3   OH250426   0.491   6.406   1.647  0.2173 -0.3331  0.9848
 8744TIP3    H150427   0.439   6.341   1.695 -2.6140  2.9248  2.7987
 8744TIP3    H250428   0.448   6.412   1.562 -0.2433 -0.1007  1.2260
 8745TIP3   OH250429   1.559   0.423   0.746 -0.1420  0.3842 -0.0648
 8745TIP3    H150430   1.464   0.414   0.759 -0.1211  0.7882  0.4057
 8745TIP3    H250431   1.596   0.395   0.830  0.2218 -0.8574 -0.6123
 8746TIP3   OH250432   2.325   0.586   3.099 -0.3949 -0.4562  0.1096
 8746TIP3    H150433   2.248   0.642   3.100  0.3355  0.5861  0.2511
 8746TIP3    H250434   2.399   0.647   3.107  0.3673 -1.5788  2.3420
 8747TIP3   OH250435   3.290   4.563   2.319 -0.0207  0.5085  0.8281
 8747TIP3    H150436   3.318   4.599   2.403 -1.4817  0.5759  1.3097
 8747TIP3    H250437   3.369   4.563   2.266  1.3665 -1.1048  2.7296
 8748TIP3   OH250438   3.449   2.791   2.062  0.3618 -0.0217 -0.0145
 8748TIP3    H150439   3.518   2.858   2.063  0.9278 -0.5154 -1.9439
 8748TIP3    H250440   3.477   2.728   2.129  0.5402  0.9493  0.8587
 8749TIP3   OH250441   5.243   6.829   1.980  0.3723 -0.1905  0.0937
 8749TIP3    H150442   5.337   6.842   1.972  0.4341 -1.3693 -2.0485
 8749TIP3    H250443   5.204   6.906   1.939  0.3570  0.7203  1.7736
 8750TIP3   OH250444   5.259   2.483   0.969 -0.3377 -0.2191  0.1693
 8750TIP3    H150445   5.232   2.548   0.904 -2.7182  1.6956  2.7651
 8750TIP3    H250446   5.217   2.402   0.942  1.0891 -0.2860 -2.1070
 8751TIP3   OH250447   4.220   6.791   7.004  0.5927 -0.0652 -0.0312
 8751TIP3    H150448   4.241   6.869   6.952  2.2059 -0.5626 -0.1783
 8751TIP3    H250449   4.187   6.728   6.940  0.5570  0.0530 -0.1307
 8752TIP3   OH250450   3.659   1.492   7.707  0.4719  0.4737  0.2441
 8752TIP3    H150451   3.657   1.425   7.639  1.8180  0.6497  0.0001
 8752TIP3    H250452   3.568   1.518   7.719 -0.1242 -1.5869  0.5432
 8753TIP3   OH250453   0.463   5.542   0.139 -0.3059 -0.1799 -0.1204
 8753TIP3    H150454   0.489   5.623   0.182 -1.4486 -0.5478  1.3387
 8753TIP3    H250455   0.467   5.562   0.046  2.2449  0.6485  0.0742
 8754TIP3   OH250456   4.274   4.485   1.499 -0.4411  0.3587 -0.4905
 8754TIP3    H150457   4.340   4.511   1.563 -1.3536 -0.0630  0.6592
 8754TIP3    H250458   4.246   4.568   1.459  1.5122  0.4685 -1.8132
 8755TIP3   OH250459   4.876   5.468   2.703  0.0286  0.6640 -0.1317
 8755TIP3    H150460   4.966   5.438   2.692  0.0567  0.6469  0.1542
 8755TIP3    H250461   4.878   5.560   2.677 -0.0817  0.4025 -1.1244
 8756TIP3   OH250462   1.057   0.822   1.092 -0.2667 -0.0360  0.6840
 8756TIP3    H150463   1.115   0.785   1.025  0.4463  0.4836  1.0130
 8756TIP3    H250464   1.085   0.913   1.101 -0.2015 -0.1605  1.8589
 8757TIP3   OH250465   5.061   0.676   9.450 -0.3657  0.2445 -0.2771
 8757TIP3    H150466   5.068   0.673   9.546  0.5561  0.6131 -0.3274
 8757TIP3    H250467   5.024   0.762   9.431 -4.8523 -1.3875 -0.0586
 8758TIP3   OH250468   7.379   3.289   8.896  0.2475  0.0601 -0.0025
 8758TIP3    H150469   7.332   3.287   8.812 -0.6082 -1.1133  0.4662
 8758TIP3    H250470   7.382   3.382   8.920  1.2114  0.5070 -1.6870
 8759TIP3   OH250471   1.687   3.696   7.204  0.5175  0.1414  0.3550
 8759TIP3    H150472   1.606   3.664   7.163  0.2698 -0.5648  1.3489
 8759TIP3    H250473   1.727   3.752   7.138 -1.5907  1.8367  0.3992
 8760TIP3   OH250474   2.759   1.169   0.543  0.3752  0.0478 -0.1747
 8760TIP3    H150475   2.839   1.142   0.588  0.0032 -0.5487  0.1394
 8760TIP3    H250476   2.723   1.088   0.507 -0.0355  0.3282 -0.4035
 8761TIP3   OH250477   5.694   3.462   0.157  0.0346 -0.2477 -0.0918
 8761TIP3    H150478   5.730   3.534   0.105 -0.4460 -0.3168 -0.5258
 8761TIP3    H250479   5.613   3.498   0.195 -0.5857 -0.7742 -0.8865
 8762TIP3   OH250480   6.930   5.501   0.930  0.1430 -0.0858  0.6390
 8762TIP3    H150481   6.936   5.524   1.023 -0.2768  1.5256  0.2974
 8762TIP3    H250482   6.966   5.576   0.884  0.3296 -0.8569 -0.5278
 8763TIP3   OH250483   5.257   6.575   8.143  0.6231 -0.2217  0.3595
 8763TIP3    H150484   5.286   6.521   8.216  1.3524  0.1051  0.3241
 8763TIP3    H250485   5.334   6.581   8.085  0.3621  0.3248  0.0547
 8764TIP3   OH250486   4.410   0.615   8.807 -0.0742 -0.0143 -0.0773
 8764TIP3    H150487   4.471   0.663   8.863  1.9087 -0.7191 -1.4973
 8764TIP3    H250488   4.375   0.546   8.864  0.9942 -0.0001  0.6365
 8765TIP3   OH250489   5.405   6.202   9.159  0.3510  1.1912  0.0784
 8765TIP3    H150490   5.466   6.259   9.112 -1.2617  1.7522 -1.4593
 8765TIP3    H250491   5.402   6.122   9.106 -0.2073  1.1601  0.1492
 8766TIP3   OH250492   4.408   6.802   8.616 -0.5661  0.2934 -0.5441
 8766TIP3    H150493   4.440   6.830   8.701  2.8445  1.0476 -1.9026
 8766TIP3    H250494   4.418   6.707   8.617  1.7961  0.4820 -0.8356
 8767TIP3   OH250495   0.102   6.202   1.931 -0.5039  0.4810 -0.0043
 8767TIP3    H150496   0.163   6.139   1.970 -3.4378 -2.9673 -0.4591
 8767TIP3    H250497   0.022   6.193   1.982 -1.5747  2.7626 -1.1297
 8768TIP3   OH250498   3.030   6.502   9.056 -0.3009  0.1949  0.6892
 8768TIP3    H150499   3.108   6.543   9.094  0.7088 -1.8267  0.9618
 8768TIP3    H250500   3.043   6.508   8.962  1.3687 -2.0220  0.6839
 8769TIP3   OH250501   6.143   3.296   8.841  0.1568  0.0347 -0.3085
 8769TIP3    H150502   6.093   3.336   8.770  2.3593  2.2137 -0.7882
 8769TIP3    H250503   6.146   3.203   8.819 -0.5353  0.4160 -2.2249
 8770TIP3   OH250504   6.373   5.918   9.377 -0.6840 -0.7987  0.6085
 8770TIP3    H150505   6.462   5.947   9.358 -1.2772  0.2791 -0.6327
 8770TIP3    H250506   6.383   5.857   9.451  1.3507 -2.4785 -0.9152
 8771TIP3   OH250507   4.385   6.693   7.739 -0.1623  0.1216  0.1633
 8771TIP3    H150508   4.364   6.757   7.808 -1.1357 -1.3522  1.2865
 8771TIP3    H250509   4.478   6.708   7.721 -0.0014  0.8684  1.4565
 8772TIP3   OH250510   1.947   2.366   0.830  0.2891  0.0573  0.2061
 8772TIP3    H150511   2.009   2.314   0.881 -0.4018 -1.3243 -0.3124
 8772TIP3    H250512   1.971   2.349   0.739 -1.7863 -1.8410 -0.0842
 8773TIP3   OH250513   0.277   0.558   8.720  0.0459 -0.6578  0.4899
 8773TIP3    H150514   0.279   0.469   8.685 -0.4607  0.7475 -3.7469
 8773TIP3    H250515   0.344   0.559   8.788  0.6480 -4.0493  0.0916
 8774TIP3   OH250516   3.577   5.765   0.923 -0.7354  0.1255 -0.4758
 8774TIP3    H150517   3.642   5.722   0.979 -1.8863 -0.5246  0.4053
 8774TIP3    H250518   3.531   5.694   0.879 -2.7367  0.3454  1.0809
 8775TIP3   OH250519   3.101   7.340   1.907  0.2964  0.0795 -0.6168
 8775TIP3    H150520   3.187   7.299   1.908  1.0257  1.5632  0.7703
 8775TIP3    H250521   3.053   7.295   1.977  0.1176 -0.3634 -1.0184
 8776TIP3   OH250522   0.073   1.208   1.004 -0.0358 -0.1710 -0.5119
 8776TIP3    H150523   0.010   1.154   1.052  0.4902 -0.8110 -0.5280
 8776TIP3    H250524   0.096   1.278   1.066 -0.1004 -0.4329 -0.1892
 8777TIP3   OH250525   4.570   4.575   2.030 -0.4453 -0.3433 -0.1379
 8777TIP3    H150526   4.652   4.528   2.043 -0.8550 -0.6544  1.5574
 8777TIP3    H250527   4.570   4.642   2.098 -1.3664 -0.0223 -0.4448
 8778TIP3   OH250528   1.107   0.127   0.059  0.0828  0.3979 -0.3898
 8778TIP3    H150529   1.022   0.170   0.071  0.0738  1.0527 -2.4329
 8778TIP3    H250530   1.170   0.193   0.088 -0.0642 -0.5722  2.4230
 8779TIP3   OH250531   1.493   5.746   1.347  0.4185 -0.0457 -0.4840
 8779TIP3    H150532   1.428   5.679   1.368 -1.5979  1.0780 -2.6390
 8779TIP3    H250533   1.463   5.824   1.394 -0.0932  0.5812 -1.7819
 8780TIP3   OH250534   5.522   0.326   6.438 -0.0201 -0.3313 -0.3165
 8780TIP3    H150535   5.579   0.338   6.515 -0.3438  0.2286 -0.1594
 8780TIP3    H250536   5.577   0.280   6.375  0.6202  0.2043 -0.1676
 8781TIP3   OH250537   4.523   4.548   8.250  0.0476  0.0252 -0.2193
 8781TIP3    H150538   4.586   4.616   8.226 -1.3573  1.3230 -0.3525
 8781TIP3    H250539   4.575   4.484   8.299  1.7538  0.2967 -1.5861
 8782TIP3   OH250540   3.644   0.573   1.165  0.2852 -0.1319 -0.2942
 8782TIP3    H150541   3.733   0.555   1.136  0.3056 -1.3046  0.4407
 8782TIP3    H250542   3.590   0.508   1.120 -0.0113 -0.2889  0.2781
 8783TIP3   OH250543   2.991   4.651   0.285  0.2564  0.9712 -0.2015
 8783TIP3    H150544   2.973   4.558   0.270 -0.9786  0.9946  0.9345
 8783TIP3    H250545   2.948   4.671   0.368  2.2485  2.0749  0.6330
 8784TIP3   OH250546   0.321   4.883   8.532  0.1876  0.3071  0.3068
 8784TIP3    H150547   0.348   4.836   8.453  2.0936 -2.0046  2.1730
 8784TIP3    H250548   0.244   4.836   8.563 -0.6349  1.2878 -0.2110
 8785TIP3   OH250549   0.149   6.261   8.794  0.3289  0.3883  0.5225
 8785TIP3    H150550   0.235   6.219   8.798 -0.1452 -1.0921 -2.2317
 8785TIP3    H250551   0.165   6.342   8.746  0.0984 -0.2426 -0.6393
 8786TIP3   OH250552   5.862   2.299   1.160 -0.9291  0.1922  0.1751
 8786TIP3    H150553   5.788   2.342   1.117 -2.1513 -0.1570  1.8195
 8786TIP3    H250554   5.834   2.209   1.173 -1.5622  0.7510  3.5543
 8787TIP3   OH250555   1.394   6.749   8.736 -0.2004 -0.1897  0.0308
 8787TIP3    H150556   1.388   6.684   8.806  2.6983 -0.3508  0.2621
 8787TIP3    H250557   1.427   6.828   8.780  1.2323 -0.1579 -1.0341
 8788TIP3   OH250558   4.727   4.840   1.110  0.2484  0.4280 -0.0621
 8788TIP3    H150559   4.748   4.866   1.200 -1.6309 -1.5582  1.0472
 8788TIP3    H250560   4.761   4.751   1.102 -2.0404 -0.4973 -0.2795
 8789TIP3   OH250561   0.064   1.726   8.753 -0.0894 -0.3067 -0.0337
 8789TIP3    H150562  -0.010   1.738   8.813  0.6132  1.9332  0.4623
 8789TIP3    H250563   0.059   1.801   8.694 -0.2974 -2.0345 -2.3660
 8790TIP3   OH250564   4.234   5.757   0.864  0.3485  0.1274  0.6100
 8790TIP3    H150565   4.208   5.685   0.922  0.0710  0.7356  1.2577
 8790TIP3    H250566   4.265   5.825   0.924  0.6969  0.5136 -0.0012
 8791TIP3   OH250567   6.578   1.717   8.041 -0.1072 -0.2984 -0.3779
 8791TIP3    H150568   6.601   1.661   7.966  1.1405 -1.5242  0.8549
 8791TIP3    H250569   6.483   1.722   8.038 -0.0918 -0.3612 -2.0097
 8792TIP3   OH250570   5.228   4.951   0.944  0.2485  0.1726 -0.0695
 8792TIP3    H150571   5.141   4.915   0.926  0.0202  0.3818  0.5908
 8792TIP3    H250572   5.273   4.946   0.860 -0.3536 -0.0662 -0.3893
 8793TIP3   OH250573   4.205   4.725   2.340 -0.3241  0.4067 -0.0194
 8793TIP3    H150574   4.278   4.677   2.379  1.0250  0.3104 -2.4505
 8793TIP3    H250575   4.133   4.714   2.402  1.1497 -1.1429  1.5350
 8794TIP3   OH250576   2.264   4.907   8.407 -0.1454 -0.0001 -0.1208
 8794TIP3    H150577   2.256   4.847   8.333 -0.7031 -1.5577  1.1480
 8794TIP3    H250578   2.176   4.912   8.444 -0.0035  1.2258  0.0979
 8795TIP3   OH250579   0.339   3.554   8.872 -0.5673  0.3552 -0.0150
 8795TIP3    H150580   0.346   3.648   8.888 -1.6409  0.5656 -0.6735
 8795TIP3    H250581   0.246   3.534   8.881 -0.4643 -0.4923 -0.6431
 8796TIP3   OH250582   3.442   3.232   7.878  0.2588  0.5476  0.3265
 8796TIP3    H150583   3.458   3.157   7.936  1.0166  0.7785  0.4288
 8796TIP3    H250584   3.529   3.261   7.852 -0.0706  0.6358 -0.7045
 8797TIP3   OH250585   4.392   6.252   8.682 -0.0052  0.3638  0.0510
 8797TIP3    H150586   4.380   6.180   8.744 -1.2569  1.3931  1.0533
 8797TIP3    H250587   4.426   6.210   8.603 -0.6358 -1.3122  0.6325
 8798TIP3   OH250588   4.423   2.470   8.094  0.0983  0.0193 -0.0374
 8798TIP3    H150589   4.454   2.556   8.122 -0.6700  1.2146 -2.5713
 8798TIP3    H250590   4.478   2.408   8.143  3.0990  1.9746 -0.6534
 8799TIP3   OH250591   0.516   2.526   8.416  0.2232 -0.1899 -0.2098
 8799TIP3    H150592   0.438   2.506   8.467  0.6536 -0.7391  0.2513
 8799TIP3    H250593   0.549   2.440   8.388  0.3613  0.0671 -0.8639
 8800TIP3   OH250594   7.081   6.393   1.844 -0.5355  0.1100  0.7121
 8800TIP3    H150595   7.012   6.428   1.787  0.8365  1.8945  0.0425
 8800TIP3    H250596   7.149   6.364   1.784  0.5359  1.1424  1.3992
 8801TIP3   OH250597   5.213   3.594   0.705 -0.1940  0.0793 -0.5529
 8801TIP3    H150598   5.283   3.641   0.661  0.8402  0.6487  1.5549
 8801TIP3    H250599   5.155   3.662   0.739 -1.5632 -0.3695 -1.8593
 8802TIP3   OH250600   0.058   4.327   9.412 -0.2317 -0.2911 -0.2057
 8802TIP3    H150601   0.016   4.395   9.359  1.0928  1.5584  1.0061
 8802TIP3    H250602   0.151   4.333   9.388  0.3425  0.3495  1.9901
 8803TIP3   OH250603   4.438   6.688   2.543 -0.4884  0.2828 -0.0413
 8803TIP3    H150604   4.435   6.654   2.454  0.2327  0.7001 -0.2338
 8803TIP3    H250605   4.388   6.770   2.539 -0.8392  0.0744  0.0451
 8804TIP3   OH250606   2.936   5.574   0.404 -0.1418 -0.1351  0.2851
 8804TIP3    H150607   2.918   5.642   0.339 -1.7290  0.0682  0.9057
 8804TIP3    H250608   3.001   5.613   0.462 -0.0882  0.3561 -0.0980
 8805TIP3   OH250609   2.663   6.835   2.855  0.6422 -0.2064 -0.5516
 8805TIP3    H150610   2.595   6.780   2.817 -0.7938  0.1568  1.3317
 8805TIP3    H250611   2.737   6.776   2.870 -0.4034 -1.3483  0.2580
 8806TIP3   OH250612   3.465   3.103   7.337 -0.6901 -0.5006  0.3844
 8806TIP3    H150613   3.373   3.080   7.337 -1.1116  1.0404 -0.1575
 8806TIP3    H250614   3.480   3.141   7.424 -0.2976 -1.6887  0.8463
 8807TIP3   OH250615   4.065   2.272   7.941 -0.5079 -0.3688 -0.0136
 8807TIP3    H150616   4.054   2.268   7.846  0.9981  1.0593 -0.2840
 8807TIP3    H250617   4.120   2.196   7.961  0.4769  0.1895 -0.5202
 8808TIP3   OH250618   4.663   2.374   0.808 -0.1766 -0.4083  0.0347
 8808TIP3    H150619   4.717   2.437   0.856 -1.1466  1.2266 -0.9166
 8808TIP3    H250620   4.576   2.383   0.845 -0.3813 -1.0468 -0.2689
 8809TIP3   OH250621   3.901   3.313   8.749 -0.3629 -0.5800  1.1564
 8809TIP3    H150622   3.910   3.220   8.727  1.2565 -0.3621  0.7685
 8809TIP3    H250623   3.855   3.351   8.674  0.2307 -0.8293  0.6562
 8810TIP3   OH250624   2.734   0.740   8.400 -0.5576 -0.8524  0.4305
 8810TIP3    H150625   2.648   0.780   8.414 -1.7893 -2.4308 -1.9716
 8810TIP3    H250626   2.763   0.775   8.316  1.2010 -0.3494  1.2070
 8811TIP3   OH250627   5.255   5.137   1.523  0.1145 -0.3082  0.2177
 8811TIP3    H150628   5.256   5.043   1.536 -1.4588 -0.1455  1.8843
 8811TIP3    H250629   5.275   5.149   1.430 -0.0538 -2.2751 -0.1099
 8812TIP3   OH250630   3.543   2.262   1.813  0.5257  0.1117 -0.2872
 8812TIP3    H150631   3.522   2.226   1.727 -1.0954  1.6218 -0.5843
 8812TIP3    H250632   3.549   2.356   1.799 -0.0497  0.4215  1.2997
 8813TIP3   OH250633   4.906   1.660   0.019 -0.0522  0.1495  0.2293
 8813TIP3    H150634   4.931   1.625   0.105  0.3300 -0.4942 -0.1341
 8813TIP3    H250635   4.946   1.600  -0.044 -0.4880  0.5060 -0.4010
 8814TIP3   OH250636   1.413   2.780   1.909 -0.4077 -0.1313 -0.0816
 8814TIP3    H150637   1.376   2.747   1.991  0.9604 -1.9923 -0.1426
 8814TIP3    H250638   1.470   2.709   1.878 -0.9698  0.4624 -2.7157
 8815TIP3   OH250639   5.606   2.112   7.234 -0.1466  0.0609 -0.1021
 8815TIP3    H150640   5.514   2.086   7.233 -0.1081 -0.1288  0.7929
 8815TIP3    H250641   5.634   2.102   7.143 -1.0671  0.3361 -0.4349
 8816TIP3   OH250642   6.892   0.548   6.890  0.1424  0.0863  0.2530
 8816TIP3    H150643   6.843   0.550   6.972 -2.4232 -0.0133 -1.1793
 8816TIP3    H250644   6.887   0.638   6.857  1.5697  0.2365  0.3814
 8817TIP3   OH250645   4.886   0.400   2.302  0.1287  0.0659  0.1245
 8817TIP3    H150646   4.862   0.372   2.213  1.4633 -0.0171 -0.2244
 8817TIP3    H250647   4.802   0.413   2.346 -0.5440 -0.9635 -0.8081
 8818TIP3   OH250648   4.877   0.945   2.163 -0.2430  0.0611  0.0491
 8818TIP3    H150649   4.847   0.919   2.250 -0.9953 -0.5327 -0.3710
 8818TIP3    H250650   4.843   1.034   2.152 -0.2668  0.0851  0.3052
 8819TIP3   OH250651   1.138   5.528   7.249 -0.2026  0.0397 -0.3956
 8819TIP3    H150652   1.130   5.528   7.344 -0.7376  0.1634 -0.4333
 8819TIP3    H250653   1.049   5.509   7.218 -0.2656  1.0207 -0.8749
 8820TIP3   OH250654   3.226   4.255   6.741  0.4394 -0.4961  0.3116
 8820TIP3    H150655   3.267   4.170   6.728 -0.5845 -1.3392  2.1129
 8820TIP3    H250656   3.162   4.240   6.811 -2.7284  0.7689 -2.0609
 8821TIP3   OH250657   1.124   6.949   2.025 -0.3703 -0.1846  0.6183
 8821TIP3    H150658   1.133   6.987   1.937 -1.5524  1.0555  0.9951
 8821TIP3    H250659   1.214   6.945   2.058 -0.1148  1.6308  0.2639
 8822TIP3   OH250660   3.116   4.902   7.374 -0.3590 -0.4014 -0.4220
 8822TIP3    H150661   3.098   4.850   7.295  0.5228  0.4650 -1.2196
 8822TIP3    H250662   3.086   4.846   7.446 -1.0183 -1.2908 -1.3494
 8823TIP3   OH250663   6.207   5.569   9.198 -0.4001  0.7739 -0.7262
 8823TIP3    H150664   6.206   5.625   9.120 -3.0696  1.0749 -0.5979
 8823TIP3    H250665   6.233   5.483   9.165  2.2960  1.6750 -1.1849
 8824TIP3   OH250666   2.569   6.243   2.405  0.5488  0.2461  0.0184
 8824TIP3    H150667   2.485   6.274   2.370  0.9796  0.5319 -0.7863
 8824TIP3    H250668   2.567   6.148   2.390  0.1200  0.1592  0.5658
 8825TIP3   OH250669   4.850   3.118   9.469  0.8273 -0.0922  0.4677
 8825TIP3    H150670   4.812   3.205   9.484  0.3569 -0.2064 -0.0312
 8825TIP3    H250671   4.927   3.116   9.525  1.4222  1.0429 -0.2752
 8826TIP3   OH250672   3.195   4.501   7.308  0.7005  0.2922  0.1966
 8826TIP3    H150673   3.228   4.556   7.379  2.2922 -0.7075  0.2794
 8826TIP3    H250674   3.239   4.417   7.320 -1.1034 -0.7761 -0.3664
 8827TIP3   OH250675   5.053   6.589   1.012 -0.5187 -0.8462  0.5667
 8827TIP3    H150676   5.111   6.664   1.024 -0.1705 -0.8484 -0.9451
 8827TIP3    H250677   5.090   6.520   1.066  2.6867 -1.8109 -2.5271
 8828TIP3   OH250678   3.817   6.228   8.678 -0.4653  0.3933  0.5375
 8828TIP3    H150679   3.810   6.238   8.583  2.7082 -3.5611 -0.3910
 8828TIP3    H250680   3.895   6.278   8.701 -1.1524  1.2314  1.0846
 8829TIP3   OH250681   6.005   4.317   1.116  0.1640 -0.0212 -0.0239
 8829TIP3    H150682   6.082   4.372   1.131  0.2777 -0.2869  0.3967
 8829TIP3    H250683   6.025   4.270   1.035  1.0020 -0.9956  0.7059
 8830TIP3   OH250684   2.061   2.310   8.291  0.2467  0.2221  0.6370
 8830TIP3    H150685   2.025   2.286   8.377 -0.8134 -0.1286  0.0990
 8830TIP3    H250686   1.986   2.316   8.233  1.0525 -0.8406 -0.5877
 8831TIP3   OH250687   4.498   7.379   1.763  0.6165  0.1555 -0.6543
 8831TIP3    H150688   4.577   7.330   1.785 -0.5931 -1.6068 -0.0673
 8831TIP3    H250689   4.494   7.375   1.667  0.5210 -0.9311 -0.6149
 8832TIP3   OH250690   4.727   0.307   0.365  0.4906 -0.1782 -0.1076
 8832TIP3    H150691   4.752   0.335   0.453 -0.4916 -1.4861  0.6273
 8832TIP3    H250692   4.797   0.248   0.337  0.4628 -0.3005  0.0813
 8833TIP3   OH250693   3.887   1.392   7.941 -0.1237  0.1665 -0.2398
 8833TIP3    H150694   3.959   1.329   7.944 -0.2651  0.0455  1.1029
 8833TIP3    H250695   3.820   1.350   7.887  0.8436  0.3484 -1.6469
 8834TIP3   OH250696   1.350   7.178   1.173 -0.7566  0.2095  0.0130
 8834TIP3    H150697   1.264   7.211   1.149 -1.1853 -1.6115 -1.1762
 8834TIP3    H250698   1.350   7.086   1.144  0.8635 -0.4290  1.7662
 8835TIP3   OH250699   1.528   6.855   7.378  0.4179  0.1053  0.0209
 8835TIP3    H150700   1.562   6.775   7.418  0.0175  0.2586  0.6808
 8835TIP3    H250701   1.574   6.926   7.424  0.2098  0.2768 -0.0343
 8836TIP3   OH250702   7.004   6.984   6.365  0.1048 -0.3364  0.1131
 8836TIP3    H150703   7.012   7.063   6.418  0.8945  0.5967 -1.3323
 8836TIP3    H250704   6.910   6.964   6.367  0.0645 -0.0880  1.5001
 8837TIP3   OH250705   4.737   4.475   6.381 -0.7383  0.1441  0.5707
 8837TIP3    H150706   4.819   4.511   6.348 -1.4008  1.3635  0.1817
 8837TIP3    H250707   4.755   4.452   6.472  0.3821 -0.8341  0.1324
 8838TIP3   OH250708   0.778   1.725   9.260 -0.0747  0.3636 -0.8555
 8838TIP3    H150709   0.776   1.820   9.259 -0.6046  0.4000  0.6095
 8838TIP3    H250710   0.743   1.701   9.346  0.8440 -1.1332 -0.8498
 8839TIP3   OH250711   5.211   4.897   9.446 -0.2077  0.0414  0.1084
 8839TIP3    H150712   5.152   4.895   9.522 -0.3584 -1.8870 -0.0019
 8839TIP3    H250713   5.160   4.857   9.376  0.6417 -0.0794 -0.4500
 8840TIP3   OH250714   5.978   4.710   0.393  0.0641  1.1128  0.1542
 8840TIP3    H150715   5.932   4.767   0.331 -0.2230  0.4268 -0.2773
 8840TIP3    H250716   5.977   4.758   0.475 -3.5228  0.2256  0.8063
 8841TIP3   OH250717   0.336   3.238   8.519  0.2434 -0.0566 -0.0004
 8841TIP3    H150718   0.335   3.282   8.434  1.6049  0.4938  0.2483
 8841TIP3    H250719   0.288   3.298   8.577  2.1744  1.2324  0.3589
 8842TIP3   OH250720   1.373   0.237   8.806  0.1104 -0.4058  0.2011
 8842TIP3    H150721   1.413   0.160   8.765  0.0458 -0.7213  0.7275
 8842TIP3    H250722   1.322   0.202   8.879 -2.2208 -0.1753 -1.2111
 8843TIP3   OH250723   1.235   1.804   0.446  0.6563 -0.1523  0.1562
 8843TIP3    H150724   1.190   1.862   0.507  0.7949 -0.4935  0.5842
 8843TIP3    H250725   1.174   1.732   0.432  0.8688 -0.3711  0.3570
 8844TIP3   OH250726   1.290   1.374   0.377  0.0653 -0.4809 -0.1620
 8844TIP3    H150727   1.330   1.299   0.333 -0.2692 -1.0153  0.4281
 8844TIP3    H250728   1.281   1.346   0.469  0.5134  0.5139  0.1940
 8845TIP3   OH250729   3.017   3.486   8.439 -0.2234 -0.2684 -0.1308
 8845TIP3    H150730   2.965   3.473   8.517  0.2023 -2.0905 -0.0907
 8845TIP3    H250731   2.955   3.479   8.367 -0.0826 -2.7861 -0.1008
 8846TIP3   OH250732   4.352   1.547   8.986 -0.1463  0.0289  0.9145
 8846TIP3    H150733   4.374   1.596   9.066 -0.2721  0.4971  0.6664
 8846TIP3    H250734   4.261   1.521   8.998  0.0734 -0.5841  1.2684
 8847TIP3   OH250735   4.320   1.221   0.897 -0.2815  0.0845  0.2600
 8847TIP3    H150736   4.342   1.128   0.900  1.1757  0.4135  0.8446
 8847TIP3    H250737   4.262   1.235   0.971 -1.5200 -0.5707 -0.5495
 8848TIP3   OH250738   0.101   4.686   8.594  0.1938  0.0721 -0.3395
 8848TIP3    H150739   0.088   4.723   8.506 -0.0187  0.5374 -0.1178
 8848TIP3    H250740   0.047   4.608   8.596 -1.2588  1.0437 -0.0206
 8849TIP3   OH250741   7.294   2.341   1.330 -0.1601 -0.0369 -0.2426
 8849TIP3    H150742   7.292   2.367   1.238 -1.9641 -0.4580 -0.3574
 8849TIP3    H250743   7.322   2.249   1.329  0.7703  0.2341 -0.2706
 8850TIP3   OH250744   2.866   0.796   0.744 -0.4706 -0.2854  0.1692
 8850TIP3    H150745   2.904   0.715   0.778 -0.2960 -1.2580 -2.1496
 8850TIP3    H250746   2.776   0.774   0.722 -0.1277 -0.2061 -1.4640
 8851TIP3   OH250747   0.124   2.807   2.639  0.3997  0.0910 -0.1506
 8851TIP3    H150748   0.061   2.871   2.605  1.1523  1.1457  0.3579
 8851TIP3    H250749   0.117   2.733   2.579  0.0959  0.9944 -1.2931
 8852TIP3   OH250750   6.111   4.389   0.482 -0.0949  0.3217 -0.2123
 8852TIP3    H150751   6.186   4.368   0.426 -0.9440  0.5429 -1.4644
 8852TIP3    H250752   6.049   4.317   0.468 -0.8281  0.9952 -0.5039
 8853TIP3   OH250753   7.354   6.863   2.355  0.3444  0.3915 -0.4748
 8853TIP3    H150754   7.317   6.796   2.414  1.6379 -0.3029 -0.4187
 8853TIP3    H250755   7.438   6.885   2.394 -0.5148  2.9310  0.1313
 8854TIP3   OH250756   5.588   0.467   9.594 -0.2814  0.0862 -0.2517
 8854TIP3    H150757   5.671   0.511   9.574 -0.6052  0.8263 -0.0104
 8854TIP3    H250758   5.540   0.530   9.648  0.2058 -1.4878  2.1803
 8855TIP3   OH250759   0.008   6.358   9.470 -0.4632  0.0494  0.1080
 8855TIP3    H150760   0.019   6.450   9.446  0.6032 -0.2218 -0.4765
 8855TIP3    H250761   0.078   6.341   9.533 -0.2438 -0.5349 -0.2871
 8856TIP3   OH250762   1.091   0.138   8.148 -0.1671  0.0568 -0.9973
 8856TIP3    H150763   1.006   0.160   8.188 -0.2818 -0.8012 -0.7549
 8856TIP3    H250764   1.068   0.090   8.069  0.1003 -0.1316 -0.9597
 8857TIP3   OH250765   4.482   4.791   7.623  0.1707  0.0798  0.8937
 8857TIP3    H150766   4.573   4.817   7.638 -0.3409  1.7982  1.2251
 8857TIP3    H250767   4.467   4.718   7.684  2.2778 -2.6205 -1.5386
 8858TIP3   OH250768   6.702   6.463   1.380  0.6678 -0.2588 -0.0326
 8858TIP3    H150769   6.745   6.507   1.306  2.1699 -0.5841  0.6029
 8858TIP3    H250770   6.614   6.443   1.349  1.1864 -0.1601 -1.6412
 8859TIP3   OH250771   0.762   2.089   8.458  0.1721  0.2530  0.3279
 8859TIP3    H150772   0.791   2.176   8.430 -0.1578  0.5984  1.0397
 8859TIP3    H250773   0.824   2.028   8.416  1.2071  0.9085  0.8629
 8860TIP3   OH250774   3.374   3.954   0.829  0.0045  0.2819 -0.4229
 8860TIP3    H150775   3.394   3.870   0.871 -1.4010 -0.0154 -0.2971
 8860TIP3    H250776   3.448   3.970   0.770 -0.4838 -1.9057 -1.7317
 8861TIP3   OH250777   4.410   3.184   1.495 -0.1411  0.3921  0.1398
 8861TIP3    H150778   4.487   3.170   1.440 -0.7311  0.2203 -0.6545
 8861TIP3    H250779   4.423   3.271   1.532  1.3788 -0.3794  1.5665
 8862TIP3   OH250780   1.003   6.465   8.941 -0.6681  0.1778  0.3280
 8862TIP3    H150781   0.925   6.439   8.989  0.3092 -0.4458  1.6650
 8862TIP3    H250782   1.023   6.390   8.885  0.1655 -0.5784  1.5915
 8863TIP3   OH250783   4.693   5.956   2.794  0.3230 -0.2393  0.1209
 8863TIP3    H150784   4.620   5.955   2.732  0.6768 -0.7159 -0.2909
 8863TIP3    H250785   4.652   5.970   2.879 -0.1472  0.7324 -0.2452
 8864TIP3   OH250786   1.571   4.605   7.759 -0.2207  0.0732 -0.1205
 8864TIP3    H150787   1.624   4.601   7.679  1.0182  0.0399  0.6771
 8864TIP3    H250788   1.491   4.650   7.732 -0.0370 -0.3578 -1.4859
 8865TIP3   OH250789   6.587   1.685   9.119  0.0844 -0.2700  0.5472
 8865TIP3    H150790   6.664   1.726   9.078 -0.3988  0.4888  0.3932
 8865TIP3    H250791   6.534   1.656   9.045 -0.6371  0.8155  0.6262
 8866TIP3   OH250792   7.228   5.039   8.256  0.2798 -0.6550  0.0250
 8866TIP3    H150793   7.253   4.947   8.268 -0.0133 -0.9290 -1.2597
 8866TIP3    H250794   7.132   5.037   8.251  0.2604 -0.2522  0.2091
 8867TIP3   OH250795   0.822   2.298   2.327 -0.5643 -0.2470  0.1666
 8867TIP3    H150796   0.869   2.277   2.246  1.0996 -0.4261  1.1198
 8867TIP3    H250797   0.765   2.371   2.304  1.0971  0.8172 -0.8135
 8868TIP3   OH250798   0.449   2.196   7.483 -0.7828  0.1391  0.7007
 8868TIP3    H150799   0.417   2.138   7.552  1.8645  0.1706  2.0901
 8868TIP3    H250800   0.498   2.139   7.424 -0.4650  0.5812  0.5309
 8869TIP3   OH250801   6.567   0.738   2.169 -0.4576  0.6896  0.8923
 8869TIP3    H150802   6.544   0.651   2.134  2.1888  0.9850 -2.1292
 8869TIP3    H250803   6.483   0.779   2.188 -2.0704 -1.0329 -1.7194
 8870TIP3   OH250804   2.705   4.568   8.485  0.0801 -0.3777  0.3328
 8870TIP3    H150805   2.788   4.571   8.533 -0.7741 -1.6986  1.9988
 8870TIP3    H250806   2.697   4.655   8.445  1.1890  0.5525  2.0249
 8871TIP3   OH250807   4.089   5.734   0.035 -0.1427  0.0966 -0.4648
 8871TIP3    H150808   4.054   5.687  -0.040 -0.8615  0.4271 -0.3475
 8871TIP3    H250809   4.069   5.679   0.110 -0.5913  0.3741 -0.3764
 8872TIP3   OH250810   1.201   4.249   8.437  0.3214 -0.3376 -0.1688
 8872TIP3    H150811   1.237   4.204   8.361  3.0214 -2.4651  2.1444
 8872TIP3    H250812   1.120   4.201   8.457 -0.4955  0.3344 -1.6731
 8873TIP3   OH250813   0.691   1.395   7.250 -0.0820  0.1899 -0.0606
 8873TIP3    H150814   0.702   1.339   7.326  1.4742  0.9330  0.2981
 8873TIP3    H250815   0.770   1.380   7.197 -0.9987 -0.1086 -1.4011
 8874TIP3   OH250816   1.220   3.876   1.491  0.1583 -0.3955 -0.0431
 8874TIP3    H150817   1.249   3.924   1.413  0.8025  0.2849  0.6031
 8874TIP3    H250818   1.133   3.911   1.509  1.1293  1.5497  1.1914
 8875TIP3   OH250819   6.682   5.268   2.808 -0.1287  0.3195  0.2663
 8875TIP3    H150820   6.747   5.198   2.813  0.3113  0.6386 -0.6422
 8875TIP3    H250821   6.601   5.227   2.838  0.4690 -0.1021  1.3531
 8876TIP3   OH250822   1.518   2.488   2.418 -0.9799  0.2700  0.7876
 8876TIP3    H150823   1.442   2.543   2.438 -0.5825  1.1045  0.0750
 8876TIP3    H250824   1.485   2.398   2.425 -1.2670  0.5098  3.4807
 8877TIP3   OH250825   6.680   1.434   0.659  0.0188  0.4690  0.4954
 8877TIP3    H150826   6.751   1.377   0.629 -0.0606  0.3128  0.5991
 8877TIP3    H250827   6.725   1.505   0.705  0.2035  1.2728 -0.8680
 8878TIP3   OH250828   4.637   6.385   1.536 -0.2715  0.1405  0.7772
 8878TIP3    H150829   4.703   6.420   1.477  0.5943  1.0665  2.2166
 8878TIP3    H250830   4.642   6.441   1.614  0.1260 -2.2584  2.6143
 8879TIP3   OH250831   2.056   4.185   1.719  0.6068 -0.0657 -0.1854
 8879TIP3    H150832   2.049   4.141   1.804  0.6640  1.4887  0.6600
 8879TIP3    H250833   2.118   4.131   1.670  0.4071 -1.1182  0.6603
 8880TIP3   OH250834   0.868   6.229   2.251  0.0108 -0.2032  0.3061
 8880TIP3    H150835   0.936   6.295   2.264  0.3539 -0.3119 -0.7848
 8880TIP3    H250836   0.902   6.174   2.180 -1.3952 -0.0012 -0.5672
 8881TIP3   OH250837   3.403   5.214   1.841 -0.1881  0.1885 -0.1321
 8881TIP3    H150838   3.454   5.154   1.787  0.5384  0.1462  0.5784
 8881TIP3    H250839   3.433   5.301   1.816 -0.8075  0.2342 -0.7329
 8882TIP3   OH250840   2.936   4.264   8.175  0.2690  0.2667 -0.3208
 8882TIP3    H150841   2.912   4.318   8.099 -1.1667 -1.4818 -1.1764
 8882TIP3    H250842   3.013   4.216   8.146  0.1198  0.0938 -0.4329
 8883TIP3   OH250843   0.681   1.341   0.280  0.1129  0.0493  0.0410
 8883TIP3    H150844   0.633   1.261   0.260  2.0068 -0.7472 -1.6295
 8883TIP3    H250845   0.624   1.412   0.249 -1.0215 -0.7130  0.3455
 8884TIP3   OH250846   0.142   2.734   9.142  0.0309 -0.3018  0.2338
 8884TIP3    H150847   0.216   2.738   9.082  0.8811 -1.6014  1.1327
 8884TIP3    H250848   0.092   2.658   9.114 -0.7699  0.3620 -0.1493
 8885TIP3   OH250849   6.591   3.113   0.874  0.4484  0.1718  0.1648
 8885TIP3    H150850   6.642   3.041   0.910 -1.1007 -1.0325  0.0810
 8885TIP3    H250851   6.598   3.184   0.938 -0.5351 -1.1827  1.8471
 8886TIP3   OH250852   0.613   6.880   1.582  0.9750 -0.1802 -0.2358
 8886TIP3    H150853   0.682   6.946   1.590  0.3448  0.7763 -2.2954
 8886TIP3    H250854   0.547   6.919   1.525  0.1301 -2.2322 -0.7673
 8887TIP3   OH250855   0.230   3.723   8.461 -0.0137  0.0941 -0.1528
 8887TIP3    H150856   0.177   3.786   8.509 -1.1617 -1.1068  0.2179
 8887TIP3    H250857   0.320   3.755   8.470 -0.3236  0.5074  1.8452
 8888TIP3   OH250858   1.846   2.035   6.615  0.1122 -0.3361  0.2066
 8888TIP3    H150859   1.869   2.094   6.686 -0.8635  0.9655 -0.5075
 8888TIP3    H250860   1.927   2.024   6.565  0.6072 -0.6204  1.0620
 8889TIP3   OH250861   6.662   5.818   2.167 -0.0330  0.4332 -0.2411
 8889TIP3    H150862   6.649   5.896   2.222  0.2919 -0.6212  1.4041
 8889TIP3    H250863   6.655   5.850   2.077 -2.1044  1.9777  0.4072
 8890TIP3   OH250864   5.245   5.314   8.177  0.2223  0.8158  0.2426
 8890TIP3    H150865   5.320   5.359   8.217  0.6946  1.9803 -1.8112
 8890TIP3    H250866   5.206   5.380   8.120  0.1958 -1.0118 -1.9672
 8891TIP3   OH250867   6.150   2.108   8.388  0.0891  0.4085 -0.6029
 8891TIP3    H150868   6.236   2.132   8.422  1.0416 -0.9566 -1.9248
 8891TIP3    H250869   6.142   2.156   8.305  0.1049 -0.3895 -1.0723
 8892TIP3   OH250870   2.219   7.225   9.234  0.2918 -0.2192 -0.1574
 8892TIP3    H150871   2.235   7.289   9.302 -0.4764 -0.0869 -0.0902
 8892TIP3    H250872   2.152   7.265   9.178  0.7706 -0.3991 -0.8857
 8893TIP3   OH250873   1.559   0.458   2.434 -0.3259 -0.3922 -0.1765
 8893TIP3    H150874   1.633   0.442   2.375 -0.1596 -0.5353  0.0706
 8893TIP3    H250875   1.595   0.509   2.506 -0.4737 -0.4321 -0.0727
 8894TIP3   OH250876   2.791   5.291   8.369  0.2260 -0.1583  0.0588
 8894TIP3    H150877   2.853   5.225   8.398 -0.2309 -0.7090 -0.2102
 8894TIP3    H250878   2.735   5.246   8.306 -0.7220  0.2137  0.6189
 8895TIP3   OH250879   1.093   4.937   7.262  0.0127  0.2526  0.3006
 8895TIP3    H150880   1.006   4.956   7.227  0.8776 -1.2267 -2.9674
 8895TIP3    H250881   1.144   5.017   7.246  0.0996 -0.0257 -0.8557
 8896TIP3   OH250882   2.129   0.920   9.310  0.4565 -0.1017 -0.3463
 8896TIP3    H150883   2.054   0.920   9.369  1.5823  0.1887  1.1343
 8896TIP3    H250884   2.119   1.000   9.259 -1.4053 -1.1511 -1.7988
 8897TIP3   OH250885   7.046   1.524   1.900 -0.4083 -0.0763 -0.2427
 8897TIP3    H150886   7.058   1.580   1.977  0.4773 -0.8318  0.1935
 8897TIP3    H250887   6.957   1.543   1.871  0.1188  2.1865 -0.6268
 8898TIP3   OH250888   1.863   6.398   1.877  0.1691  0.6356  0.2961
 8898TIP3    H150889   1.958   6.408   1.871  0.1972  0.8526  0.9804
 8898TIP3    H250890   1.832   6.482   1.911 -0.3525  0.8267 -0.6078
 8899TIP3   OH250891   3.245   7.403   1.123  0.3416  0.9223 -0.1558
 8899TIP3    H150892   3.315   7.352   1.083 -0.3812  0.2502 -0.6078
 8899TIP3    H250893   3.230   7.475   1.062  1.2494  1.5953  0.3986
 8900TIP3   OH250894   6.976   1.474   0.274 -0.1734 -0.0392 -0.4604
 8900TIP3    H150895   7.008   1.387   0.250  1.5883  0.3926  0.2324
 8900TIP3    H250896   6.940   1.509   0.193  1.6675 -0.3312 -1.4594
 8901TIP3   OH250897   4.538   6.036   7.660  0.0226 -0.2004 -0.5402
 8901TIP3    H150898   4.564   6.108   7.717 -0.1117 -1.8569  1.7591
 8901TIP3    H250899   4.541   6.073   7.572  2.6426  1.8241  0.2708
 8902TIP3   OH250900   3.910   0.086   8.522 -0.2999 -0.6066 -0.1522
 8902TIP3    H150901   3.910   0.000   8.564 -0.8594  0.1289  1.4394
 8902TIP3    H250902   3.923   0.148   8.594 -0.7905  0.6878 -1.1383
 8903TIP3   OH250903   5.307   0.373   2.507  0.1653 -0.0608 -0.4846
 8903TIP3    H150904   5.371   0.304   2.520  0.0942 -0.1949 -0.8522
 8903TIP3    H250905   5.290   0.407   2.595 -4.2233 -4.4213  0.8295
 8904TIP3   OH250906   3.789   7.279   0.498  0.4135 -0.7797  0.0671
 8904TIP3    H150907   3.697   7.305   0.503  0.4911 -0.4949  0.0092
 8904TIP3    H250908   3.795   7.228   0.417  0.2311 -1.1091  0.2573
 8905TIP3   OH250909   4.575   1.792   0.809  0.1429  0.0599  0.3096
 8905TIP3    H150910   4.493   1.766   0.850  0.4200 -0.5986  0.4527
 8905TIP3    H250911   4.599   1.873   0.855 -1.9549  2.0137 -1.7875
 8906TIP3   OH250912   0.290   5.831   6.488  0.2771  0.0791  0.0189
 8906TIP3    H150913   0.200   5.798   6.481  0.5542 -0.7839  0.3835
 8906TIP3    H250914   0.285   5.901   6.553 -0.4479  1.2673 -1.2603
 8907TIP3   OH250915   2.595   3.478   7.943 -0.2995  0.2371 -0.2706
 8907TIP3    H150916   2.603   3.487   7.848 -0.6327 -1.7671 -0.5297
 8907TIP3    H250917   2.586   3.568   7.975  0.6960  1.0088 -2.0327
 8908TIP3   OH250918   0.855   0.618   0.327 -0.4024 -0.3601  0.0409
 8908TIP3    H150919   0.901   0.700   0.342 -2.3092  0.7446  0.1692
 8908TIP3    H250920   0.782   0.618   0.389 -0.4250 -2.1809  0.0881
 8909TIP3   OH250921   2.778   2.988   8.221 -0.2322  0.2466 -0.0151
 8909TIP3    H150922   2.791   2.967   8.314 -2.7706  0.3689  0.4270
 8909TIP3    H250923   2.714   3.059   8.220 -0.6633 -0.1022 -1.8831
 8910TIP3   OH250924   4.053   7.374   7.510 -0.2086 -0.3891  0.0292
 8910TIP3    H150925   4.135   7.330   7.489  0.9874  2.1816 -1.1780
 8910TIP3    H250926   4.079   7.452   7.560 -2.1109 -0.4116  1.2006
 8911TIP3   OH250927   3.534   2.376   8.101 -0.5250  0.2026  0.2661
 8911TIP3    H150928   3.581   2.454   8.072  1.7749 -0.9539  0.6597
 8911TIP3    H250929   3.465   2.364   8.036 -1.5408  3.0223  0.6864
 8912TIP3   OH250930   5.035   1.310   8.320 -0.0994  0.2990 -0.5506
 8912TIP3    H150931   4.942   1.290   8.320  0.2065 -1.3024 -0.6819
 8912TIP3    H250932   5.073   1.245   8.379  0.8429  1.4246  0.1176
 8913TIP3   OH250933   4.924   1.444   7.445  0.3962  0.0700 -0.2177
 8913TIP3    H150934   4.891   1.419   7.532 -0.1220 -0.7221 -0.6332
 8913TIP3    H250935   4.884   1.529   7.427 -0.2385 -0.1995 -0.0841
 8914TIP3   OH250936   2.762   3.162   7.934 -0.5885 -0.0064  0.2212
 8914TIP3    H150937   2.773   3.079   7.980 -1.8600 -0.7666 -0.7807
 8914TIP3    H250938   2.780   3.229   8.000 -0.8293 -1.0633  1.3877
 8915TIP3   OH250939   6.538   0.956   6.782  0.0077 -0.6275 -0.7971
 8915TIP3    H150940   6.558   1.046   6.808 -0.8518 -0.1196 -1.8178
 8915TIP3    H250941   6.471   0.927   6.843 -2.9605  1.0093 -3.0448
 8916TIP3   OH250942   3.807   0.610   8.166  0.9583 -0.2168  0.0764
 8916TIP3    H150943   3.817   0.637   8.258 -3.0302  0.5849  0.4563
 8916TIP3    H250944   3.826   0.690   8.116  3.1790 -0.6645  0.0991
 8917TIP3   OH250945   2.566   6.170   9.001  0.0058 -0.2282  0.6914
 8917TIP3    H150946   2.517   6.191   8.922 -1.2622  0.5552  1.6561
 8917TIP3    H250947   2.610   6.251   9.025 -0.2487 -0.2349  1.2093
 8918TIP3   OH250948   3.470   2.439   2.520  0.2418  0.4332 -0.7230
 8918TIP3    H150949   3.439   2.354   2.552 -0.8271  1.1849  0.3346
 8918TIP3    H250950   3.562   2.424   2.497  0.2733 -0.8398  0.1086
 8919TIP3   OH250951   3.081   3.809   9.220 -0.0305  0.1791  0.2557
 8919TIP3    H150952   3.058   3.879   9.281  0.4146 -0.7144  1.4949
 8919TIP3    H250953   3.021   3.821   9.146 -0.6582  1.2266  0.9115
 8920TIP3   OH250954   6.930   2.311   2.291 -0.4610 -0.0490 -0.3675
 8920TIP3    H150955   6.852   2.296   2.344 -0.3002 -1.3068 -0.4604
 8920TIP3    H250956   6.967   2.393   2.325  0.3124 -1.3884  2.3091
 8921TIP3   OH250957   4.285   4.206   9.183  0.1233  0.1586  0.0472
 8921TIP3    H150958   4.356   4.163   9.230  0.9231  2.0658  0.6950
 8921TIP3    H250959   4.303   4.189   9.090  0.5452 -0.6558  0.2724
 8922TIP3   OH250960   0.843   5.158   2.335 -0.0725 -0.6295 -0.0275
 8922TIP3    H150961   0.903   5.218   2.291 -0.3782 -0.4937 -0.2534
 8922TIP3    H250962   0.789   5.122   2.266  1.0630 -2.2779 -0.1167
 8923TIP3   OH250963   1.834   6.781   8.992  0.0179 -0.4266  0.3472
 8923TIP3    H150964   1.803   6.814   9.076 -1.2375  0.2766 -0.3540
 8923TIP3    H250965   1.900   6.844   8.964 -1.4936  0.8773 -0.4174
 8924TIP3   OH250966   4.535   4.002   0.917  0.2038  0.5552  0.2363
 8924TIP3    H150967   4.470   4.058   0.875  0.4916 -0.0620 -1.0976
 8924TIP3    H250968   4.599   3.984   0.848  2.0619  1.5102  1.6242
 8925TIP3   OH250969   7.049   5.473   1.573 -0.2498  0.0116  0.0449
 8925TIP3    H150970   6.986   5.489   1.503  1.2155 -0.7270 -1.4964
 8925TIP3    H250971   7.027   5.385   1.605 -0.4239  0.0354 -0.0080
 8926TIP3   OH250972   5.613   5.157   1.416 -0.1375  0.1854  0.1234
 8926TIP3    H150973   5.563   5.077   1.436 -0.1648  0.3036  0.5300
 8926TIP3    H250974   5.691   5.126   1.371 -1.2182  0.0875 -1.7726
 8927TIP3   OH250975   7.402   2.471   7.945  0.3854 -0.4953  0.1815
 8927TIP3    H150976   7.416   2.462   7.850  2.5580 -1.2234  0.5085
 8927TIP3    H250977   7.365   2.559   7.955 -0.3115 -0.5793 -1.3691
 8928TIP3   OH250978   0.607   0.722   8.688  0.4689  0.3116  0.1807
 8928TIP3    H150979   0.602   0.816   8.708 -0.2959  0.0943  1.0949
 8928TIP3    H250980   0.631   0.681   8.770  3.0747 -0.1447 -0.7128
 8929TIP3   OH250981   3.871   4.996   0.524  0.4600  0.2953 -0.2552
 8929TIP3    H150982   3.966   5.000   0.515  0.4403  1.9194 -0.0836
 8929TIP3    H250983   3.840   4.955   0.443  1.1467  2.2466 -1.5756
 8930TIP3   OH250984   2.037   2.037   1.955  0.0395  0.1804  0.1273
 8930TIP3    H150985   1.972   2.024   1.885  0.3326 -0.7031  0.0135
 8930TIP3    H250986   2.098   1.964   1.945  0.7845  0.7403  0.5356
 8931TIP3   OH250987   4.895   0.619   8.476 -0.1207 -0.4576 -0.6307
 8931TIP3    H150988   4.980   0.576   8.487 -0.6540 -2.0928 -2.3161
 8931TIP3    H250989   4.859   0.624   8.564  2.2160  1.5385  0.3649
 8932TIP3   OH250990   6.908   2.449   1.604  0.3763 -0.0124  0.3910
 8932TIP3    H150991   6.846   2.487   1.541 -0.2783 -1.9346 -0.1874
 8932TIP3    H250992   6.980   2.512   1.608 -0.6311  1.2617 -0.5169
 8933TIP3   OH250993   3.854   4.485   0.572  0.1698  0.3087  0.3364
 8933TIP3    H150994   3.862   4.528   0.487 -1.5419 -0.3548 -0.2069
 8933TIP3    H250995   3.774   4.522   0.610 -0.6014 -1.3618  0.4354
 8934TIP3   OH250996   5.551   1.783   1.230  0.0111  0.4305 -0.3419
 8934TIP3    H150997   5.631   1.737   1.257  0.7102  1.5708 -0.4019
 8934TIP3    H250998   5.483   1.715   1.229  1.5003 -1.1814 -2.9416
 8935TIP3   OH250999   6.671   0.217   1.614  0.2914  0.0055  0.4175
 8935TIP3    H151000   6.656   0.309   1.635 -1.0778 -0.1682  0.2858
 8935TIP3    H251001   6.749   0.194   1.665  0.5589  1.1792  0.5816
 8936TIP3   OH251002   4.090   0.584   9.345 -0.1066 -0.0729 -0.1366
 8936TIP3    H151003   4.183   0.563   9.358  0.2059  2.2695  2.0839
 8936TIP3    H251004   4.091   0.653   9.278  0.0918  1.9389  1.8408
 8937TIP3   OH251005   3.712   5.766   8.902 -0.6905 -0.0750  0.3437
 8937TIP3    H151006   3.753   5.849   8.878  0.2808 -0.7640 -0.4083
 8937TIP3    H251007   3.627   5.768   8.857 -0.1372 -0.0435 -0.7186
 8938TIP3   OH251008   7.400   2.830   0.183 -0.0490  0.1588 -0.1189
 8938TIP3    H151009   7.480   2.801   0.227 -0.8064  0.3878  1.4810
 8938TIP3    H251010   7.425   2.911   0.139  0.3639  0.8316  1.2926
 8939TIP3   OH251011   7.285   1.362   1.853 -0.3855 -0.5578 -0.3039
 8939TIP3    H151012   7.291   1.284   1.908 -1.9073 -1.0247 -0.7347
 8939TIP3    H251013   7.203   1.404   1.880  0.5854  1.1261  0.1814
 8940TIP3   OH251014   2.498   0.243   1.240  0.1830  0.1064  0.0311
 8940TIP3    H151015   2.449   0.162   1.251 -0.2284  0.5140  1.4104
 8940TIP3    H251016   2.430   0.310   1.228  0.4821  0.3789 -0.1460
 8941TIP3   OH251017   7.086   4.169   2.683  0.0134  0.2324  0.3653
 8941TIP3    H151018   7.106   4.256   2.719  2.6315 -0.7670  1.5744
 8941TIP3    H251019   6.995   4.152   2.710 -0.4748  2.4363  0.3282
 8942TIP3   OH251020   2.207   5.822   6.465  0.2935 -0.0392 -0.6102
 8942TIP3    H151021   2.142   5.889   6.445  0.2467 -0.2975 -1.3478
 8942TIP3    H251022   2.173   5.778   6.543 -0.4972 -0.2774 -1.0786
 8943TIP3   OH251023   4.905   6.605   8.262 -0.1800 -0.2791 -0.0762
 8943TIP3    H151024   4.898   6.543   8.335  0.9306  1.3470  1.4917
 8943TIP3    H251025   4.944   6.554   8.191 -1.0551 -1.8391  0.5007
 8944TIP3   OH251026   1.808   2.717   0.088  0.9604  0.4569 -0.3742
 8944TIP3    H151027   1.818   2.772   0.166 -1.6017 -0.8405  1.0108
 8944TIP3    H251028   1.765   2.774   0.025  1.4369  1.0106 -0.2109
 8945TIP3   OH251029   2.762   5.717   1.686  0.1504 -0.4739  0.3380
 8945TIP3    H151030   2.710   5.736   1.764  0.9057  0.5552  0.6204
 8945TIP3    H251031   2.707   5.660   1.633 -0.0405 -1.9090  2.0157
 8946TIP3   OH251032   0.041   3.802   1.821  0.2540 -0.2581 -0.1308
 8946TIP3    H151033  -0.037   3.835   1.776 -1.0949 -1.3799  1.2523
 8946TIP3    H251034   0.055   3.715   1.784 -0.9272 -1.2300  1.5570
 8947TIP3   OH251035   5.284   3.226   1.543  0.2810 -0.3077 -0.0597
 8947TIP3    H151036   5.379   3.239   1.549  0.1395  0.7488  0.2180
 8947TIP3    H251037   5.256   3.290   1.478 -0.3362 -0.0617  0.4380
 8948TIP3   OH251038   1.900   6.459   6.704 -0.0416 -0.3950 -0.3850
 8948TIP3    H151039   1.860   6.457   6.791  1.0517 -1.7763  0.1331
 8948TIP3    H251040   1.826   6.465   6.643 -0.9032 -0.7583  0.5998
 8949TIP3   OH251041   6.118   5.903   1.948  0.1830  0.5353  0.0916
 8949TIP3    H151042   6.035   5.887   1.903  0.8639 -4.1581  0.0082
 8949TIP3    H251043   6.185   5.872   1.886  1.7454  1.1581  1.4052
 8950TIP3   OH251044   4.768   6.478   0.283 -0.1969  0.3029 -0.1233
 8950TIP3    H151045   4.674   6.486   0.266 -0.0587  0.5227 -0.8441
 8950TIP3    H251046   4.801   6.423   0.212  0.0850 -0.5019  0.6188
 8951TIP3   OH251047   6.708   6.786   7.185  0.0587 -0.0524  0.1147
 8951TIP3    H151048   6.748   6.873   7.192 -0.2365 -0.0058  1.6581
 8951TIP3    H251049   6.782   6.725   7.185  0.2125  0.0682  2.2676
 8952TIP3   OH251050   6.010   3.084   0.234  0.4989 -0.4584 -0.4321
 8952TIP3    H151051   5.954   3.156   0.260  1.7472  0.2518  0.4244
 8952TIP3    H251052   6.060   3.117   0.159 -0.0173 -0.9849 -1.0189
 8953TIP3   OH251053   5.165   3.702   0.041  0.3903 -0.3129 -0.1987
 8953TIP3    H151054   5.090   3.729   0.093  0.1189 -0.8636 -0.2897
 8953TIP3    H251055   5.239   3.750   0.078  0.1081 -0.2801  0.3355
 8954TIP3   OH251056   5.266   2.276   9.467 -0.2345  0.4172  0.1188
 8954TIP3    H151057   5.336   2.308   9.524 -0.5810 -0.6085  1.1445
 8954TIP3    H251058   5.291   2.306   9.380  2.2087 -1.0269  0.2310
 8955TIP3   OH251059   4.257   2.116   9.351  0.2736  0.3117  0.1694
 8955TIP3    H151060   4.190   2.077   9.295  1.1192 -0.9408  0.0026
 8955TIP3    H251061   4.327   2.140   9.291  1.0526 -0.7441  0.6373
 8956TIP3   OH251062   0.765   6.060   1.209 -0.1237  0.2692 -0.2540
 8956TIP3    H151063   0.832   6.032   1.270 -1.0704 -0.5897  0.4139
 8956TIP3    H251064   0.745   6.150   1.235  0.3333  0.3245 -0.0830
 8957TIP3   OH251065   4.262   6.062   7.708  0.5417  0.3711 -0.1319
 8957TIP3    H151066   4.239   6.045   7.616 -1.0020  0.4900  0.2029
 8957TIP3    H251067   4.358   6.055   7.710  0.5526 -0.4435 -1.5827
 8958TIP3   OH251068   0.264   1.521   7.564  0.1495  0.3834 -0.0233
 8958TIP3    H151069   0.330   1.588   7.544 -0.3176  0.9840  0.4082
 8958TIP3    H251070   0.249   1.477   7.481  0.2810  0.9780 -0.3696
 8959TIP3   OH251071   0.249   1.131   0.115 -0.1505  0.3966 -0.4120
 8959TIP3    H151072   0.226   1.222   0.095 -2.2204 -0.4062 -1.8751
 8959TIP3    H251073   0.206   1.114   0.199 -1.3304  0.2326 -1.0322
 8960TIP3   OH251074   7.408   6.531   2.197  0.0102  0.3148  0.1613
 8960TIP3    H151075   7.384   6.443   2.227 -0.5225  0.4227  0.0582
 8960TIP3    H251076   7.392   6.528   2.102  2.1922 -0.1987 -0.2464
 8961TIP3   OH251077   5.970   4.355   8.298  0.2232 -0.3533  0.2492
 8961TIP3    H151078   5.934   4.422   8.239  0.3886 -1.0249 -0.6422
 8961TIP3    H251079   5.942   4.272   8.260  1.9098 -0.8631  0.0394
 8962TIP3   OH251080   1.278   0.649   8.918 -0.5194 -0.2800 -0.1901
 8962TIP3    H151081   1.214   0.669   8.986 -0.0067 -3.0195  1.2635
 8962TIP3    H251082   1.360   0.688   8.950 -0.9901  1.4801 -1.0484
 8963TIP3   OH251083   3.864   0.147   1.078  0.0442  0.1245 -0.2547
 8963TIP3    H151084   3.825   0.114   0.996  1.7717  1.0551 -1.5208
 8963TIP3    H251085   3.937   0.088   1.095  0.3732  0.5963 -0.0147
 8964TIP3   OH251086   6.185   1.898   2.515 -0.0332  0.0562  0.3789
 8964TIP3    H151087   6.122   1.941   2.458 -0.1892  0.4781  0.8605
 8964TIP3    H251088   6.170   1.937   2.602  0.4459 -0.3050  0.6317
 8965TIP3   OH251089   1.760   3.541   1.081  0.5017  0.4625 -0.3318
 8965TIP3    H151090   1.691   3.496   1.129  1.0389  1.4554  1.4584
 8965TIP3    H251091   1.838   3.530   1.135  0.9645  2.2456 -0.5809
 8966TIP3   OH251092   4.946   1.307   0.214  0.0343  0.7378 -0.5530
 8966TIP3    H151093   4.978   1.396   0.224 -0.1105  0.7299  0.0089
 8966TIP3    H251094   4.860   1.317   0.173  0.4550  0.7958 -1.4357
 8967TIP3   OH251095   2.044   6.070   7.024 -0.0234 -0.4991 -0.0674
 8967TIP3    H151096   2.021   5.981   7.051 -1.3492 -0.0602  0.3310
 8967TIP3    H251097   1.993   6.086   6.945  1.5292 -0.6758 -1.1640
 8968TIP3   OH251098   1.006   6.746   8.896 -0.3702 -0.0575 -0.2530
 8968TIP3    H151099   1.025   6.770   8.806 -0.2427  0.7720 -0.0109
 8968TIP3    H251100   1.012   6.650   8.897 -0.0566 -0.0513 -1.0473
 8969TIP3   OH251101   0.492   4.786   8.751 -0.5570 -0.2933 -0.2426
 8969TIP3    H151102   0.463   4.876   8.761 -0.4102 -0.3144  0.3963
 8969TIP3    H251103   0.445   4.754   8.674 -0.1538  0.5059 -0.8258
 8970TIP3   OH251104   2.927   6.217   8.434 -0.0743  0.2359 -0.2719
 8970TIP3    H151105   3.021   6.200   8.434 -0.2191 -0.6014 -0.1170
 8970TIP3    H251106   2.909   6.254   8.521  0.1712  0.7915 -0.4502
 8971TIP3   OH251107   3.220   4.875   7.756  0.1921 -0.4172 -0.5973
 8971TIP3    H151108   3.167   4.804   7.792  1.9383 -1.8951 -0.8171
 8971TIP3    H251109   3.300   4.875   7.809  0.4453  1.0900 -0.9165
 8972TIP3   OH251110   6.847   0.169   1.366 -0.4759  0.7043 -0.3495
 8972TIP3    H151111   6.857   0.074   1.373 -0.4117  0.7668  0.5587
 8972TIP3    H251112   6.770   0.189   1.421  0.7195  1.3907  1.1421
 8973TIP3   OH251113   4.853   0.585   9.153 -0.3666 -0.1584 -0.3372
 8973TIP3    H151114   4.943   0.552   9.158 -0.3979 -0.1087  1.6006
 8973TIP3    H251115   4.863   0.681   9.153 -0.4003 -0.1432  0.4535
 8974TIP3   OH251116   0.008   5.458   6.724 -0.0795  0.0923  0.1609
 8974TIP3    H151117  -0.080   5.457   6.761  0.5978 -0.2406  1.8602
 8974TIP3    H251118   0.013   5.378   6.673 -0.9241  0.3676 -0.3689
 8975TIP3   OH251119   0.692   6.402   9.060  0.1659  0.0371 -0.0474
 8975TIP3    H151120   0.764   6.398   9.124 -1.3319 -0.5999  1.6785
 8975TIP3    H251121   0.645   6.320   9.072 -0.8644  0.4396 -1.1620
 8976TIP3   OH251122   1.855   7.294   7.432 -0.1702 -0.2157  0.5156
 8976TIP3    H151123   1.944   7.321   7.453  0.1327  0.7252 -1.7007
 8976TIP3    H251124   1.805   7.376   7.430 -0.8667 -0.6287  0.7450
 8977TIP3   OH251125   1.387   0.069   0.228 -0.9635 -0.6478 -0.1994
 8977TIP3    H151126   1.327   0.121   0.282  0.8152  0.5888  0.6736
 8977TIP3    H251127   1.404  -0.009   0.281 -1.8800 -1.0895 -0.5252
 8978TIP3   OH251128   3.594   1.476   1.352  0.4258 -0.4913 -0.0185
 8978TIP3    H151129   3.602   1.438   1.264 -0.9051 -0.3862 -0.2056
 8978TIP3    H251130   3.501   1.470   1.372  0.9107 -2.0892  2.1080
 8979TIP3   OH251131   5.457   3.619   8.949  0.0216  0.2307  0.2371
 8979TIP3    H151132   5.481   3.678   9.021  1.0950 -0.1803  0.2319
 8979TIP3    H251133   5.369   3.646   8.925 -0.7668 -0.2313  2.3397
 8980TIP3   OH251134   0.330   0.006   1.218  0.4106  0.1007  0.2654
 8980TIP3    H151135   0.360   0.013   1.309  0.0201  0.7148  0.3568
 8980TIP3    H251136   0.358   0.088   1.177  0.2122  0.0116 -0.0521
 8981TIP3   OH251137   2.972   5.059   1.276 -0.5051 -0.3424 -0.2479
 8981TIP3    H151138   2.879   5.081   1.267 -0.0817  1.3095 -0.9087
 8981TIP3    H251139   2.986   4.990   1.211 -0.7874  1.0580 -1.8795
 8982TIP3   OH251140   2.451   6.000   2.075  0.1305  0.2779 -0.8140
 8982TIP3    H151141   2.494   5.980   2.158  1.4242  0.7706 -1.3408
 8982TIP3    H251142   2.415   6.088   2.087 -1.3246 -0.3850 -0.1544
 8983TIP3   OH251143   5.953   5.659   0.487 -1.0788  0.0653  0.6680
 8983TIP3    H151144   5.893   5.664   0.412  0.1543  0.6140 -0.3206
 8983TIP3    H251145   5.952   5.747   0.524  1.2645  0.9746 -1.1522
 8984TIP3   OH251146   5.984   1.312   0.846 -0.7392 -0.2082  0.0179
 8984TIP3    H151147   5.999   1.248   0.776 -0.5497 -0.5019  0.3240
 8984TIP3    H251148   5.978   1.260   0.925 -1.1355  0.1094  0.2014
 8985TIP3   OH251149   7.266   2.117   0.920 -0.1218  0.5813  0.1477
 8985TIP3    H151150   7.225   2.195   0.883  2.7504  2.5226  0.7156
 8985TIP3    H251151   7.220   2.101   1.002 -2.3293  0.1276 -1.1181
 8986TIP3   OH251152   6.984   4.817   2.025  0.6063  0.3819 -0.1526
 8986TIP3    H151153   6.932   4.896   2.041  1.0886  0.7037 -0.1517
 8986TIP3    H251154   7.022   4.830   1.938 -1.5526 -1.1056 -1.4216
 8987TIP3   OH251155   0.404   1.225   6.809  0.0767 -0.1366  0.4369
 8987TIP3    H151156   0.461   1.267   6.874 -0.0586  0.2258  0.3202
 8987TIP3    H251157   0.373   1.296   6.754 -1.9028 -0.0541  1.5551
 8988TIP3   OH251158   0.405   1.167   7.627  0.0501 -0.0286  0.1602
 8988TIP3    H151159   0.404   1.200   7.537 -0.1189 -0.6485 -0.0699
 8988TIP3    H251160   0.483   1.112   7.632  0.5812  0.7505  0.6739
 8989TIP3   OH251161   3.034   2.675   0.708 -0.5342  0.1465  0.2215
 8989TIP3    H151162   2.947   2.655   0.673 -0.4825  0.4267 -0.0761
 8989TIP3    H251163   3.093   2.623   0.653 -0.7020 -2.8671  2.6146
 8990TIP3   OH251164   5.343   2.016   7.248  0.4413  0.0017 -0.4275
 8990TIP3    H151165   5.291   1.939   7.224  0.2505  0.9817 -3.6030
 8990TIP3    H251166   5.294   2.090   7.211  0.1843  1.8547  3.2061
 8991TIP3   OH251167   3.861   3.313   1.876  0.0736 -0.4203  0.4793
 8991TIP3    H151168   3.890   3.240   1.930  1.8811  0.4108  0.6946
 8991TIP3    H251169   3.918   3.309   1.799  1.4949  1.8163  1.3344
 8992TIP3   OH251170   0.492   4.940   6.900  0.1188 -0.0613  0.2669
 8992TIP3    H151171   0.407   4.916   6.863  1.7941 -1.1034 -3.3439
 8992TIP3    H251172   0.545   4.861   6.894  1.3132  0.4015  2.9338
 8993TIP3   OH251173   7.354   5.644   7.789 -0.3726 -0.2921  0.0155
 8993TIP3    H151174   7.298   5.579   7.745  0.4496 -0.1351 -1.3336
 8993TIP3    H251175   7.434   5.596   7.810 -0.2310 -0.0156  0.1014
 8994TIP3   OH251176   5.785   5.097   7.557 -0.2793  0.6775 -0.0886
 8994TIP3    H151177   5.761   5.122   7.646 -2.8522  1.0248 -0.8006
 8994TIP3    H251178   5.803   5.180   7.513 -1.4286  0.7484 -0.4784
 8995TIP3   OH251179   3.841   6.920   7.810  0.6883 -0.3797 -0.5484
 8995TIP3    H151180   3.900   6.972   7.866  1.5047 -2.4220  0.6212
 8995TIP3    H251181   3.768   6.897   7.868 -0.3853  0.6347 -1.4709
 8996TIP3   OH251182   4.225   3.402   2.243  0.4919  0.0475  0.4655
 8996TIP3    H151183   4.315   3.372   2.250 -0.0297 -1.6746  0.2735
 8996TIP3    H251184   4.224   3.461   2.167  1.1793 -1.0254 -0.3951
 8997TIP3   OH251185   5.759   5.962   2.052 -0.4202 -0.4415 -0.3125
 8997TIP3    H151186   5.798   5.951   2.138  1.0979 -0.3742 -0.9603
 8997TIP3    H251187   5.800   6.041   2.017 -2.1024  0.3889 -0.5511
 8998TIP3   OH251188   1.257   1.745   7.430 -0.6642  0.2187  0.0495
 8998TIP3    H151189   1.319   1.682   7.393 -0.8194  0.1411 -0.0775
 8998TIP3    H251190   1.295   1.831   7.410  1.2628  0.2136  3.0117
 8999TIP3   OH251191   7.212   5.788   7.002  0.1096 -0.0444 -0.1515
 8999TIP3    H151192   7.133   5.842   7.000 -0.5191 -0.9376 -0.4529
 8999TIP3    H251193   7.197   5.727   7.074 -0.0832 -1.0757 -1.0371
 9000TIP3   OH251194   4.599   0.486   2.037 -0.5028  0.5040  0.1547
 9000TIP3    H151195   4.631   0.561   2.087  1.6298 -0.2147 -0.0676
 9000TIP3    H251196   4.528   0.451   2.091 -0.4473  1.7008  1.0541
 9001TIP3   OH251197   7.313   4.655   0.515 -0.0543  0.1669 -0.1143
 9001TIP3    H151198   7.245   4.596   0.549 -0.4478  0.1002 -0.9797
 9001TIP3    H251199   7.283   4.742   0.541 -0.2507  0.1019 -0.1179
 9002TIP3   OH251200   5.413   6.712   0.306  0.2768  0.0160  0.2932
 9002TIP3    H151201   5.364   6.791   0.284  0.0461 -0.6725 -1.9589
 9002TIP3    H251202   5.505   6.735   0.287  0.2636 -0.1052  0.0780
 9003TIP3   OH251203   7.071   5.497   8.546  0.2446 -0.0249  0.1429
 9003TIP3    H151204   7.086   5.409   8.582  0.9681 -0.4843 -1.2173
 9003TIP3    H251205   7.030   5.482   8.461  0.8458  0.9325 -0.3336
 9004TIP3   OH251206   6.784   6.416   7.062  0.2565 -0.2968  0.0052
 9004TIP3    H151207   6.827   6.495   7.097 -0.7819  0.3618 -0.1449
 9004TIP3    H251208   6.744   6.445   6.980 -0.9725 -0.7028  0.4278
 9005TIP3   OH251209   5.467   0.306   8.930  0.1367 -0.1893  0.1871
 9005TIP3    H151210   5.529   0.363   8.975 -0.6654  1.0112 -0.1905
 9005TIP3    H251211   5.383   0.322   8.973 -0.6462  0.9645 -1.6371
 9006TIP3   OH251212   4.019   4.176   8.856 -0.1035 -0.3427  0.0875
 9006TIP3    H151213   3.945   4.159   8.915  0.3049 -0.8226  0.4760
 9006TIP3    H251214   4.055   4.259   8.885  0.8628 -1.1601  1.3594
 9007TIP3   OH251215   5.094   3.355   2.989 -0.3649 -0.6951 -0.4005
 9007TIP3    H151216   5.074   3.331   3.079 -1.7544  0.6252 -0.3017
 9007TIP3    H251217   5.081   3.275   2.939 -0.1487 -1.2975  0.5015
 9008TIP3   OH251218   3.587   2.340   1.257 -0.0915  0.0226 -0.3735
 9008TIP3    H151219   3.559   2.402   1.190  2.3677  0.5918 -0.9899
 9008TIP3    H251220   3.557   2.255   1.227 -1.3692  0.6016 -0.7781
 9009TIP3   OH251221   5.458   3.701   0.840  0.2889  0.4207 -0.4823
 9009TIP3    H151222   5.485   3.764   0.906  0.3912  1.1729 -1.2186
 9009TIP3    H251223   5.378   3.737   0.803  0.1616 -0.0499 -0.6821
 9010TIP3   OH251224   3.186   5.456   2.725  0.0095 -0.0796  0.2195
 9010TIP3    H151225   3.116   5.515   2.752  0.3845 -0.6009  2.5123
 9010TIP3    H251226   3.156   5.369   2.748  0.9007 -0.4326  0.1026
 9011TIP3   OH251227   0.565   2.603   6.764 -0.7411 -0.4066 -0.4813
 9011TIP3    H151228   0.636   2.544   6.737 -0.4850 -0.5083  0.3760
 9011TIP3    H251229   0.609   2.677   6.805 -1.0977  0.0021 -0.8296
 9012TIP3   OH251230   4.183   7.011   1.989  0.1294 -0.1615 -0.0497
 9012TIP3    H151231   4.090   7.032   1.986  0.0545  1.0674  4.1247
 9012TIP3    H251232   4.227   7.095   1.977  0.7986 -0.7486 -2.1045
 9013TIP3   OH251233   6.971   7.370   2.166  0.4950  0.0866  0.2821
 9013TIP3    H151234   7.026   7.368   2.088  0.5567  0.7916  0.2990
 9013TIP3    H251235   6.924   7.453   2.160 -0.6933 -0.5679  0.1895
 9014TIP3   OH251236   6.151   2.776   7.601  0.1002  0.0668 -0.2795
 9014TIP3    H151237   6.221   2.740   7.655 -0.3299  0.1596  0.3516
 9014TIP3    H251238   6.072   2.768   7.655 -0.1724  1.0624 -0.4967
 9015TIP3   OH251239   3.836   5.957   8.777 -0.3480 -0.0229  0.4307
 9015TIP3    H151240   3.812   6.047   8.756 -0.5011  0.0676  0.9811
 9015TIP3    H251241   3.914   5.965   8.832 -0.1829 -0.2398  0.2320
 9016TIP3   OH251242   5.011   1.586   0.277  0.3086 -0.4963  0.3317
 9016TIP3    H151243   4.930   1.629   0.306 -0.1155 -0.6906 -0.5080
 9016TIP3    H251244   5.081   1.648   0.300 -0.1916  0.1789  0.0767
 9017TIP3   OH251245   1.591   1.026   7.650  0.6332 -0.1855  0.2064
 9017TIP3    H151246   1.684   1.024   7.673  0.3276  2.1126  1.8944
 9017TIP3    H251247   1.545   1.003   7.731 -0.3227 -1.0148 -0.5328
 9018TIP3   OH251248   1.617   0.646   8.799  0.4551 -0.1393 -0.1454
 9018TIP3    H151249   1.629   0.650   8.894  1.1449 -0.5352 -0.2052
 9018TIP3    H251250   1.646   0.558   8.775  1.8722  0.5133 -0.9227
 9019TIP3   OH251251   2.548   2.083   0.824 -0.3703  0.1052 -0.2440
 9019TIP3    H151252   2.507   2.001   0.798  0.7894 -0.5027 -0.2400
 9019TIP3    H251253   2.622   2.057   0.879 -0.6320  1.2101  0.6636
 9020TIP3   OH251254   4.911   1.000   1.380  0.3833  0.3297  0.2916
 9020TIP3    H151255   4.996   0.987   1.338  0.2419 -0.4920  0.2475
 9020TIP3    H251256   4.922   0.965   1.469  0.4435  1.3304  0.6947
 9021TIP3   OH251257   6.657   0.665   7.861 -0.3525 -0.4327  0.1210
 9021TIP3    H151258   6.641   0.577   7.826  0.4133  0.1747 -1.8997
 9021TIP3    H251259   6.609   0.723   7.802 -0.2467  0.5557  0.9913
 9022TIP3   OH251260   3.636   5.072   0.790  0.1895  0.1192  0.1176
 9022TIP3    H151261   3.549   5.056   0.827 -0.1542  0.7933 -0.3875
 9022TIP3    H251262   3.666   4.985   0.763  0.0847 -0.2576  1.1554
 9023TIP3   OH251263   1.286   6.169   9.383  0.5032 -0.5697  0.3515
 9023TIP3    H151264   1.357   6.192   9.323  1.1882 -0.1920  1.2847
 9023TIP3    H251265   1.271   6.076   9.368 -0.2531 -0.2030 -1.3413
 9024TIP3   OH251266   4.387   5.409   1.593 -0.2635  0.8255 -0.2498
 9024TIP3    H151267   4.316   5.404   1.658 -1.4807 -0.3498 -1.6198
 9024TIP3    H251268   4.465   5.382   1.642 -0.9647  0.8871  0.9623
 9025TIP3   OH251269   1.850   3.075   6.404  0.4858  0.7152 -0.0084
 9025TIP3    H151270   1.934   3.078   6.358  0.4415 -0.4471 -0.1741
 9025TIP3    H251271   1.804   3.000   6.366  0.8349 -0.9133  2.5711
 9026TIP3   OH251272   4.817   1.617   7.014 -0.1621 -0.0441 -0.0785
 9026TIP3    H151273   4.787   1.690   7.067  0.9035  1.2472 -1.2060
 9026TIP3    H251274   4.738   1.586   6.969 -1.3544 -1.9433  3.0011
 9027TIP3   OH251275   4.346   3.146   0.303  0.2707 -0.5373  0.5284
 9027TIP3    H151276   4.427   3.198   0.305  0.6893 -0.8585 -2.7168
 9027TIP3    H251277   4.283   3.198   0.352  0.9146  2.6796 -1.7236
 9028TIP3   OH251278   1.258   0.776   3.068  0.2697  0.3695 -0.1092
 9028TIP3    H151279   1.220   0.735   3.146 -0.7199 -0.5541 -1.0482
 9028TIP3    H251280   1.219   0.864   3.066  1.2402  0.8473  1.0855
 9029TIP3   OH251281   5.843   3.650   8.754 -0.9050  0.0633 -0.4943
 9029TIP3    H151282   5.889   3.649   8.670 -2.2868  1.1336 -1.2981
 9029TIP3    H251283   5.767   3.593   8.741 -0.7880 -0.2715  0.2464
 9030TIP3   OH251284   4.544   5.061   0.763  0.1561 -0.1487 -0.3820
 9030TIP3    H151285   4.482   5.114   0.714  2.5358  2.8343 -0.4041
 9030TIP3    H251286   4.516   5.070   0.854  1.6961  3.1363 -0.0991
 9031TIP3   OH251287   6.263   4.548   2.038 -0.1556  0.3773  0.0354
 9031TIP3    H151288   6.322   4.617   2.069 -1.8827  1.5154  0.9373
 9031TIP3    H251289   6.305   4.515   1.958  2.2546  0.3310  1.2248
 9032TIP3   OH251290   5.951   0.239   6.994  0.4644  0.8985  0.0710
 9032TIP3    H151291   5.954   0.156   6.946 -2.1467 -0.2662  1.7126
 9032TIP3    H251292   5.910   0.301   6.934  2.8140  1.2546 -1.3255
 9033TIP3   OH251293   6.957   1.230   7.471 -0.1912 -0.2709  0.2681
 9033TIP3    H151294   6.900   1.300   7.502  0.9075  1.2867 -1.0828
 9033TIP3    H251295   6.897   1.163   7.439 -1.2678 -0.1279  1.8873
 9034TIP3   OH251296   6.353   5.350   6.646 -0.1842 -0.2321  0.8491
 9034TIP3    H151297   6.281   5.378   6.703  0.7837  0.0374  1.9633
 9034TIP3    H251298   6.405   5.291   6.700  1.0055  0.3622  0.3810
 9035TIP3   OH251299   0.845   4.668   1.674  0.0164 -0.1296  0.3255
 9035TIP3    H151300   0.850   4.705   1.762 -1.4310 -0.1844  0.4558
 9035TIP3    H251301   0.936   4.649   1.650  0.4081 -0.2915  1.8748
 9036TIP3   OH251302   7.020   1.141   2.311 -0.3835 -0.3958 -0.5122
 9036TIP3    H151303   6.926   1.142   2.333 -0.4112  0.2729 -0.6225
 9036TIP3    H251304   7.023   1.172   2.220  0.0310  0.7838 -0.1155
 9037TIP3   OH251305   3.267   1.770   6.878  0.4758  0.0422  0.3627
 9037TIP3    H151306   3.180   1.731   6.880  0.2090  0.4784 -1.1721
 9037TIP3    H251307   3.325   1.698   6.854  0.5126 -0.1824  1.0948
 9038TIP3   OH251308   3.709   5.613   7.509 -0.3759  0.0063 -0.0810
 9038TIP3    H151309   3.744   5.654   7.588 -1.0354  1.1626 -0.3651
 9038TIP3    H251310   3.783   5.610   7.448 -0.4322  1.2459 -0.2249
 9039TIP3   OH251311   3.242   6.263   8.833 -0.1095 -0.0645 -0.4580
 9039TIP3    H151312   3.212   6.296   8.748 -3.9111 -1.4036  0.1729
 9039TIP3    H251313   3.182   6.302   8.897  0.6953 -1.4611  1.2512
 9040TIP3   OH251314   6.108   0.949   2.576  0.5944  0.0626 -0.3242
 9040TIP3    H151315   6.175   0.907   2.629 -1.3139 -0.8546  1.4760
 9040TIP3    H251316   6.093   1.034   2.618  0.7904  0.4029 -0.9130
 9041TIP3   OH251317   5.182   1.712   7.895  0.4071  0.1057  0.0344
 9041TIP3    H151318   5.137   1.679   7.973 -0.2963 -1.2602 -0.9070
 9041TIP3    H251319   5.275   1.695   7.913  0.1714 -1.1298  0.1777
 9042TIP3   OH251320   7.321   5.743   8.250 -0.8769  0.5775  0.2833
 9042TIP3    H151321   7.335   5.815   8.311 -0.5833 -0.4629  1.4966
 9042TIP3    H251322   7.316   5.665   8.306  0.5054 -0.5606 -1.0848
 9043TIP3   OH251323   0.077   1.550   9.596  0.2297 -0.0295  0.6694
 9043TIP3    H151324   0.131   1.492   9.650  2.4957  0.9106 -0.4724
 9043TIP3    H251325   0.032   1.607   9.659 -0.7337 -1.8543  1.7218
 9044TIP3   OH251326   4.956   1.481   0.830  0.1509  0.0662  1.1071
 9044TIP3    H151327   4.913   1.539   0.894  0.5999  0.2365  1.2603
 9044TIP3    H251328   5.049   1.486   0.852  0.1706 -0.9483  1.3087
 9045TIP3   OH251329   0.787   6.734   0.053  0.6319  0.8036  0.1380
 9045TIP3    H151330   0.820   6.791   0.123 -0.5899  0.4825  1.0069
 9045TIP3    H251331   0.825   6.649   0.073 -0.0445  0.6196  0.6578
 9046TIP3   OH251332   4.287   1.247   8.874 -0.0733  0.0858 -0.3646
 9046TIP3    H151333   4.348   1.314   8.905  1.4034 -1.0732 -0.6806
 9046TIP3    H251334   4.273   1.190   8.950 -0.3004  0.0190 -0.4569
 9047TIP3   OH251335   1.522   4.507   8.210  0.5873  0.2939  0.0837
 9047TIP3    H151336   1.500   4.506   8.117  0.1222  1.5723  0.1648
 9047TIP3    H251337   1.448   4.465   8.253  1.1112 -0.9373 -0.1522
 9048TIP3   OH251338   0.536   2.268   7.892 -0.5322  0.0709  0.0491
 9048TIP3    H151339   0.481   2.309   7.825 -0.4442  0.3173  0.1258
 9048TIP3    H251340   0.502   2.303   7.975 -0.4064  0.0481  0.1107
 9049TIP3   OH251341   4.696   3.084   8.128  0.2285  0.2047 -0.1172
 9049TIP3    H151342   4.625   3.064   8.067  0.3876 -0.5777 -0.0654
 9049TIP3    H251343   4.734   2.998   8.148  0.9382  0.5767  0.1505
 9050TIP3   OH251344   7.058   3.829   0.400  0.1178 -0.3766 -0.2794
 9050TIP3    H151345   7.084   3.857   0.312 -4.1890  3.2983 -0.7109
 9050TIP3    H251346   7.021   3.742   0.387  1.4992 -0.8211 -1.6054
 9051TIP3   OH251347   3.505   5.568   7.216  0.5787  0.7134  0.4593
 9051TIP3    H151348   3.475   5.598   7.130  0.3230 -2.3504 -0.6239
 9051TIP3    H251349   3.600   5.572   7.211  0.6766 -1.8429 -1.0042
 9052TIP3   OH251350   3.983   5.000   0.789  0.0582 -0.7414 -0.5224
 9052TIP3    H151351   4.068   4.961   0.805  0.2000 -0.4273 -0.5038
 9052TIP3    H251352   3.953   4.960   0.707 -1.0126 -2.9432  0.8631
 9053TIP3   OH251353   5.478   3.640   0.202  0.2025  0.5665 -0.0359
 9053TIP3    H151354   5.474   3.717   0.145 -1.5718  1.3346  1.0710
 9053TIP3    H251355   5.491   3.676   0.290  0.5879 -0.4858  0.3532
 9054TIP3   OH251356   1.898   3.641   8.203 -0.8423 -0.6554 -0.4380
 9054TIP3    H151357   1.947   3.563   8.230 -1.0055 -0.8762 -0.7662
 9054TIP3    H251358   1.921   3.708   8.267 -0.7688 -1.0025 -0.1001
 9055TIP3   OH251359   3.925   6.642   0.218  0.2350 -0.6676 -0.1625
 9055TIP3    H151360   3.913   6.697   0.141  5.8284  1.9192  0.3631
 9055TIP3    H251361   3.883   6.690   0.289 -3.1288 -2.0599 -1.0045
 9056TIP3   OH251362   3.915   7.383   0.207 -0.2583  0.0324 -0.0727
 9056TIP3    H151363   3.947   7.464   0.247  2.6946 -0.9553 -0.2503
 9056TIP3    H251364   3.856   7.413   0.137  0.6655  2.0300 -0.0662
 9057TIP3   OH251365   2.040   0.797   1.693 -0.0411  0.5590  0.8008
 9057TIP3    H151366   2.083   0.746   1.624  0.2628  1.1213  0.5644
 9057TIP3    H251367   1.961   0.747   1.714  0.9940 -0.7954  1.6550
 9058TIP3   OH251368   1.845   6.983   1.109 -0.4360 -0.0988 -0.7488
 9058TIP3    H151369   1.759   6.983   1.151 -1.2052 -0.0363 -2.2615
 9058TIP3    H251370   1.880   7.071   1.125 -1.3184  0.3831 -1.4166
 9059TIP3   OH251371   4.539   7.079   1.341 -0.6944 -0.1722 -0.5577
 9059TIP3    H151372   4.544   7.160   1.392 -2.4531  0.8528 -1.8733
 9059TIP3    H251373   4.627   7.065   1.307  0.8344 -1.4469  3.4025
 9060TIP3   OH251374   1.814   3.989   7.435 -0.4637  0.0727  0.0528
 9060TIP3    H151375   1.864   3.911   7.408 -1.0760 -0.0806 -0.6551
 9060TIP3    H251376   1.751   3.956   7.499  0.5822  0.3349  1.2638
 9061TIP3   OH251377   1.133   4.246   8.905 -0.1203  0.1145  0.0937
 9061TIP3    H151378   1.119   4.283   8.993  1.1277  1.5985 -0.3004
 9061TIP3    H251379   1.219   4.204   8.910  0.5444  1.3303 -0.7534
 9062TIP3   OH251380   4.010   4.828   7.876 -0.0541 -0.4626  0.2143
 9062TIP3    H151381   4.055   4.912   7.881 -0.1695  0.0304 -3.6913
 9062TIP3    H251382   4.079   4.766   7.853 -0.3755 -0.9788  0.6204
 9063TIP3   OH251383   3.514   6.379   6.758  0.1952  0.2947 -0.3715
 9063TIP3    H151384   3.556   6.305   6.803  0.9140  0.8036 -0.1828
 9063TIP3    H251385   3.501   6.348   6.669 -0.4037 -0.4015 -0.0457
 9064TIP3   OH251386   6.017   0.411   0.767  0.3688 -0.3424  0.1862
 9064TIP3    H151387   6.011   0.473   0.839 -2.0587  0.1185 -0.3259
 9064TIP3    H251388   6.065   0.457   0.698 -2.8389  1.7609 -0.8344
 9065TIP3   OH251389   6.831   2.257   1.789 -0.1450 -0.0296  0.4847
 9065TIP3    H151390   6.865   2.330   1.737 -0.6961  0.2547  0.5075
 9065TIP3    H251391   6.851   2.180   1.737 -1.9926  0.3561 -0.9305
 9066TIP3   OH251392   5.747   6.101   1.701  0.1464  0.5028  0.5543
 9066TIP3    H151393   5.788   6.129   1.783  0.7628  2.0430 -0.2262
 9066TIP3    H251394   5.661   6.142   1.702  0.9036  2.2102 -0.4188
 9067TIP3   OH251395   1.359   0.159   8.217  0.2501 -0.1300 -0.3156
 9067TIP3    H151396   1.400   0.206   8.145  0.7601 -1.4399 -0.9233
 9067TIP3    H251397   1.265   0.169   8.202  0.3444  0.8518 -0.3041
 9068TIP3   OH251398   5.974   7.184   7.728 -0.4190  0.1172 -0.2824
 9068TIP3    H151399   5.888   7.218   7.756 -0.5860 -0.0128 -0.6366
 9068TIP3    H251400   5.959   7.090   7.717 -0.8830  0.4227 -2.7244
 9069TIP3   OH251401   2.379   7.239   0.603  0.3131 -0.0276 -0.5865
 9069TIP3    H151402   2.370   7.280   0.516 -2.0883 -0.9863 -0.8770
 9069TIP3    H251403   2.343   7.304   0.664  2.1332  0.7049 -0.2396
 9070TIP3   OH251404   3.403   0.814   0.361 -0.0984 -0.2677 -0.1782
 9070TIP3    H151405   3.399   0.906   0.389 -2.1757 -0.9693  2.2820
 9070TIP3    H251406   3.312   0.791   0.343  0.2273 -2.1253  0.3642
 9071TIP3   OH251407   1.924   6.128   8.722  0.9045 -0.1714  0.4879
 9071TIP3    H151408   1.907   6.189   8.794  1.8836 -1.1424  1.6009
 9071TIP3    H251409   1.986   6.173   8.666  0.0846  0.6264  0.1944
 9072TIP3   OH251410   0.632   5.302   1.585 -0.0287 -0.3103  0.2892
 9072TIP3    H151411   0.690   5.375   1.564 -2.0157  0.7424 -1.9402
 9072TIP3    H251412   0.651   5.237   1.518 -2.7947  0.9509 -1.9210
 9073TIP3   OH251413   4.830   1.966   0.560  0.4435  0.2848 -0.6983
 9073TIP3    H151414   4.845   2.032   0.493 -1.6786  1.3096 -0.2544
 9073TIP3    H251415   4.801   2.016   0.637  0.9882 -1.0023  0.3800
 9074TIP3   OH251416   0.894   2.610   7.367  0.3242 -0.3501 -0.0168
 9074TIP3    H151417   0.833   2.648   7.430  0.7890  0.1723  0.1264
 9074TIP3    H251418   0.966   2.673   7.363  0.1084 -0.1719 -1.4003
 9075TIP3   OH251419   1.995   1.653   8.169  0.0363  0.4577  0.1568
 9075TIP3    H151420   2.073   1.672   8.116  0.4884  0.6793  0.8789
 9075TIP3    H251421   1.956   1.739   8.185  1.2412  0.7062  2.1591
 9076TIP3   OH251422   5.211   0.385   8.773 -0.4311  0.5168  0.1355
 9076TIP3    H151423   5.178   0.316   8.716  0.6456  0.4437 -0.4294
 9076TIP3    H251424   5.188   0.357   8.862  0.3031 -0.7627 -0.0602
 9077TIP3   OH251425   2.500   1.093   1.953  0.3332 -0.2742  0.3545
 9077TIP3    H151426   2.590   1.060   1.955  0.4607 -0.0334 -0.6432
 9077TIP3    H251427   2.473   1.095   2.045  1.3864 -0.2361  0.6818
 9078TIP3   OH251428   7.051   3.071   6.775 -0.8424 -0.0387  0.0823
 9078TIP3    H151429   6.964   3.038   6.756 -0.4702 -0.7106 -0.5064
 9078TIP3    H251430   7.105   3.041   6.701  0.5182 -2.1420  1.7953
 9079TIP3   OH251431   2.486   2.193   1.378 -0.0511  0.5491  0.4533
 9079TIP3    H151432   2.499   2.117   1.321  0.3876  0.3905  0.7566
 9079TIP3    H251433   2.503   2.160   1.466 -0.7720  0.7834  0.6848
 9080TIP3   OH251434   5.487   5.930   1.770 -0.3042  0.0004  0.0190
 9080TIP3    H151435   5.510   5.867   1.702 -0.3804 -1.9409  1.6969
 9080TIP3    H251436   5.571   5.967   1.798 -0.2773  0.8685 -1.1185
 9081TIP3   OH251437   1.715   4.919   0.703  0.1416  0.6457 -0.2116
 9081TIP3    H151438   1.696   4.833   0.667  1.3023  0.7331 -1.0859
 9081TIP3    H251439   1.672   4.980   0.644  0.9512  0.7349 -0.7217
 9082TIP3   OH251440   5.505   0.591   7.972 -0.3330  0.0763 -0.2254
 9082TIP3    H151441   5.579   0.567   7.917 -0.6152  0.4314 -0.7730
 9082TIP3    H251442   5.440   0.522   7.957 -0.5947  0.4232 -0.7097
 9083TIP3   OH251443   2.305   3.122   1.702  0.2204  0.0719 -0.2216
 9083TIP3    H151444   2.239   3.138   1.635  0.6810 -2.7293 -1.4923
 9083TIP3    H251445   2.385   3.105   1.653  0.6871 -1.5463  1.0196
 9084TIP3   OH251446   3.277   2.914   1.881 -0.2079  0.2255  0.5140
 9084TIP3    H151447   3.297   3.001   1.846 -1.4623  0.0886 -0.6254
 9084TIP3    H251448   3.350   2.895   1.940  1.4953  0.9200 -1.2383
 9085TIP3   OH251449   5.197   7.246   7.977 -0.4116  0.1135  0.3702
 9085TIP3    H151450   5.132   7.229   8.045  0.2100  0.3864  1.0421
 9085TIP3    H251451   5.240   7.327   8.003  1.5562 -1.0546  1.0194
 9086TIP3   OH251452   1.992   3.032   2.584  0.5935 -0.0123  0.2245
 9086TIP3    H151453   1.991   3.121   2.621  1.3865 -1.4735  4.2007
 9086TIP3    H251454   2.075   3.027   2.537 -0.0046  1.6726 -1.1092
 9087TIP3   OH251455   0.876   4.687   6.138 -0.9879 -0.1104  0.1945
 9087TIP3    H151456   0.837   4.613   6.092  0.5251  0.1055 -1.5534
 9087TIP3    H251457   0.968   4.664   6.149 -0.4877  1.4615 -0.3667
 9088TIP3   OH251458   3.270   1.693   9.548  0.3136  0.5067  0.3157
 9088TIP3    H151459   3.364   1.678   9.555  0.1159 -0.5244  0.8012
 9088TIP3    H251460   3.263   1.770   9.490  1.3961 -0.4432 -1.1505
 9089TIP3   OH251461   3.328   5.716   7.923  0.2934  0.0805 -0.0542
 9089TIP3    H151462   3.308   5.625   7.947 -1.0808  0.3097 -0.2923
 9089TIP3    H251463   3.376   5.708   7.840 -0.5257 -0.4054 -0.4960
 9090TIP3   OH251464   1.241   5.564   1.416 -0.7477  0.1100  0.3659
 9090TIP3    H151465   1.306   5.525   1.357  0.0782  0.0459  1.2973
 9090TIP3    H251466   1.260   5.524   1.501 -1.6294  0.5461  0.7713
 9091TIP3   OH251467   1.523   3.250   7.987 -0.0136  0.4027  0.0267
 9091TIP3    H151468   1.529   3.156   8.002 -0.1596  0.3615 -0.1634
 9091TIP3    H251469   1.592   3.288   8.041  0.1901  0.1677 -0.0682
 9092TIP3   OH251470   6.082   6.601   9.633  0.3092 -0.3665  0.5709
 9092TIP3    H151471   6.079   6.651   9.715 -1.8951  0.5605 -0.0058
 9092TIP3    H251472   6.093   6.510   9.660  1.9218  0.1320  1.7518
 9093TIP3   OH251473   3.493   6.732   7.360  0.4395 -0.3008  0.1979
 9093TIP3    H151474   3.543   6.656   7.331  0.9272  0.0237  0.1702
 9093TIP3    H251475   3.482   6.786   7.282  1.3986  0.3732  0.5093
 9094TIP3   OH251476   5.734   0.284   7.241 -0.4533  0.1967  0.1495
 9094TIP3    H151477   5.791   0.255   7.169  1.0878 -0.1202  1.4326
 9094TIP3    H251478   5.746   0.218   7.309 -1.3148  0.8778  0.9825
 9095TIP3   OH251479   7.270   6.566   8.108 -0.6838 -0.9535 -0.0581
 9095TIP3    H151480   7.178   6.584   8.089 -0.3121  1.7256  0.1633
 9095TIP3    H251481   7.299   6.509   8.037 -2.6566 -2.4482  0.2640
 9096TIP3   OH251482   5.400   3.201   8.198  0.0066 -0.4994 -0.0748
 9096TIP3    H151483   5.331   3.237   8.143  1.0465  1.4143 -0.2178
 9096TIP3    H251484   5.468   3.175   8.136  0.8291  0.8772  0.2098
 9097TIP3   OH251485   3.893   7.080   8.385  0.0004 -0.8286  0.1958
 9097TIP3    H151486   3.914   6.995   8.423  2.0672 -0.6669 -0.4858
 9097TIP3    H251487   3.959   7.094   8.318 -1.5479  0.4103 -1.1522
 9098TIP3   OH251488   3.763   1.686   1.176  0.4946  0.3660 -0.7259
 9098TIP3    H151489   3.687   1.716   1.126 -0.2986  0.2786  0.3874
 9098TIP3    H251490   3.782   1.600   1.139 -0.7711 -0.1806 -0.1702
 9099TIP3   OH251491   3.169   6.171   2.000  0.0652  0.2813  0.2832
 9099TIP3    H151492   3.131   6.153   1.914 -0.8733 -0.8044  0.9013
 9099TIP3    H251493   3.218   6.252   1.987 -1.4169  1.0597 -0.8827
 9100TIP3   OH251494   7.158   0.145   1.082 -0.0506 -0.5079 -0.0515
 9100TIP3    H151495   7.104   0.068   1.102 -1.5422  0.3999 -0.4110
 9100TIP3    H251496   7.111   0.218   1.123  1.1723  0.2659  0.0128
 9101TIP3   OH251497   0.416   3.463   2.252 -0.4218  0.3456 -0.3315
 9101TIP3    H151498   0.501   3.444   2.212 -1.0123  0.4706 -1.7000
 9101TIP3    H251499   0.355   3.466   2.178 -1.5673  0.5647  0.5954
 9102TIP3   OH251500   3.247   6.810   7.955 -0.0050 -0.1294  0.0761
 9102TIP3    H151501   3.156   6.801   7.928  0.0156  0.2045 -0.1174
 9102TIP3    H251502   3.248   6.892   8.006  0.4624  0.6599 -1.1605
 9103TIP3   OH251503   0.933   3.760   1.302 -0.5238 -0.5993  0.3816
 9103TIP3    H151504   0.847   3.802   1.305 -0.2294  0.0309  2.9615
 9103TIP3    H251505   0.918   3.672   1.337 -0.4542 -1.3057 -1.2758
 9104TIP3   OH251506   2.779   3.699   9.371 -0.0578  0.2847  0.8122
 9104TIP3    H151507   2.836   3.623   9.385 -0.5033 -0.4978 -1.3098
 9104TIP3    H251508   2.693   3.661   9.355 -0.3443  1.2447  0.0338
 9105TIP3   OH251509   0.200   3.442   2.070  0.5384 -0.0671 -0.0578
 9105TIP3    H151510   0.165   3.450   1.982  0.4475  1.2468  0.0838
 9105TIP3    H251511   0.136   3.488   2.125  0.2068 -1.5014  0.8027
 9106TIP3   OH251512   4.715   6.332   8.033 -0.5329  0.1401 -0.9285
 9106TIP3    H151513   4.723   6.427   8.026 -0.5890  0.3491  1.1059
 9106TIP3    H251514   4.800   6.303   8.066 -1.3103 -0.1429  0.9965
 9107TIP3   OH251515   4.175   5.944   7.454  0.3096  0.3249 -0.0926
 9107TIP3    H151516   4.103   5.890   7.420  1.9556 -0.6984 -2.1820
 9107TIP3    H251517   4.232   5.958   7.378  1.6983  2.1632  1.2065
 9108TIP3   OH251518   6.259   2.474   1.818  0.4253 -0.1716  0.2988
 9108TIP3    H151519   6.227   2.392   1.780  0.1321 -0.7265  1.6815
 9108TIP3    H251520   6.347   2.452   1.850  0.3695  0.0645  0.6142
 9109TIP3   OH251521   4.278   5.892   8.415 -0.3416 -0.0698  0.1114
 9109TIP3    H151522   4.198   5.909   8.365  0.4132 -0.8929 -1.4586
 9109TIP3    H251523   4.315   5.813   8.375  0.3105 -0.7954  2.0155
 9110TIP3   OH251524   6.695   2.189   8.264  0.0659 -0.1306  0.2765
 9110TIP3    H151525   6.713   2.233   8.182 -0.9279  0.2834  0.2629
 9110TIP3    H251526   6.639   2.115   8.240 -0.7965  0.3831  0.6334
 9111TIP3   OH251527   4.096   3.746   0.564 -0.0403 -0.2475 -0.1384
 9111TIP3    H151528   4.163   3.778   0.624 -0.2897 -0.1498  0.0873
 9111TIP3    H251529   4.036   3.820   0.552 -1.1930 -0.9266  1.1934
 9112TIP3   OH251530   6.553   1.400   6.430 -0.4102 -0.1440 -0.5845
 9112TIP3    H151531   6.647   1.418   6.436  0.0107 -0.4512 -4.0212
 9112TIP3    H251532   6.533   1.344   6.505  1.3636  2.5301  2.1009
 9113TIP3   OH251533   5.994   0.764   6.519  0.0697  0.2863  0.2472
 9113TIP3    H151534   5.905   0.800   6.519  0.4118  1.2058 -0.7659
 9113TIP3    H251535   5.986   0.681   6.473 -0.3885 -0.0227  0.8572
 9114TIP3   OH251536   1.607   6.760   7.731  0.1057  0.4722  0.1192
 9114TIP3    H151537   1.597   6.677   7.777 -0.8604  0.8116  0.5666
 9114TIP3    H251538   1.529   6.767   7.676 -0.0908  1.3142  0.4880
 9115TIP3   OH251539   5.383   5.561   9.060 -0.1041  0.0990  0.4544
 9115TIP3    H151540   5.410   5.487   9.115 -1.5061 -0.8731 -0.1065
 9115TIP3    H251541   5.453   5.626   9.072  1.3671 -1.4378  0.6875
 9116TIP3   OH251542   2.590   0.893   7.128 -0.4133 -0.0433  0.4394
 9116TIP3    H151543   2.511   0.910   7.077  0.6381 -0.0471 -1.2846
 9116TIP3    H251544   2.632   0.979   7.137  0.1810 -0.2690 -0.0818
 9117TIP3   OH251545   0.032   5.129   0.692 -0.0627 -0.3423 -0.2378
 9117TIP3    H151546   0.103   5.094   0.638 -0.0057 -0.8550  0.1567
 9117TIP3    H251547   0.021   5.219   0.663  2.0144  0.3478  0.9631
 9118TIP3   OH251548   1.460   3.620   2.594  0.2838  0.1834  0.4689
 9118TIP3    H151549   1.452   3.581   2.681  1.5042 -2.6350 -0.5661
 9118TIP3    H251550   1.519   3.695   2.607 -0.3888  0.4614  2.2065
 9119TIP3   OH251551   6.469   3.482   7.311  0.4325  0.1210  0.0506
 9119TIP3    H151552   6.559   3.514   7.304  0.5921 -0.4220 -0.4576
 9119TIP3    H251553   6.442   3.469   7.220  0.5731 -1.7317  0.2448
 9120TIP3   OH251554   4.505   1.438   9.375 -0.2850  0.3147  0.3089
 9120TIP3    H151555   4.596   1.461   9.393 -0.0903 -0.0473 -0.2101
 9120TIP3    H251556   4.510   1.353   9.332 -0.9027  0.0492  0.7485
 9121TIP3   OH251557   3.076   1.695   0.992  0.0287 -0.5266 -0.0839
 9121TIP3    H151558   3.095   1.786   0.969  1.5955 -0.5239  1.0173
 9121TIP3    H251559   3.019   1.664   0.923  1.2734  0.6376 -1.7190
 9122TIP3   OH251560   5.189   6.472   0.256  0.2088 -0.2070  0.0971
 9122TIP3    H151561   5.237   6.510   0.182  0.4545  0.2008  0.4579
 9122TIP3    H251562   5.103   6.513   0.252  0.1776 -0.2827 -0.0365
 9123TIP3   OH251563   7.252   6.233   0.704 -0.2828 -0.0472  0.2739
 9123TIP3    H151564   7.221   6.290   0.775  1.0906 -0.9505  1.6776
 9123TIP3    H251565   7.347   6.246   0.704 -0.1054 -1.2362 -0.3688
 9124TIP3   OH251566   1.169   5.546   0.714  0.2908  0.5957 -0.6994
 9124TIP3    H151567   1.229   5.484   0.673 -1.6269 -1.6057 -0.3621
 9124TIP3    H251568   1.170   5.522   0.807 -1.2342  0.3841 -0.7200
 9125TIP3   OH251569   0.310   5.936   1.717 -0.0732  0.2371 -0.0743
 9125TIP3    H151570   0.251   5.885   1.661  0.9263 -0.7693 -0.2589
 9125TIP3    H251571   0.289   5.907   1.805 -0.5523  0.6467 -0.0479
 9126TIP3   OH251572   5.670   5.434   1.492 -0.4976  0.2226 -0.1295
 9126TIP3    H151573   5.731   5.427   1.419  0.1811 -0.9330  0.5291
 9126TIP3    H251574   5.614   5.357   1.485 -0.9621  0.5309  0.1053
 9127TIP3   OH251575   0.702   1.980   2.162  0.2717 -0.2520  0.1719
 9127TIP3    H151576   0.797   1.969   2.160  0.0424 -2.8042  0.2623
 9127TIP3    H251577   0.683   2.040   2.090  2.0370  1.3846  1.0007
 9128TIP3   OH251578   2.074   4.556   7.111 -0.9207 -0.1935 -0.7050
 9128TIP3    H151579   2.043   4.468   7.092 -2.3807 -0.6634  2.9339
 9128TIP3    H251580   2.169   4.547   7.118 -1.0562 -1.5436 -0.2753
 9129TIP3   OH251581   3.546   4.529   7.604 -0.0023 -0.0536  0.1577
 9129TIP3    H151582   3.588   4.573   7.678  0.7371  1.4401 -1.0809
 9129TIP3    H251583   3.457   4.513   7.633  0.2543  0.5543  1.3487
 9130TIP3   OH251584   0.603   4.757   2.466 -0.1148 -0.1625  0.1851
 9130TIP3    H151585   0.586   4.685   2.527  2.0150  0.0819  1.1562
 9130TIP3    H251586   0.666   4.812   2.511  0.5615  0.7316 -1.7404
 9131TIP3   OH251587   4.579   0.468   8.034 -0.0188 -0.1302  0.1551
 9131TIP3    H151588   4.500   0.434   8.077  0.6582 -1.3451  0.4805
 9131TIP3    H251589   4.623   0.520   8.102 -0.8019  1.0498 -0.1974
 9132TIP3   OH251590   7.062   3.780   9.117  0.1303  0.0608  0.1299
 9132TIP3    H151591   7.003   3.850   9.145  0.5420  1.0170 -1.2814
 9132TIP3    H251592   7.005   3.716   9.075 -0.0835  0.2912  0.0663
 9133TIP3   OH251593   3.857   1.319   0.606 -0.4405 -0.2119  0.1991
 9133TIP3    H151594   3.894   1.235   0.581  0.3249  0.0663  0.3615
 9133TIP3    H251595   3.912   1.384   0.562 -0.9453  0.2091  0.1724
 9134TIP3   OH251596   4.387   4.576   9.483 -0.1935  0.1741 -0.5512
 9134TIP3    H151597   4.390   4.586   9.578  0.4200  1.2579 -0.6673
 9134TIP3    H251598   4.437   4.651   9.449 -2.1574  1.0303 -1.7845
 9135TIP3   OH251599   0.867   3.321   7.816 -0.7684 -0.1043  0.4740
 9135TIP3    H151600   0.803   3.254   7.791  0.1248 -1.0143  0.5651
 9135TIP3    H251601   0.948   3.272   7.832  0.5247  1.1840 -1.5738
 9136TIP3   OH251602   6.639   3.754   1.926 -0.0520  0.4211  0.4029
 9136TIP3    H151603   6.596   3.794   2.001 -0.6626 -0.7152  0.6802
 9136TIP3    H251604   6.732   3.774   1.938 -0.0734 -0.2171  1.7521
 9137TIP3   OH251605   1.959   5.050   1.413 -0.6809 -0.3265  0.1046
 9137TIP3    H151606   2.049   5.053   1.380 -0.8401 -0.9988 -0.4133
 9137TIP3    H251607   1.951   5.128   1.468 -0.3616  0.7554 -1.3272
 9138TIP3   OH251608   1.109   4.879   7.677 -0.6025 -0.1683  0.6409
 9138TIP3    H151609   1.073   4.886   7.589  0.2070  0.0630  0.3198
 9138TIP3    H251610   1.203   4.894   7.666 -0.4822 -0.2094  1.5316
 9139TIP3   OH251611   6.823   2.137   0.312  0.2123 -0.1074 -0.3625
 9139TIP3    H151612   6.902   2.096   0.347  0.5594  1.0160  0.2091
 9139TIP3    H251613   6.850   2.225   0.288 -0.4514 -0.2710 -1.8505
 9140TIP3   OH251614   0.729   5.859   9.627 -0.0067  0.7825  0.7967
 9140TIP3    H151615   0.640   5.824   9.621 -0.1629  1.2878 -0.0723
 9140TIP3    H251616   0.777   5.795   9.679 -0.8666  0.4799  1.2312
 9141TIP3   OH251617   7.237   0.407   7.014 -0.5562 -0.4859  0.0300
 9141TIP3    H151618   7.224   0.500   7.029 -2.4134 -0.6992 -0.0378
 9141TIP3    H251619   7.255   0.372   7.101 -1.1205 -0.2281  0.2591
 9142TIP3   OH251620   2.179   1.982   0.742 -0.3170  0.1277 -0.1639
 9142TIP3    H151621   2.086   2.000   0.757 -0.9200 -2.0163 -0.9670
 9142TIP3    H251622   2.187   1.887   0.751  1.7835  0.2507 -0.2445
 9143TIP3   OH251623   4.056   6.776   8.472  0.0345  0.7244 -0.2580
 9143TIP3    H151624   4.028   6.712   8.407  2.3827 -0.5115 -0.1381
 9143TIP3    H251625   4.017   6.745   8.554  0.0737  0.1843 -0.4378
 9144TIP3   OH251626   4.009   0.405   7.838  0.5646 -0.1259  0.2539
 9144TIP3    H151627   4.049   0.439   7.919 -0.1831  1.2590  0.0622
 9144TIP3    H251628   4.068   0.435   7.768  1.1353 -1.2065  0.2472
 9145TIP3   OH251629   1.508   3.525   7.728 -0.6705  0.5322  0.6700
 9145TIP3    H151630   1.561   3.450   7.700  0.3289  1.0201  1.1836
 9145TIP3    H251631   1.540   3.598   7.675 -2.2110  0.4629 -0.4279
 9146TIP3   OH251632   5.716   1.561   0.073  0.0409  0.3310  0.2165
 9146TIP3    H151633   5.695   1.593  -0.015  1.3457  0.3198 -0.1138
 9146TIP3    H251634   5.670   1.478   0.080  0.1300  0.2164 -0.5469
 9147TIP3   OH251635   6.982   1.579   9.140  0.5406 -0.2134 -0.6625
 9147TIP3    H151636   6.916   1.512   9.158 -0.3136  0.8751  0.4167
 9147TIP3    H251637   6.958   1.616   9.055 -1.0833  1.0903  0.3133
 9148TIP3   OH251638   6.006   3.265   1.214 -0.0447 -0.3006  0.2080
 9148TIP3    H151639   6.049   3.251   1.298  0.7104 -0.2706 -0.1690
 9148TIP3    H251640   5.970   3.180   1.190  0.2429 -0.4445  0.2865
 9149TIP3   OH251641   1.698   3.213   2.963  0.2652  0.5005 -0.2634
 9149TIP3    H151642   1.619   3.221   3.016 -0.0685 -0.8794 -0.4985
 9149TIP3    H251643   1.758   3.161   3.018 -0.0901 -0.9596 -1.2002
 9150TIP3   OH251644   3.899   1.450   1.082 -0.1734  0.1499 -0.6375
 9150TIP3    H151645   3.934   1.453   0.993  2.6049 -0.5610  0.3325
 9150TIP3    H251646   3.911   1.359   1.109 -2.4181 -0.0136 -0.0021
 9151TIP3   OH251647   2.487   2.057   2.357  0.0000 -0.0080  0.5793
 9151TIP3    H151648   2.490   2.149   2.329  0.9052 -0.4198 -0.7607
 9151TIP3    H251649   2.408   2.022   2.317  1.6089 -0.7656 -2.2585
 9152TIP3   OH251650   5.194   6.906   0.241 -0.1571  0.3560 -0.0266
 9152TIP3    H151651   5.179   7.000   0.247 -1.9874  0.0113  2.0677
 9152TIP3    H251652   5.143   6.879   0.164  0.3305  1.0353 -0.6067
 9153TIP3   OH251653   2.455   4.355   1.772 -0.4223 -0.0244 -0.0872
 9153TIP3    H151654   2.450   4.400   1.688 -0.1121 -0.2563 -0.2334
 9153TIP3    H251655   2.439   4.423   1.837  3.5229  1.1693 -0.0895
 9154TIP3   OH251656   5.213   4.171   2.002  0.1069 -0.3548  0.1193
 9154TIP3    H151657   5.301   4.134   2.009  0.2807 -0.1201 -0.7744
 9154TIP3    H251658   5.224   4.249   1.948 -0.7154 -0.5383 -0.3280
 9155TIP3   OH251659   3.160   4.259   8.711 -0.9324  0.4016  0.7553
 9155TIP3    H151660   3.071   4.233   8.686 -1.4923  1.4380  1.5946
 9155TIP3    H251661   3.206   4.176   8.723 -0.5861 -0.2642 -3.4824
 9156TIP3   OH251662   5.811   7.067   8.814  0.5163 -0.3580  0.5524
 9156TIP3    H151663   5.787   7.159   8.802  0.3834 -0.4581  0.0254
 9156TIP3    H251664   5.805   7.053   8.909 -0.5175 -0.1042  0.5401
 9157TIP3   OH251665   1.811   2.984   1.765 -0.0666  0.1601  0.0512
 9157TIP3    H151666   1.846   3.069   1.792 -1.0762  0.1059  1.7090
 9157TIP3    H251667   1.718   3.001   1.748 -0.5401 -0.7871  1.4957
 9158TIP3   OH251668   5.133   7.113   8.409 -0.0813 -0.5190 -0.4628
 9158TIP3    H151669   5.099   7.126   8.321 -0.7636 -0.9632 -0.2728
 9158TIP3    H251670   5.061   7.139   8.467  0.2881 -0.4220 -0.0371
 9159TIP3   OH251671   7.283   0.724   0.544  0.4064  0.4637  0.5438
 9159TIP3    H151672   7.228   0.660   0.587 -1.0879  1.5046  0.2435
 9159TIP3    H251673   7.357   0.673   0.509 -1.4056 -1.3301 -0.8788
 9160TIP3   OH251674   6.464   3.768   0.521 -1.3048 -0.3670  0.1135
 9160TIP3    H151675   6.489   3.687   0.564  0.4002  0.0366 -0.0514
 9160TIP3    H251676   6.528   3.833   0.551  0.6009 -0.2540 -3.5822
 9161TIP3   OH251677   0.675   0.422   6.494  0.3408 -0.1595  0.8085
 9161TIP3    H151678   0.711   0.347   6.542 -0.1428 -0.1442  1.2052
 9161TIP3    H251679   0.715   0.499   6.537  0.7231 -0.1825  0.4972
 9162TIP3   OH251680   3.598   0.556   9.242 -0.1247  0.0742 -0.0707
 9162TIP3    H151681   3.670   0.521   9.295 -0.8171 -0.1267  0.7666
 9162TIP3    H251682   3.619   0.529   9.153  0.6124 -0.3672  0.2201
 9163TIP3   OH251683   1.519   1.572   0.323  0.1287 -0.1601 -0.4068
 9163TIP3    H151684   1.522   1.587   0.228 -0.0328 -0.4446 -0.4582
 9163TIP3    H251685   1.427   1.558   0.342  0.1924 -0.3755 -0.2495
 9164TIP3   OH251686   2.592   7.164   1.571  0.5379  0.0933  0.3524
 9164TIP3    H151687   2.530   7.162   1.645  1.0776  1.4016  0.8646
 9164TIP3    H251688   2.678   7.163   1.612  0.8472  0.2100 -0.2848
 9165TIP3   OH251689   3.791   6.274   6.731 -0.4560  0.1489 -0.1082
 9165TIP3    H151690   3.782   6.346   6.793 -0.3555  1.0978 -1.1562
 9165TIP3    H251691   3.766   6.312   6.647 -1.1993 -1.2670 -0.5594
 9166TIP3   OH251692   3.156   0.916   0.316  0.1088  0.1374  0.6451
 9166TIP3    H151693   3.089   0.858   0.353 -0.6088  0.3900 -0.2170
 9166TIP3    H251694   3.125   1.004   0.336  1.2129  0.2419  1.9733
 9167TIP3   OH251695   5.136   4.211   7.017  0.3470 -1.0062 -0.1348
 9167TIP3    H151696   5.050   4.194   6.978 -0.1196 -0.7447  0.7642
 9167TIP3    H251697   5.139   4.155   7.095  0.2812  0.2519  0.8010
 9168TIP3   OH251698   5.093   3.211   7.315 -0.2656 -0.4585 -0.0204
 9168TIP3    H151699   5.145   3.149   7.264 -0.8028 -0.0647 -1.0777
 9168TIP3    H251700   5.106   3.295   7.271 -1.1816 -0.2114  0.1576
 9169TIP3   OH251701   2.320   2.171   6.766 -0.1703 -0.1691  0.0360
 9169TIP3    H151702   2.389   2.214   6.817 -0.3755  0.4298 -0.1859
 9169TIP3    H251703   2.266   2.127   6.832  0.4131 -0.6434  0.2133
 9170TIP3   OH251704   3.539   5.925   7.489 -0.7035  0.1480 -0.1887
 9170TIP3    H151705   3.496   5.920   7.574 -0.2233  1.2170  0.1231
 9170TIP3    H251706   3.507   5.847   7.442 -1.4976 -0.0858  0.7076
 9171TIP3   OH251707   0.268   0.538   2.573  0.5019 -0.1914 -0.2285
 9171TIP3    H151708   0.316   0.575   2.647 -0.7900 -1.6850  1.4691
 9171TIP3    H251709   0.329   0.476   2.534  0.6150 -0.7085  0.7323
 9172TIP3   OH251710   4.910   4.636   0.994 -0.8733 -0.0943 -0.6703
 9172TIP3    H151711   4.983   4.679   0.949 -0.8716  0.6382  0.0038
 9172TIP3    H251712   4.898   4.554   0.947 -0.5853  0.4430 -1.7288
 9173TIP3   OH251713   1.868   7.173   2.507  0.8467  0.3766 -0.0338
 9173TIP3    H151714   1.875   7.239   2.575  1.8286  0.5750 -0.3025
 9173TIP3    H251715   1.930   7.105   2.533 -1.2348 -1.2050  1.0385
 9174TIP3   OH251716   2.341   3.382   8.065  0.1864 -0.1709 -0.1409
 9174TIP3    H151717   2.314   3.316   8.001 -0.3707 -0.4460  0.3677
 9174TIP3    H251718   2.415   3.427   8.024 -0.2887 -0.2115 -1.0549
 9175TIP3   OH251719   3.222   3.257   2.937 -0.6401 -0.2340  0.6362
 9175TIP3    H151720   3.165   3.273   2.861  0.8067 -2.8518 -1.1884
 9175TIP3    H251721   3.264   3.341   2.955 -1.3616  0.5650 -1.2230
 9176TIP3   OH251722   5.463   0.646   0.084  0.1526 -0.0719 -0.5155
 9176TIP3    H151723   5.382   0.678   0.046 -0.3142  0.3084  0.7417
 9176TIP3    H251724   5.441   0.627   0.175  1.0177 -1.7114 -0.6072
 9177TIP3   OH251725   6.552   5.484   2.730  0.4274  0.6075 -0.8258
 9177TIP3    H151726   6.610   5.424   2.777 -0.3092  1.3131  1.0937
 9177TIP3    H251727   6.464   5.449   2.744 -0.0210  2.0995  0.3669
 9178TIP3   OH251728   4.751   3.815   7.336  0.1851  0.2442  0.0674
 9178TIP3    H151729   4.780   3.803   7.426 -1.8105 -0.3089  0.6876
 9178TIP3    H251730   4.711   3.732   7.313  2.0904 -0.2043 -1.9524
 9179TIP3   OH251731   0.106   0.260   7.986  0.0785  0.2745  0.2844
 9179TIP3    H151732   0.151   0.225   7.909 -0.3964  0.3891 -0.0524
 9179TIP3    H251733   0.015   0.269   7.958 -0.2814 -0.5505  1.1528
 9180TIP3   OH251734   2.926   3.207   1.304  0.3138 -0.3357  0.1272
 9180TIP3    H151735   2.914   3.204   1.399  1.9643  0.3622  0.3893
 9180TIP3    H251736   2.866   3.141   1.270  0.6850 -1.5890  1.7714
 9181TIP3   OH251737   1.465   1.838   1.289 -0.0538 -0.0060  0.2456
 9181TIP3    H151738   1.506   1.752   1.299  1.1211  0.2584 -1.6655
 9181TIP3    H251739   1.514   1.895   1.349 -0.6083 -0.5693  1.2609
 9182TIP3   OH251740   6.272   6.859   1.092  0.0513 -0.2165  0.5361
 9182TIP3    H151741   6.188   6.900   1.113 -0.0617 -0.5295  0.7053
 9182TIP3    H251742   6.277   6.863   0.996 -0.3895 -0.6395  0.4893
 9183TIP3   OH251743   4.478   2.832   2.432 -1.0863  0.2408  0.3841
 9183TIP3    H151744   4.540   2.869   2.495  0.3152 -3.3084  1.3181
 9183TIP3    H251745   4.408   2.795   2.485 -1.2205 -0.5426 -0.3157
 9184TIP3   OH251746   3.108   4.620   1.444 -0.2295 -0.7643  0.2837
 9184TIP3    H151747   3.053   4.568   1.385 -0.0634 -0.2371 -0.3554
 9184TIP3    H251748   3.045   4.666   1.499 -0.4446 -0.2671 -0.3567
 9185TIP3   OH251749   6.822   2.173   8.513 -0.2202 -0.1409 -0.5435
 9185TIP3    H151750   6.760   2.148   8.582 -0.0674 -0.3575 -0.4845
 9185TIP3    H251751   6.771   2.166   8.432 -0.8240  1.5091 -0.3369
 9186TIP3   OH251752   5.400   2.410   0.423 -1.0025  0.4078  0.3577
 9186TIP3    H151753   5.432   2.417   0.333 -0.3072  0.2738  0.5866
 9186TIP3    H251754   5.447   2.335   0.460  0.0908  1.5619  1.3870
 9187TIP3   OH251755   0.182   1.391   1.192 -0.0685  0.3979 -0.2329
 9187TIP3    H151756   0.258   1.404   1.135  1.6579  1.0469  2.0624
 9187TIP3    H251757   0.150   1.479   1.211 -2.2055  0.0957 -2.0877
 9188TIP3   OH251758   5.376   5.124   9.401 -0.1191 -0.3484 -1.1410
 9188TIP3    H151759   5.335   5.124   9.314  0.3312 -1.9184 -1.3889
 9188TIP3    H251760   5.332   5.053   9.448  0.9145 -0.7389 -0.7287
 9189TIP3   OH251761   5.413   4.856   2.429 -0.0818 -0.2694  0.3783
 9189TIP3    H151762   5.406   4.820   2.517  2.7830 -1.2727  0.3130
 9189TIP3    H251763   5.440   4.947   2.441 -0.7728 -0.0858  0.5361
 9190TIP3   OH251764   4.583   6.595   8.273  0.8250  0.7468 -0.3934
 9190TIP3    H151765   4.506   6.630   8.227 -0.3639  1.4617  1.9590
 9190TIP3    H251766   4.644   6.572   8.204 -1.8176 -0.6470 -2.4423
 9191TIP3   OH251767   2.552   1.264   0.910  0.0857  0.1834 -0.5017
 9191TIP3    H151768   2.477   1.323   0.925 -1.0561 -1.5594  1.1109
 9191TIP3    H251769   2.629   1.319   0.926 -0.9371  0.7783  3.4562
 9192TIP3   OH251770   4.128   0.678   1.907  0.0932  0.2372 -0.1414
 9192TIP3    H151771   4.220   0.658   1.924 -0.5807 -1.3410  2.0417
 9192TIP3    H251772   4.111   0.757   1.958  0.1045  0.2013 -0.0815
 9193TIP3   OH251773   7.344   0.038   9.659  0.3728  0.2404 -0.0561
 9193TIP3    H151774   7.314   0.122   9.693 -0.9092 -0.0684 -0.3767
 9193TIP3    H251775   7.352  -0.018   9.737  2.5197  0.9840  0.3360
 9194TIP3   OH251776   5.527   3.904   2.272 -0.0534 -0.4696 -0.0144
 9194TIP3    H151777   5.517   3.924   2.365  0.0431 -1.4321  0.2110
 9194TIP3    H251778   5.438   3.882   2.242  0.0747 -1.1291  0.0859
 9195TIP3   OH251779   0.869   3.589   7.934 -0.3603 -0.1760 -0.7803
 9195TIP3    H151780   0.868   3.671   7.886  3.5067  0.7765  0.4338
 9195TIP3    H251781   0.877   3.522   7.867 -1.1968  0.5952 -1.6748
 9196TIP3   OH251782   2.803   5.602   1.089  0.0915 -0.1207 -0.4260
 9196TIP3    H151783   2.773   5.680   1.043  0.0838  0.2052  0.1201
 9196TIP3    H251784   2.899   5.607   1.085  0.0893 -0.4347 -0.9652
 9197TIP3   OH251785   5.419   2.299   8.006 -0.1676 -0.1513 -0.1000
 9197TIP3    H151786   5.420   2.204   8.013 -1.1434 -0.2131 -0.5811
 9197TIP3    H251787   5.425   2.330   8.097 -0.8267 -0.6963  0.1414
 9198TIP3   OH251788   0.560   5.578   2.304  0.0736 -0.5395  0.1282
 9198TIP3    H151789   0.498   5.506   2.314 -2.8045  1.8361  1.0692
 9198TIP3    H251790   0.617   5.572   2.380 -0.6874 -1.3475  0.6432
 9199TIP3   OH251791   6.803   7.297   8.304  0.2588  0.3376 -0.7139
 9199TIP3    H151792   6.711   7.277   8.317 -0.4329  2.8089 -1.2248
 9199TIP3    H251793   6.845   7.268   8.385 -1.8120  3.4290  1.7429
 9200TIP3   OH251794   0.988   2.038   7.709 -0.3220 -0.0189  0.9306
 9200TIP3    H151795   1.043   1.960   7.713 -0.9888 -0.4704  1.6602
 9200TIP3    H251796   1.045   2.106   7.672  0.2978 -0.8151  0.3882
 9201TIP3   OH251797   5.709   1.999   0.257 -0.5369 -0.6838 -0.7242
 9201TIP3    H151798   5.692   1.949   0.338 -1.1868 -1.4875 -1.3329
 9201TIP3    H251799   5.775   1.947   0.211  1.2000  0.7156  0.1003
 9202TIP3   OH251800   5.488   0.927   1.281 -0.0620  0.0739  0.6730
 9202TIP3    H151801   5.521   1.015   1.264  2.3283 -0.8691  0.1336
 9202TIP3    H251802   5.534   0.899   1.360 -0.9754 -0.6197  0.9729
 9203TIP3   OH251803   4.946   4.601   0.407  0.0193 -0.1831 -0.1026
 9203TIP3    H151804   4.896   4.587   0.487  0.7312 -0.7831  0.2510
 9203TIP3    H251805   4.881   4.599   0.337 -0.4628 -0.8747  0.3584
 9204TIP3   OH251806   1.121   6.558   8.181  0.6082  0.8342  0.2218
 9204TIP3    H151807   1.209   6.543   8.147  0.1085 -0.8868 -0.3949
 9204TIP3    H251808   1.066   6.495   8.136 -0.4592 -0.1832  2.7395
 9205TIP3   OH251809   0.086   1.785   1.967  0.4875  0.2910 -0.2493
 9205TIP3    H151810   0.150   1.737   2.018  0.4728  0.8839  0.3381
 9205TIP3    H251811   0.012   1.799   2.026  0.2408  0.5116 -0.5991
 9206TIP3   OH251812   5.441   4.780   9.609 -0.4677  0.0973 -0.3433
 9206TIP3    H151813   5.414   4.819   9.692 -0.8037  0.3301 -0.5612
 9206TIP3    H251814   5.384   4.820   9.544  0.8299  1.0978 -0.9171
 9207TIP3   OH251815   0.616   1.769   8.663  0.4916 -0.6312  0.4571
 9207TIP3    H151816   0.680   1.709   8.701 -0.6035 -1.5574  0.8789
 9207TIP3    H251817   0.599   1.734   8.575 -0.2744 -1.0609  0.7656
 9208TIP3   OH251818   1.483   3.449   6.826 -0.6008  0.1773  0.1315
 9208TIP3    H151819   1.409   3.506   6.848 -0.7305  0.1803 -0.2938
 9208TIP3    H251820   1.560   3.499   6.850 -0.6151  1.4651 -2.2153
 9209TIP3   OH251821   2.807   3.682   2.049  0.4456  0.1220 -0.0180
 9209TIP3    H151822   2.822   3.757   2.106  0.3311  1.6611 -1.8992
 9209TIP3    H251823   2.864   3.696   1.974 -0.0088 -1.3806 -0.6979
 9210TIP3   OH251824   1.404   0.738   8.414  0.2518  0.1618  0.1230
 9210TIP3    H151825   1.356   0.694   8.344 -0.5207  0.8173  0.2311
 9210TIP3    H251826   1.437   0.666   8.469  0.8535 -0.3537 -0.8898
 9211TIP3   OH251827   1.950   6.108   6.761  0.4219  0.0712  0.4532
 9211TIP3    H151828   1.920   6.197   6.778  1.9783  1.0206 -1.3223
 9211TIP3    H251829   2.044   6.117   6.744  1.2253 -2.3122  2.8959
 9212TIP3   OH251830   5.987   4.003   1.361  0.3096 -0.1609  0.3152
 9212TIP3    H151831   6.076   3.978   1.384  0.4980 -0.2454 -0.4886
 9212TIP3    H251832   5.969   3.957   1.279 -1.1144 -1.5759  1.3529
 9213TIP3   OH251833   5.316   0.001   2.617  0.1756 -0.3329 -0.0909
 9213TIP3    H151834   5.319   0.084   2.664 -2.2203 -0.6031  0.6987
 9213TIP3    H251835   5.407  -0.027   2.611  0.9814  2.0196  0.1721
 9214TIP3   OH251836   4.594   1.473   8.210 -0.0169  0.3904 -0.4068
 9214TIP3    H151837   4.623   1.436   8.293  1.3561 -0.4194 -1.2239
 9214TIP3    H251838   4.650   1.549   8.197 -1.1927  1.3821  0.0668
 9215TIP3   OH251839   2.705   2.358   9.183 -0.2124  0.1835 -0.1414
 9215TIP3    H151840   2.747   2.273   9.197  0.6767  0.8172  1.1891
 9215TIP3    H251841   2.760   2.402   9.118  0.2873  0.3821  0.4078
 9216TIP3   OH251842   6.342   1.356   8.972 -0.0319  0.2298  0.1104
 9216TIP3    H151843   6.410   1.289   8.964  0.5064  0.6326  1.1379
 9216TIP3    H251844   6.342   1.401   8.887  1.3769  0.5726  0.2657
 9217TIP3   OH251845   4.991   3.987   2.171 -0.2194  0.2761 -0.4040
 9217TIP3    H151846   4.976   4.067   2.222 -2.4049 -0.2146 -0.1636
 9217TIP3    H251847   5.021   3.923   2.234 -1.0777  0.1886 -0.0769
 9218TIP3   OH251848   0.503   2.841   9.080 -0.2194  0.7343 -0.3472
 9218TIP3    H151849   0.521   2.812   9.170 -2.2103 -0.7299 -0.3377
 9218TIP3    H251850   0.444   2.916   9.091 -0.3398  0.6502 -0.4152
 9219TIP3   OH251851   6.042   0.619   8.589  0.6481  0.0060  0.2255
 9219TIP3    H151852   5.959   0.597   8.546  1.2057  0.1239 -0.9696
 9219TIP3    H251853   6.025   0.606   8.682 -0.8552  0.5236  0.0513
 9220TIP3   OH251854   3.946   1.873   1.156  0.2290 -0.2855  0.6647
 9220TIP3    H151855   3.879   1.804   1.156  1.2031 -1.3064 -0.5908
 9220TIP3    H251856   4.024   1.830   1.190  0.8562  0.1862 -0.1474
 9221TIP3   OH251857   1.141   2.394   9.305 -0.0725  0.3785 -0.8053
 9221TIP3    H151858   1.061   2.399   9.357  1.5807 -0.7408  2.0753
 9221TIP3    H251859   1.116   2.341   9.229 -2.0347  0.0075  0.0245
 9222TIP3   OH251860   1.686   0.875   1.601 -0.1059 -0.2249  0.4029
 9222TIP3    H151861   1.741   0.798   1.614  0.9498  0.5883  0.9060
 9222TIP3    H251862   1.668   0.876   1.507 -0.8696 -1.5524  0.5105
 9223TIP3   OH251863   2.424   5.315   8.466 -0.0453  0.4312  0.1893
 9223TIP3    H151864   2.478   5.255   8.517 -0.2511  0.1853  0.1196
 9223TIP3    H251865   2.483   5.386   8.441  0.5663 -0.4685 -0.9728
 9224TIP3   OH251866   7.255   6.086   1.053 -0.1284 -0.5129  0.1904
 9224TIP3    H151867   7.311   6.009   1.054 -0.3321 -0.7914 -2.4555
 9224TIP3    H251868   7.315   6.158   1.033 -0.4991 -0.6490 -1.5327
 9225TIP3   OH251869   2.266   2.139   0.323 -0.2180  0.7713 -0.4277
 9225TIP3    H151870   2.182   2.098   0.303  0.1690  0.1737 -0.8539
 9225TIP3    H251871   2.289   2.107   0.410  0.3432 -0.3882 -0.9727
 9226TIP3   OH251872   3.314   7.158   8.938 -0.0029 -0.0420 -0.2307
 9226TIP3    H151873   3.240   7.157   8.877 -0.1387 -0.1859 -0.0628
 9226TIP3    H251874   3.291   7.094   9.005 -0.0124  0.3746  0.1634
 9227TIP3   OH251875   6.010   6.895   7.218  0.3115 -0.1876  0.1208
 9227TIP3    H151876   6.068   6.943   7.278  1.4465 -0.9543 -0.3278
 9227TIP3    H251877   6.012   6.805   7.251  0.0203 -0.3794 -0.3829
 9228TIP3   OH251878   0.317   6.495   7.230 -0.6191  0.0144 -0.8626
 9228TIP3    H151879   0.396   6.454   7.194  0.4306 -0.7414  2.0020
 9228TIP3    H251880   0.319   6.584   7.196  3.3875  1.1022  1.5469
 9229TIP3   OH251881   5.878   5.563   8.760 -0.4438  0.0197  0.0615
 9229TIP3    H151882   5.930   5.638   8.790 -0.1428 -0.6888  1.4095
 9229TIP3    H251883   5.943   5.502   8.724 -0.4145 -0.4865  0.9366
 9230TIP3   OH251884   4.510   4.672   0.110 -0.1516  0.1310 -0.6801
 9230TIP3    H151885   4.425   4.701   0.141 -0.4122  0.4008 -1.6101
 9230TIP3    H251886   4.559   4.752   0.094  1.1440 -0.0229  2.0610
 9231TIP3   OH251887   3.350   3.545   7.323  0.0010 -0.6218  0.6814
 9231TIP3    H151888   3.338   3.493   7.244  0.3189  0.4904 -0.1271
 9231TIP3    H251889   3.262   3.561   7.356 -0.1222 -1.2420  0.6511
 9232TIP3   OH251890   1.319   4.195   7.259  0.1310  0.5356 -0.2925
 9232TIP3    H151891   1.247   4.196   7.196  1.1369 -0.1460 -1.4926
 9232TIP3    H251892   1.356   4.283   7.256 -1.4476  1.3203  1.3380
 9233TIP3   OH251893   3.365   1.506   1.575 -0.1070 -0.2651 -0.5149
 9233TIP3    H151894   3.385   1.424   1.620  0.3519 -0.1795 -0.5579
 9233TIP3    H251895   3.331   1.479   1.489 -0.1456 -0.4113 -0.4541
 9234TIP3   OH251896   0.437   5.905   7.717 -0.0154  0.4344 -0.3135
 9234TIP3    H151897   0.389   5.984   7.692 -0.5775  0.1831 -0.0468
 9234TIP3    H251898   0.374   5.855   7.769  0.2470 -0.3192 -0.7206
 9235TIP3   OH251899   2.379   1.309   9.527  0.1353  0.0595 -0.3294
 9235TIP3    H151900   2.293   1.306   9.485 -0.2494 -0.5586  0.4884
 9235TIP3    H251901   2.408   1.400   9.515  0.2423 -0.1875 -2.2936
 9236TIP3   OH251902   6.239   6.240   7.214  0.0934 -0.1907 -0.4853
 9236TIP3    H151903   6.322   6.259   7.257 -0.7530 -1.0223  1.6489
 9236TIP3    H251904   6.174   6.243   7.285 -1.6516  0.0376 -2.0116
 9237TIP3   OH251905   4.885   6.788   0.811 -0.7736 -0.0506 -0.1507
 9237TIP3    H151906   4.901   6.870   0.858 -2.6181 -0.5791  1.5189
 9237TIP3    H251907   4.953   6.729   0.843 -0.5958  0.2853  0.1039
 9238TIP3   OH251908   5.008   4.222   9.050 -0.2214  0.3071  0.6915
 9238TIP3    H151909   4.940   4.194   9.110  1.3038  1.0808  2.9049
 9238TIP3    H251910   5.030   4.144   9.000 -1.2245 -0.4872  1.4475
 9239TIP3   OH251911   2.858   1.921   7.580 -0.1877  0.0385 -0.0484
 9239TIP3    H151912   2.875   1.971   7.501  0.4513 -0.8209 -0.4721
 9239TIP3    H251913   2.905   1.967   7.649 -0.9325  0.9192 -0.1163
 9240TIP3   OH251914   0.449   1.034   1.981 -0.2750 -0.4718 -0.4720
 9240TIP3    H151915   0.379   1.003   2.039  1.0953  1.9196  2.8093
 9240TIP3    H251916   0.529   0.993   2.016  0.3548 -0.8973 -2.3105
 9241TIP3   OH251917   6.341   1.872   0.531 -0.1006 -0.1803 -0.5192
 9241TIP3    H151918   6.365   1.935   0.463  1.0313 -1.4804 -1.3944
 9241TIP3    H251919   6.424   1.838   0.563 -0.6531 -2.2603 -1.1199
 9242TIP3   OH251920   5.234   1.531   8.579  0.0373 -0.6307  0.4886
 9242TIP3    H151921   5.292   1.560   8.508  0.9161 -0.4846  1.2442
 9242TIP3    H251922   5.148   1.522   8.538 -0.0194  1.8074 -0.0831
 9243TIP3   OH251923   2.846   6.874   0.144  0.2543  0.1746  0.3372
 9243TIP3    H151924   2.808   6.871   0.232 -0.7043  0.7238 -0.0371
 9243TIP3    H251925   2.817   6.793   0.102 -0.0642  0.3319  0.2416
 9244TIP3   OH251926   6.286   6.254   1.522 -0.5491 -0.4015 -0.3083
 9244TIP3    H151927   6.243   6.200   1.456  0.2340 -0.1503 -1.0524
 9244TIP3    H251928   6.325   6.191   1.583 -2.6701 -0.6366  0.9126
 9245TIP3   OH251929   1.055   4.299   0.181  0.0361 -0.0177 -0.5928
 9245TIP3    H151930   0.997   4.254   0.242 -0.0272 -0.0100 -0.6468
 9245TIP3    H251931   1.045   4.250   0.099  1.0631 -0.8025 -0.2728
 9246TIP3   OH251932   6.926   4.937   7.937  0.5503 -0.4737 -0.9732
 9246TIP3    H151933   6.843   4.953   7.893  1.4649  1.4797 -2.1313
 9246TIP3    H251934   6.933   5.007   8.002  0.9741 -1.0582 -0.3771
 9247TIP3   OH251935   5.653   6.223   1.444  0.4008  0.6812 -0.0009
 9247TIP3    H151936   5.681   6.141   1.485  0.3946  1.4920  1.6928
 9247TIP3    H251937   5.702   6.291   1.489 -1.0037  1.7643 -0.0318
 9248TIP3   OH251938   5.829   2.185   8.120 -0.3024  0.2593 -0.3333
 9248TIP3    H151939   5.866   2.101   8.147 -0.6487  0.8566  2.2364
 9248TIP3    H251940   5.811   2.175   8.027 -1.1009 -2.8116  0.0681
 9249TIP3   OH251941   4.636   3.541   7.943  0.1234 -0.3254  0.2456
 9249TIP3    H151942   4.578   3.573   8.013 -0.1450  0.6734 -0.4103
 9249TIP3    H251943   4.721   3.532   7.985 -0.7197 -3.1097  1.5802
 9250TIP3   OH251944   0.584   1.379   2.740 -0.4426  0.1764  0.7876
 9250TIP3    H151945   0.549   1.456   2.695  0.9196 -0.2377 -1.1204
 9250TIP3    H251946   0.677   1.398   2.752  0.0029 -1.2480 -0.0454
 9251TIP3   OH251947   6.890   6.376   6.537  0.0352  0.2810 -0.3187
 9251TIP3    H151948   6.911   6.284   6.551  0.2774  0.3230 -0.4017
 9251TIP3    H251949   6.975   6.418   6.522 -0.0476  0.5641 -0.0058
 9252TIP3   OH251950   1.835   6.894   7.707  0.1777  0.1362  0.3465
 9252TIP3    H151951   1.907   6.831   7.711  0.0057 -0.0035  2.1766
 9252TIP3    H251952   1.756   6.841   7.709  0.0323  0.3489  0.2923
 9253TIP3   OH251953   1.079   1.972   0.646  0.0016 -0.0928  0.3153
 9253TIP3    H151954   1.094   2.000   0.736 -1.0057  0.2803  0.3799
 9253TIP3    H251955   0.987   1.947   0.644  0.0384 -0.1818 -0.5889
 9254TIP3   OH251956   6.304   3.180   0.353 -0.3467  0.3206 -0.0508
 9254TIP3    H151957   6.318   3.102   0.407  1.3187  2.4276  2.8363
 9254TIP3    H251958   6.226   3.222   0.390 -1.2135  0.1552 -1.5620
 9255TIP3   OH251959   1.649   1.294   0.204 -0.0510  0.4797 -0.5546
 9255TIP3    H151960   1.589   1.349   0.154 -0.1893 -0.6278 -1.6673
 9255TIP3    H251961   1.725   1.283   0.147  0.2756  0.1045 -0.0598
 9256TIP3   OH251962   5.739   4.372   7.627 -0.1283  0.1356 -0.1787
 9256TIP3    H151963   5.813   4.402   7.575 -1.1106 -0.3819 -1.9386
 9256TIP3    H251964   5.666   4.426   7.598 -0.5985  0.2486  1.1321
 9257TIP3   OH251965   0.231   6.979   8.561 -0.1338  0.1986 -0.0851
 9257TIP3    H151966   0.313   7.027   8.547  1.2143 -2.3483 -1.8585
 9257TIP3    H251967   0.225   6.968   8.656  1.7060  0.2869  0.0748
 9258TIP3   OH251968   2.843   5.503   7.805  0.2147  0.2019 -0.2861
 9258TIP3    H151969   2.904   5.440   7.842  0.0339 -0.1091 -0.5074
 9258TIP3    H251970   2.832   5.569   7.873 -1.2033 -1.0802  0.8241
 9259TIP3   OH251971   6.030   4.877   9.579  0.3396 -0.4110  0.0313
 9259TIP3    H151972   5.958   4.879   9.516 -1.3505  2.5707  1.8160
 9259TIP3    H251973   6.020   4.793   9.623 -0.5609 -1.0843 -1.3789
 9260TIP3   OH251974   6.252   6.994   1.687 -0.1040 -0.0168 -0.0778
 9260TIP3    H151975   6.257   7.046   1.607  2.2057 -0.5357 -0.3472
 9260TIP3    H251976   6.329   7.019   1.737 -0.0645 -1.6252  0.7553
 9261TIP3   OH251977   7.355   3.845   2.493  0.6634 -0.6301  0.0738
 9261TIP3    H151978   7.391   3.905   2.557 -2.1047  1.3359 -0.0267
 9261TIP3    H251979   7.312   3.777   2.546  0.5723 -0.4273  0.2608
 9262TIP3   OH251980   3.459   3.479   8.516 -0.1907  0.4353 -0.3543
 9262TIP3    H151981   3.406   3.469   8.595  1.0243  1.5576  0.6252
 9262TIP3    H251982   3.400   3.522   8.454 -2.0736 -2.8403 -1.1103
 9263TIP3   OH251983   5.519   0.911   2.119 -0.0552  0.3382  0.0137
 9263TIP3    H151984   5.558   0.944   2.200 -1.8287  0.2254  0.9701
 9263TIP3    H251985   5.443   0.967   2.104 -1.5370 -1.5162  0.1404
 9264TIP3   OH251986   4.981   6.221   8.034  0.1113  0.0285  0.5419
 9264TIP3    H151987   4.951   6.169   7.959  0.3592 -0.6706  0.9229
 9264TIP3    H251988   5.075   6.201   8.041 -0.1736 -0.9889  1.8754
 9265TIP3   OH251989   1.933   7.401   8.124 -0.0212  0.3032  0.8695
 9265TIP3    H151990   2.024   7.421   8.146  0.1287  1.5445 -0.7257
 9265TIP3    H251991   1.939   7.338   8.052 -0.4870 -1.0581  1.9536
 9266TIP3   OH251992   3.203   3.833   8.473  0.6474  0.3145 -0.4014
 9266TIP3    H151993   3.206   3.760   8.411  0.2869 -0.2465  0.2321
 9266TIP3    H251994   3.293   3.841   8.505  0.7544  0.3617 -0.7089
 9267TIP3   OH251995   6.422   0.726   7.719  0.2649  0.1520  0.2771
 9267TIP3    H151996   6.334   0.761   7.738  0.7940  1.0164  1.2270
 9267TIP3    H251997   6.445   0.764   7.634 -0.7393 -1.0314 -0.5710
 9268TIP3   OH251998   4.447   2.704   1.745 -0.0903 -0.2379  0.1928
 9268TIP3    H151999   4.481   2.790   1.721 -1.4349  0.3089  0.1324
 9268TIP3    H252000   4.399   2.676   1.667 -0.8952 -0.3720  0.7321
 9269TIP3   OH252001   4.808   6.432   2.373  0.3661 -0.4250  0.5351
 9269TIP3    H152002   4.791   6.495   2.443  0.1219  0.4278 -0.2845
 9269TIP3    H252003   4.823   6.349   2.419 -0.0975  0.0570  1.5780
 9270TIP3   OH252004   0.814   0.454   6.788  0.1184  0.0751  0.4328
 9270TIP3    H152005   0.811   0.537   6.741 -0.6010  0.3838  0.9915
 9270TIP3    H252006   0.818   0.387   6.720 -1.7057  0.4722 -0.1262
 9271TIP3   OH252007   3.695   0.391   0.556  0.4655 -0.2455 -0.3925
 9271TIP3    H152008   3.758   0.462   0.570 -0.6250  0.4740  1.1991
 9271TIP3    H252009   3.747   0.311   0.557  1.7257  0.4862 -2.1867
 9272TIP3   OH252010   2.526   7.065   1.135 -0.7748  0.1091  0.1062
 9272TIP3    H152011   2.539   7.006   1.209  1.0630  0.4604  0.1034
 9272TIP3    H252012   2.599   7.047   1.076 -1.1502  1.1755 -0.7201
 9273TIP3   OH252013   1.669   7.146   8.141 -0.5268 -0.5235 -0.3152
 9273TIP3    H152014   1.686   7.067   8.089 -0.5587 -0.1041 -0.9744
 9273TIP3    H252015   1.574   7.148   8.151 -0.6609  0.1546 -1.4882
 9274TIP3   OH252016   5.002   1.532   8.031 -0.4464 -0.3964 -0.2373
 9274TIP3    H152017   5.075   1.470   8.037  0.3843  0.4571 -1.0809
 9274TIP3    H252018   4.976   1.530   7.939 -1.5730 -0.7586  0.0734
 9275TIP3   OH252019   6.136   1.127   1.043 -0.6451  0.4160 -0.0316
 9275TIP3    H152020   6.153   1.034   1.030 -2.5420  0.0285  0.1197
 9275TIP3    H252021   6.075   1.131   1.116 -1.3068  1.7104 -0.6170
 9276TIP3   OH252022   2.459   6.708   0.701 -0.0417  0.0326  0.5060
 9276TIP3    H152023   2.418   6.656   0.631  0.9111 -0.2641  0.1345
 9276TIP3    H252024   2.403   6.784   0.712 -0.7260 -0.4047  0.0872
 9277TIP3   OH252025   5.341   1.577   9.156  0.1585  0.3341  0.6569
 9277TIP3    H152026   5.376   1.664   9.140  0.4029  0.1631  0.2433
 9277TIP3    H252027   5.412   1.518   9.134 -0.7996 -0.0877 -1.6059
 9278TIP3   OH252028   6.454   0.445   7.727 -0.7219  0.5188  0.2985
 9278TIP3    H152029   6.378   0.410   7.680 -0.8453 -0.2982  1.0655
 9278TIP3    H252030   6.450   0.539   7.714 -0.6491  0.3139 -1.4627
 9279TIP3   OH252031   7.189   5.330   0.846  0.1519  0.1205 -0.2377
 9279TIP3    H152032   7.170   5.238   0.866  1.4816 -0.2095 -0.4312
 9279TIP3    H252033   7.103   5.373   0.850 -0.3249 -0.8844  1.0602
 9280TIP3   OH252034   3.538   6.552   0.100  0.1783  0.2690  0.7507
 9280TIP3    H152035   3.583   6.476   0.063  0.9707  0.9654  0.2427
 9280TIP3    H252036   3.592   6.578   0.175 -1.8720 -1.6677  3.0889
 9281TIP3   OH252037   0.412   5.514   7.936  0.1222 -1.1362  0.2849
 9281TIP3    H152038   0.405   5.460   7.857 -1.4479  1.5332 -1.5763
 9281TIP3    H252039   0.344   5.480   7.995 -1.6244 -0.5732 -1.3067
 9282TIP3   OH252040   4.849   3.415   1.059  0.4472  0.2118 -0.4537
 9282TIP3    H152041   4.787   3.342   1.060  1.2094 -0.5389  2.5438
 9282TIP3    H252042   4.931   3.377   1.027  1.2510 -0.7708  2.4793
 9283TIP3   OH252043   5.271   2.018   8.988 -0.2548 -0.2859 -0.0176
 9283TIP3    H152044   5.239   1.945   8.935 -0.2199 -0.1191 -0.2732
 9283TIP3    H252045   5.205   2.030   9.056  0.8256 -2.0144  1.4265
 9284TIP3   OH252046   4.590   4.158   9.327 -0.2156  0.1565  0.4678
 9284TIP3    H152047   4.527   4.099   9.368 -1.2341  1.3210  0.6309
 9284TIP3    H252048   4.611   4.223   9.395  3.0436 -1.5011  1.2628
 9285TIP3   OH252049   0.980   6.753   2.450  0.2916 -0.1405 -0.2769
 9285TIP3    H152050   1.003   6.834   2.496  2.4754 -1.1829  0.6178
 9285TIP3    H252051   0.923   6.782   2.379 -1.0795  1.8527  1.4811
 9286TIP3   OH252052   1.363   2.769   0.906  0.7037  0.3571 -0.2167
 9286TIP3    H152053   1.374   2.714   0.983 -1.1537 -0.9781 -0.8411
 9286TIP3    H252054   1.452   2.776   0.869  1.5392  0.6687  1.7501
 9287TIP3   OH252055   1.741   1.850   8.620 -0.1159  0.2373 -0.0439
 9287TIP3    H152056   1.782   1.900   8.691  2.9416 -1.3932 -0.4928
 9287TIP3    H252057   1.694   1.780   8.666  1.4393 -0.5227  0.4692
 9288TIP3   OH252058   3.896   6.476   8.503 -0.4628  0.1938  0.3596
 9288TIP3    H152059   3.886   6.399   8.447 -1.5011  2.8659 -3.6314
 9288TIP3    H252060   3.968   6.454   8.562  0.3972 -3.1969 -1.6814
 9289TIP3   OH252061   5.299   1.185   2.631  0.0485  0.0786 -0.4318
 9289TIP3    H152062   5.365   1.232   2.682 -0.7690  1.3691 -0.5094
 9289TIP3    H252063   5.234   1.252   2.608 -0.1980 -0.6924 -2.1894
 9290TIP3   OH252064   1.740   0.694   0.665  0.8349  0.1305  0.0013
 9290TIP3    H152065   1.789   0.613   0.648  0.7970  0.2438 -0.6566
 9290TIP3    H252066   1.803   0.764   0.647  0.4575  0.2738 -0.7507
 9291TIP3   OH252067   1.524   4.897   1.406 -0.1607  0.0235  0.2362
 9291TIP3    H152068   1.448   4.955   1.410  0.8589  1.3669  1.2020
 9291TIP3    H252069   1.580   4.935   1.337 -0.8802 -1.6683 -1.3430
 9292TIP3   OH252070   3.727   6.250   8.396 -0.5635  0.2453 -0.3469
 9292TIP3    H152071   3.666   6.317   8.427 -1.4666  0.4223 -2.3123
 9292TIP3    H252072   3.675   6.196   8.336  0.1741 -2.1964  1.0770
 9293TIP3   OH252073   2.160   1.189   6.910  1.1790  0.1106 -0.4062
 9293TIP3    H152074   2.107   1.241   6.971  2.5908  0.2661  0.7493
 9293TIP3    H252075   2.097   1.130   6.868  0.0728  0.3326  0.8534
 9294TIP3   OH252076   6.456   2.191   6.297 -0.1039  0.6426  0.5831
 9294TIP3    H152077   6.528   2.208   6.357  1.2761 -0.5832 -0.6318
 9294TIP3    H252078   6.441   2.097   6.304 -1.9220  0.9418  1.1433
 9295TIP3   OH252079   5.588   0.013   1.779 -0.2206 -0.4038 -1.1591
 9295TIP3    H152080   5.589  -0.082   1.772 -0.0509 -0.5248  0.2686
 9295TIP3    H252081   5.522   0.032   1.845  0.1952  0.4325 -0.9643
 9296TIP3   OH252082   5.184   2.431   7.618 -0.1651 -0.2271 -0.0946
 9296TIP3    H152083   5.129   2.384   7.555  1.6763 -1.6068 -0.7602
 9296TIP3    H252084   5.205   2.366   7.685  1.4913 -0.0747 -0.4197
 9297TIP3   OH252085   1.980   3.047   7.408 -0.3196 -0.9928  0.4516
 9297TIP3    H152086   2.043   3.075   7.342 -0.4747  1.1148  1.1044
 9297TIP3    H252087   1.904   3.017   7.358 -0.5591  0.8547 -0.4030
 9298TIP3   OH252088   4.309   2.693   1.515 -0.0933 -0.0050 -0.1565
 9298TIP3    H152089   4.228   2.675   1.562 -0.0939 -3.6107 -1.2182
 9298TIP3    H252090   4.282   2.745   1.439 -1.0188  0.7077  0.6447
 9299TIP3   OH252091   3.689   4.893   1.989 -0.5638 -0.4910 -0.4799
 9299TIP3    H152092   3.773   4.910   2.032 -0.7342  0.3499 -0.4595
 9299TIP3    H252093   3.712   4.848   1.908 -0.2191 -1.8831  0.3686
 9300TIP3   OH252094   0.089   7.319   1.988 -0.4777  0.6183 -0.1671
 9300TIP3    H152095  -0.002   7.348   1.995 -1.2430 -1.2825 -1.4104
 9300TIP3    H252096   0.123   7.324   2.077 -2.5624 -0.9268  0.7781
 9301TIP3   OH252097   1.678   7.173   9.032 -0.7163 -0.5418 -0.0936
 9301TIP3    H152098   1.716   7.198   8.948 -0.9449 -2.1072 -0.6847
 9301TIP3    H252099   1.595   7.221   9.036 -0.0190  0.6895 -0.0709
 9302TIP3   OH252100   2.933   6.992   7.726 -0.3625  0.4241 -0.3040
 9302TIP3    H152101   3.005   6.959   7.673 -0.9459 -1.6833  0.1339
 9302TIP3    H252102   2.973   7.016   7.810 -0.0950 -0.4085 -0.1850
 9303TIP3   OH252103   0.750   5.464   0.767  0.2327  0.1650  0.1006
 9303TIP3    H152104   0.707   5.545   0.792 -0.8659 -0.7614  1.4161
 9303TIP3    H252105   0.825   5.491   0.714 -0.6736  1.9603 -0.3474
 9304TIP3   OH252106   3.291   2.569   1.304  0.2773  0.1427  0.3662
 9304TIP3    H152107   3.350   2.570   1.380 -0.0994  0.2084  0.6577
 9304TIP3    H252108   3.227   2.500   1.324  0.2259  0.1039  0.0698
 9305TIP3   OH252109   7.418   2.840   8.461 -0.9338 -0.1060 -0.5233
 9305TIP3    H152110   7.435   2.800   8.547  0.0124  1.2221 -0.0541
 9305TIP3    H252111   7.504   2.864   8.428 -1.2076 -1.3228 -2.2501
 9306TIP3   OH252112   3.909   1.322   2.573  0.1512  0.2703 -0.6620
 9306TIP3    H152113   3.964   1.244   2.571 -1.1646 -0.6885 -1.9186
 9306TIP3    H252114   3.971   1.395   2.574  1.5400 -0.7129 -3.3161
 9307TIP3   OH252115   6.506   7.202   1.592  0.7579  0.1043  0.4198
 9307TIP3    H152116   6.473   7.208   1.682  0.1330  0.5785  0.1660
 9307TIP3    H252117   6.564   7.126   1.593 -1.4927 -1.7348  0.5239
 9308TIP3   OH252118   6.504   0.287   8.969  0.2629  0.3383 -0.1505
 9308TIP3    H152119   6.435   0.221   8.967 -1.2845  1.8899 -0.3733
 9308TIP3    H252120   6.503   0.321   9.059  1.7564 -0.5962  0.2625
 9309TIP3   OH252121   4.124   4.422   7.673  0.7369 -0.4538 -0.0614
 9309TIP3    H152122   4.198   4.436   7.614  0.5252 -0.1599 -0.2580
 9309TIP3    H252123   4.081   4.343   7.639  1.1841 -0.8586  0.2887
 9310TIP3   OH252124   0.097   6.423   7.383  0.7051  0.1286 -0.1158
 9310TIP3    H152125   0.176   6.457   7.343  1.5395  0.0685  1.3954
 9310TIP3    H252126   0.115   6.425   7.477 -1.4072  0.9635  0.3464
 9311TIP3   OH252127   4.586   1.945   1.431 -0.6477  0.0503 -0.3162
 9311TIP3    H152128   4.561   1.968   1.342  0.3862 -0.0477 -0.6419
 9311TIP3    H252129   4.634   2.021   1.463 -0.5049 -0.1504 -0.0538
 9312TIP3   OH252130   2.584   2.189   3.175 -0.5937  0.0472 -0.2180
 9312TIP3    H152131   2.643   2.195   3.100 -0.9839  0.3662 -0.5007
 9312TIP3    H252132   2.556   2.097   3.176 -1.8594  0.3907 -1.4513
 9313TIP3   OH252133   4.420   0.469   1.032 -0.3712  0.3527 -0.3735
 9313TIP3    H152134   4.503   0.481   0.987  0.0520 -0.4276  0.1854
 9313TIP3    H252135   4.388   0.383   1.002 -1.1627  0.8026 -0.8693
 9314TIP3   OH252136   1.500   5.338   0.351  0.4148 -0.4480 -0.9141
 9314TIP3    H152137   1.584   5.293   0.342  1.1452  0.9442 -1.4005
 9314TIP3    H252138   1.436   5.280   0.310  1.5698 -0.3596 -2.9898
 9315TIP3   OH252139   0.677   1.260   7.468 -0.0186 -0.3753 -0.4739
 9315TIP3    H152140   0.695   1.325   7.536  0.8743 -0.7334 -0.3515
 9315TIP3    H252141   0.661   1.179   7.516  1.5709 -0.8534 -0.6897
 9316TIP3   OH252142   1.677   0.861   7.238 -0.1951  0.2823  0.3373
 9316TIP3    H152143   1.743   0.920   7.200  0.5199 -1.3247 -1.0711
 9316TIP3    H252144   1.593   0.899   7.212  0.2146  1.1809  0.2784
 9317TIP3   OH252145   1.253   0.060   2.128  0.0843  0.6562 -0.6778
 9317TIP3    H152146   1.327  -0.000   2.126  1.1178  1.8658 -2.6520
 9317TIP3    H252147   1.177   0.005   2.144  1.0104 -1.1568 -2.1899
 9318TIP3   OH252148   5.206   4.849   0.351 -0.5373 -0.3505 -0.1070
 9318TIP3    H152149   5.172   4.917   0.292 -1.6705 -1.6634 -1.0122
 9318TIP3    H252150   5.186   4.881   0.439  0.9974  1.5476 -0.3771
 9319TIP3   OH252151   0.252   4.089   0.514  0.0836 -0.3182  0.4659
 9319TIP3    H152152   0.307   4.011   0.523 -1.1119 -1.0870  1.4381
 9319TIP3    H252153   0.239   4.098   0.420  0.1559 -1.3682  0.3391
 9320TIP3   OH252154   6.886   4.641   2.218  0.1125 -0.0621  0.1913
 9320TIP3    H152155   6.836   4.592   2.153 -0.3604  0.4460  0.1689
 9320TIP3    H252156   6.939   4.702   2.165  1.4072 -1.1625  0.1583
 9321TIP3   OH252157   3.273   1.860   2.382  0.0648  0.0314  0.2955
 9321TIP3    H152158   3.310   1.824   2.462  2.3025  1.2927 -0.1183
 9321TIP3    H252159   3.238   1.945   2.408 -1.0795 -0.4194  0.3127
 9322TIP3   OH252160   4.051   3.185   0.119 -0.8755 -0.4254  0.1365
 9322TIP3    H152161   4.106   3.207   0.044 -0.4457 -3.0467 -0.4158
 9322TIP3    H252162   4.076   3.248   0.187  1.8629 -0.6726 -0.5501
 9323TIP3   OH252163   0.520   5.670   6.986  0.0071 -0.0387  0.4818
 9323TIP3    H152164   0.456   5.687   6.917 -0.6835 -1.5394  0.7172
 9323TIP3    H252165   0.602   5.706   6.952 -1.1924  3.4150  0.8295
 9324TIP3   OH252166   0.450   0.870   2.541  0.2942  0.2035 -0.8041
 9324TIP3    H152167   0.504   0.808   2.591 -1.1009 -0.0684  0.4716
 9324TIP3    H252168   0.502   0.891   2.464  1.9981 -0.3970  0.1191
 9325TIP3   OH252169   3.049   3.562   9.308 -0.3385  0.0345 -0.4132
 9325TIP3    H152170   3.056   3.653   9.280  0.0608  0.3181  0.5821
 9325TIP3    H252171   3.129   3.521   9.274 -0.3638  0.1238 -0.5834
 9326TIP3   OH252172   6.023   2.628   1.311  0.1466  0.0430 -0.1510
 9326TIP3    H152173   6.067   2.628   1.396  0.7735  0.5641 -0.4668
 9326TIP3    H252174   6.031   2.718   1.279  1.6152 -0.5674 -1.6183
 9327TIP3   OH252175   3.369   7.247   1.813  0.0676  0.2977  0.2857
 9327TIP3    H152176   3.340   7.224   1.725 -1.4224 -0.2322  0.8742
 9327TIP3    H252177   3.378   7.163   1.858  0.8627  0.5603  0.6267
 9328TIP3   OH252178   5.013   0.705   1.330  0.4493 -0.2106 -0.1554
 9328TIP3    H152179   5.105   0.728   1.338  0.3186 -0.1198  1.4207
 9328TIP3    H252180   5.011   0.610   1.339  0.4542 -0.2853 -0.9268
 9329TIP3   OH252181   6.108   4.671   9.044 -0.2264 -0.6157  0.0697
 9329TIP3    H152182   6.100   4.581   9.012 -0.7702 -1.5695  2.6786
 9329TIP3    H252183   6.020   4.694   9.075  0.1789  0.3557  0.5446
 9330TIP3   OH252184   1.202   6.598   1.808 -0.2308 -0.2478 -0.8268
 9330TIP3    H152185   1.289   6.638   1.799 -0.8398  0.5914 -3.8586
 9330TIP3    H252186   1.141   6.667   1.783 -1.7047 -1.2639 -0.1370
 9331TIP3   OH252187   3.802   4.036   2.728  0.5231 -0.2599 -1.2105
 9331TIP3    H152188   3.758   4.086   2.797 -1.9762 -2.2256 -1.2238
 9331TIP3    H252189   3.851   3.969   2.775  2.1254  0.8332 -1.2660
 9332TIP3   OH252190   6.283   6.257   7.966 -0.1702  0.0377  0.4483
 9332TIP3    H152191   6.326   6.210   7.894  0.0431 -0.6783  1.0177
 9332TIP3    H252192   6.191   6.235   7.958  0.0105 -1.0450  1.0892
 9333TIP3   OH252193   1.828   3.565   7.627 -1.0137 -0.1174 -0.3156
 9333TIP3    H152194   1.812   3.546   7.720 -0.2435 -0.0504 -0.1637
 9333TIP3    H252195   1.817   3.481   7.583  2.3533 -1.0577  0.3471
 9334TIP3   OH252196   3.793   4.733   8.067  0.0831 -0.1243  0.2021
 9334TIP3    H152197   3.742   4.776   8.136 -1.7633 -0.3140 -0.9828
 9334TIP3    H252198   3.839   4.805   8.023  0.4115  0.1147  0.9065
 9335TIP3   OH252199   0.105   3.001   0.742 -0.2758  0.2423  0.0289
 9335TIP3    H152200   0.054   2.993   0.662 -1.7297 -1.7606  1.0933
 9335TIP3    H252201   0.094   3.093   0.768 -1.2620  0.4673 -1.0998
 9336TIP3   OH252202   5.735   1.204   0.275  0.0818 -0.5026  0.2828
 9336TIP3    H152203   5.782   1.278   0.315  0.7586 -1.0560  0.5409
 9336TIP3    H252204   5.664   1.244   0.226 -1.0958  0.1769  2.4452
 9337TIP3   OH252205   3.999   5.533   2.553  0.4871  0.0050 -0.2630
 9337TIP3    H152206   4.025   5.441   2.552  1.4044  0.1803 -3.1105
 9337TIP3    H252207   4.010   5.560   2.644 -0.6629 -2.8740  0.8773
 9338TIP3   OH252208   5.002   2.489   0.067  0.4128  0.0029 -0.0897
 9338TIP3    H152209   4.996   2.493  -0.029 -0.1447 -0.1745 -0.0672
 9338TIP3    H252210   4.928   2.542   0.098 -1.0501 -2.0693  0.2111
 9339TIP3   OH252211   7.009   7.021   1.735  0.0787 -0.1003  0.2256
 9339TIP3    H152212   7.070   6.979   1.675 -0.2311  0.1239 -0.2539
 9339TIP3    H252213   6.986   6.953   1.799  1.0135 -0.1117  0.5596
 9340TIP3   OH252214   6.199   0.569   7.415  0.3427 -0.9680  0.5336
 9340TIP3    H152215   6.227   0.655   7.382 -0.3250 -0.8656  0.2155
 9340TIP3    H252216   6.195   0.514   7.337 -1.8357 -0.5642  0.3035
 9341TIP3   OH252217   3.354   1.359   0.261  0.0734 -0.3791 -0.1214
 9341TIP3    H152218   3.354   1.294   0.191 -0.6874  0.4823 -0.9519
 9341TIP3    H252219   3.413   1.428   0.230  0.2453 -0.2883  0.3887
 9342TIP3   OH252220   5.304   3.931   9.665 -0.0640  0.9447  0.0906
 9342TIP3    H152221   5.271   3.997   9.605 -0.3710 -0.9753 -1.9586
 9342TIP3    H252222   5.399   3.930   9.651  0.0051  1.2661  0.4965
 9343TIP3   OH252223   5.478   0.547   7.047 -0.2279  0.4479  0.6303
 9343TIP3    H152224   5.516   0.505   6.970 -0.3887  2.6822 -0.7308
 9343TIP3    H252225   5.548   0.545   7.112  0.6697  0.5100 -0.3145
 9344TIP3   OH252226   0.879   3.984   8.972  0.1041 -0.2363 -0.8783
 9344TIP3    H152227   0.869   4.038   9.051 -2.4343 -0.5384 -0.9338
 9344TIP3    H252228   0.966   3.944   8.982  0.5941  1.1127  0.8634
 9345TIP3   OH252229   1.870   2.644   0.853 -0.7717  0.3450  0.2189
 9345TIP3    H152230   1.952   2.669   0.894 -0.9279  0.1720  0.6462
 9345TIP3    H252231   1.886   2.557   0.816 -1.0045 -0.0534  1.0337
 9346TIP3   OH252232   4.747   2.005   2.022  0.6209 -0.1529  0.4350
 9346TIP3    H152233   4.673   1.988   2.080  0.0092 -1.5980 -0.6898
 9346TIP3    H252234   4.771   2.096   2.039 -1.0048  0.1519  1.2967
 9347TIP3   OH252235   7.353   0.920   2.545  0.1223  0.2844  0.1061
 9347TIP3    H152236   7.409   0.997   2.533  0.4940 -0.1914 -1.4773
 9347TIP3    H252237   7.280   0.952   2.597  1.9479  0.8585  2.4801
 9348TIP3   OH252238   0.627   4.930   2.763  0.1208  0.6017  0.0817
 9348TIP3    H152239   0.542   4.923   2.720 -1.0439  3.0442  1.7571
 9348TIP3    H252240   0.606   4.945   2.855  2.4787 -2.2169  1.2504
 9349TIP3   OH252241   4.604   4.688   0.430  0.1283 -0.4632 -0.0443
 9349TIP3    H152242   4.606   4.592   0.440  1.9831 -0.3820  0.8424
 9349TIP3    H252243   4.666   4.705   0.359  0.3209  0.1261  0.2664
 9350TIP3   OH252244   6.899   1.083   6.789 -0.2353  0.2867 -0.2743
 9350TIP3    H152245   6.983   1.090   6.744  0.5976 -2.2483  0.7110
 9350TIP3    H252246   6.836   1.064   6.720  0.5039 -0.5993 -0.7266
 9351TIP3   OH252247   6.152   3.881   8.159  0.1121  0.0661  0.3587
 9351TIP3    H152248   6.066   3.875   8.200 -0.4738  1.4928 -0.5978
 9351TIP3    H252249   6.164   3.797   8.115 -1.4180  0.3508 -0.6717
 9352TIP3   OH252250   7.093   2.041   0.197  0.4857  0.2479 -0.0426
 9352TIP3    H152251   7.164   2.049   0.133 -0.1851 -1.1999 -1.0234
 9352TIP3    H252252   7.047   1.961   0.171 -1.3134  0.9825  0.7626
 9353TIP3   OH252253   0.910   6.156   8.262  0.3064 -0.1381  0.1880
 9353TIP3    H152254   0.883   6.187   8.349 -1.8000  0.9312 -0.7762
 9353TIP3    H252255   0.828   6.143   8.215  1.4086 -0.8232 -1.6274
 9354TIP3   OH252256   4.972   3.993   8.898 -0.3953 -0.1749 -0.4561
 9354TIP3    H152257   4.943   3.939   8.825 -0.3199 -0.4918 -0.2557
 9354TIP3    H252258   5.013   3.931   8.959 -1.9123 -0.1612  0.6234
 9355TIP3   OH252259   1.115   2.366   8.280  0.1666  0.7561 -0.4943
 9355TIP3    H152260   1.058   2.298   8.242  1.9394 -0.6998 -0.6572
 9355TIP3    H252261   1.143   2.329   8.363 -0.5776  2.2792  0.4778
 9356TIP3   OH252262   5.364   4.430   8.285 -0.4854  0.3913  0.4073
 9356TIP3    H152263   5.421   4.421   8.362  0.8931 -1.5680 -0.7462
 9356TIP3    H252264   5.385   4.516   8.249  2.5798 -0.6288 -0.5299
 9357TIP3   OH252265   0.596   3.618   7.189  0.2823 -0.4281  0.2017
 9357TIP3    H152266   0.642   3.702   7.189  1.3672 -0.9474 -2.1058
 9357TIP3    H252267   0.627   3.574   7.268  0.3593  0.9691  0.9812
 9358TIP3   OH252268   2.931   2.451   0.386 -0.1327  0.0006 -0.0438
 9358TIP3    H152269   2.952   2.473   0.295 -1.4792  0.5913 -0.2251
 9358TIP3    H252270   3.004   2.488   0.436 -0.3497  1.4187 -0.7129
 9359TIP3   OH252271   6.772   2.633   7.997 -0.7930  0.1776  0.9076
 9359TIP3    H152272   6.863   2.614   7.977 -1.1973 -0.7507 -0.1488
 9359TIP3    H252273   6.771   2.645   8.092  0.4829  0.5880  0.8910
 9360TIP3   OH252274   2.999   3.774   7.215  0.3862  0.0290 -0.1012
 9360TIP3    H152275   3.064   3.765   7.285 -0.1002 -0.4622  0.2951
 9360TIP3    H252276   2.957   3.858   7.232  0.9201  0.3559 -0.3682
 9361TIP3   OH252277   5.969   1.290   0.026 -0.0042 -0.1283  0.2408
 9361TIP3    H152278   6.046   1.234   0.016  1.3369  1.7336 -0.3757
 9361TIP3    H252279   5.895   1.234   0.001  1.4175 -1.1512 -1.9540
 9362TIP3   OH252280   4.741   6.633   8.008 -0.2167  0.3826 -0.3735
 9362TIP3    H152281   4.726   6.726   8.029  0.5214 -0.0775  2.7789
 9362TIP3    H252282   4.837   6.625   8.006 -0.2751 -0.3165 -0.5935
 9363TIP3   OH252283   6.958   4.032   7.345  0.2233  0.5552  0.2692
 9363TIP3    H152284   6.894   4.020   7.274  0.4391  1.6796 -0.1439
 9363TIP3    H252285   6.923   4.104   7.397  1.9333  2.3889 -0.9535
 9364TIP3   OH252286   0.944   1.639   0.603  0.3449 -0.2047 -0.0156
 9364TIP3    H152287   0.875   1.576   0.581 -0.7574  0.5057  1.2320
 9364TIP3    H252288   1.009   1.630   0.533 -0.1841 -2.1151 -0.3230
 9365TIP3   OH252289   4.742   0.692   8.109 -0.6097 -0.3259 -0.2101
 9365TIP3    H152290   4.710   0.750   8.040 -0.1583 -0.0669 -0.2030
 9365TIP3    H252291   4.832   0.720   8.124 -0.0816 -1.5923 -0.8397
 9366TIP3   OH252292   1.211   0.571   8.686  0.0671 -0.6762 -0.0637
 9366TIP3    H152293   1.252   0.597   8.768  0.6887  3.1623 -1.3919
 9366TIP3    H252294   1.279   0.524   8.638  0.1902 -1.5435  0.9249
 9367TIP3   OH252295   2.856   0.769   8.118 -0.2635  0.2849  0.0925
 9367TIP3    H152296   2.812   0.841   8.073 -1.9127 -0.5487  0.3098
 9367TIP3    H252297   2.928   0.745   8.059 -0.7123  1.0176 -0.7806
 9368TIP3   OH252298   0.842   3.133   1.372  0.3680 -0.5403  0.4487
 9368TIP3    H152299   0.932   3.148   1.399  0.3470  1.3003 -0.3852
 9368TIP3    H252300   0.849   3.084   1.290  0.6856  0.9766 -0.4544
 9369TIP3   OH252301   5.270   2.555   7.370 -0.0957  0.4691  0.6515
 9369TIP3    H152302   5.283   2.489   7.302 -0.1091  1.7493 -0.6450
 9369TIP3    H252303   5.262   2.505   7.451  0.3674 -1.0793 -0.2188
 9370TIP3   OH252304   7.039   1.957   8.052 -0.5141  0.2794 -0.4594
 9370TIP3    H152305   7.011   1.924   8.137 -0.4661  0.4110 -0.3923
 9370TIP3    H252306   7.009   2.048   8.051  2.2331  1.2966  0.7130
 9371TIP3   OH252307   0.804   4.649   8.738 -0.5336 -0.0283 -0.1933
 9371TIP3    H152308   0.729   4.590   8.728 -0.3635 -0.3746  0.5158
 9371TIP3    H252309   0.791   4.716   8.671 -1.6364  0.0917  0.1214
 9372TIP3   OH252310   4.946   1.009   0.035  0.1963  0.2731  0.2810
 9372TIP3    H152311   4.874   0.954   0.067  0.8681 -0.8008  0.0126
 9372TIP3    H252312   4.937   1.091   0.084 -0.2518 -0.4327  1.4424
 9373TIP3   OH252313   6.548   2.279   8.880 -0.1294  0.0587 -0.0187
 9373TIP3    H152314   6.556   2.370   8.853  1.6961 -0.3664 -1.0383
 9373TIP3    H252315   6.635   2.255   8.912 -0.2155 -1.6798 -0.9577
 9374TIP3   OH252316   0.624   4.444   8.566  0.3236  0.1634 -0.2518
 9374TIP3    H152317   0.537   4.475   8.593  0.4205 -0.9664  1.5586
 9374TIP3    H252318   0.630   4.355   8.602  2.1393  0.1301 -0.5399
 9375TIP3   OH252319   4.071   6.383   7.461 -0.2132 -0.3556  0.1348
 9375TIP3    H152320   4.057   6.352   7.550 -0.6914 -0.5048  0.0108
 9375TIP3    H252321   4.049   6.476   7.464  1.4768  0.0703  0.5676
 9376TIP3   OH252322   3.780   5.458   7.219 -0.0244 -0.2435 -0.5916
 9376TIP3    H152323   3.781   5.419   7.306  3.4914  0.2262 -0.2866
 9376TIP3    H252324   3.762   5.385   7.160 -0.5594 -0.9346  0.3950
 9377TIP3   OH252325   3.219   0.618   1.814 -0.1754 -0.4423 -0.0962
 9377TIP3    H152326   3.155   0.551   1.836  1.2295 -1.7983  0.0085
 9377TIP3    H252327   3.303   0.572   1.813  1.0983  1.6529  1.7182
 9378TIP3   OH252328   1.951   0.507   8.540 -0.7057  0.1993 -0.0517
 9378TIP3    H152329   2.027   0.535   8.591 -0.3779 -0.2718 -0.2731
 9378TIP3    H252330   1.961   0.551   8.456 -1.6796  1.6241  0.5588
 9379TIP3   OH252331   1.024   1.161   9.094  0.1224 -0.3245  0.2180
 9379TIP3    H152332   0.988   1.103   9.161 -2.1614  0.8084  0.0785
 9379TIP3    H252333   0.950   1.179   9.036  0.6604  2.7393  0.2839
 9380TIP3   OH252334   3.788   7.086   0.316  0.3409 -0.4404  0.4306
 9380TIP3    H152335   3.823   7.039   0.240 -0.7451 -2.2807  1.0008
 9380TIP3    H252336   3.696   7.099   0.296 -0.2316 -1.9719  1.8696
 9381TIP3   OH252337   7.266   1.157   9.495  0.2448 -0.2259  0.3778
 9381TIP3    H152338   7.185   1.185   9.538 -0.3709  0.2431 -1.0026
 9381TIP3    H252339   7.311   1.238   9.472  1.3194 -0.4906  1.4766
 9382TIP3   OH252340   1.568   4.014   2.295 -0.2984 -0.1322  0.0377
 9382TIP3    H152341   1.472   4.010   2.304 -0.2574  0.0714  0.6475
 9382TIP3    H252342   1.599   3.941   2.349 -0.0412  0.9589  1.4278
 9383TIP3   OH252343   1.015   6.682   9.547  0.4486 -0.0390 -0.2386
 9383TIP3    H152344   0.970   6.752   9.596 -1.0565 -1.8368  1.0954
 9383TIP3    H252345   1.108   6.696   9.565  0.0941  0.8891  1.0274
 9384TIP3   OH252346   3.603   4.875   8.202  0.0969 -0.4671 -0.0654
 9384TIP3    H152347   3.515   4.913   8.213  0.3876  0.0768  0.4360
 9384TIP3    H252348   3.619   4.828   8.283  1.3977  1.7980  1.0796
 9385TIP3   OH252349   0.312   2.807   8.615  0.9936 -0.5847  0.0399
 9385TIP3    H152350   0.286   2.859   8.691  1.9308  0.3012 -0.2191
 9385TIP3    H252351   0.297   2.717   8.642 -1.1224 -0.1990  0.3266
 9386TIP3   OH252352   5.524   1.407   9.029 -0.2031 -0.1093 -0.3613
 9386TIP3    H152353   5.619   1.394   9.022 -0.2020 -0.3500  0.0364
 9386TIP3    H252354   5.489   1.378   8.945  0.0144 -0.6536 -0.2642
 9387TIP3   OH252355   2.546   4.396   7.119  0.3770  0.4940 -0.3489
 9387TIP3    H152356   2.511   4.383   7.031 -2.3828 -1.5548  0.9031
 9387TIP3    H252357   2.640   4.377   7.111  0.1770  0.2406 -2.7946
 9388TIP3   OH252358   0.359   4.305   9.413  0.4623 -0.2904  0.2487
 9388TIP3    H152359   0.396   4.217   9.423 -0.0654 -0.6394 -0.6886
 9388TIP3    H252360   0.339   4.333   9.502  0.1139 -1.3583  0.5221
 9389TIP3   OH252361   4.153   0.585   7.379  0.0816 -0.0658  0.0723
 9389TIP3    H152362   4.226   0.642   7.356  0.4413 -0.0131  1.2699
 9389TIP3    H252363   4.114   0.560   7.295  3.0946 -2.2502 -0.8300
 9390TIP3   OH252364   5.255   0.273   8.259  0.1898 -0.0471 -0.5244
 9390TIP3    H152365   5.298   0.292   8.175  1.7738 -0.0308  0.2498
 9390TIP3    H252366   5.204   0.352   8.278  0.6958  0.3926 -0.9571
 9391TIP3   OH252367   3.954   2.691   8.742 -0.4209  0.0480  0.0236
 9391TIP3    H152368   4.010   2.724   8.813  0.6563 -0.0998 -0.7331
 9391TIP3    H252369   3.957   2.596   8.752 -0.1517  0.0212 -0.2991
 9392TIP3   OH252370   4.393   3.065   0.623  0.0278 -0.1968 -0.2432
 9392TIP3    H152371   4.307   3.030   0.599 -0.8451  0.5486  1.5906
 9392TIP3    H252372   4.387   3.158   0.606  0.1409 -0.0033  0.6963
 9393TIP3   OH252373   1.350   2.859   2.275 -0.3003  0.2385 -0.0055
 9393TIP3    H152374   1.304   2.820   2.349 -0.2197 -1.5616 -0.8405
 9393TIP3    H252375   1.322   2.950   2.274 -1.6529 -0.1276  1.1889
 9394TIP3   OH252376   6.118   1.792   1.295 -0.5559  0.1317  0.5215
 9394TIP3    H152377   6.139   1.820   1.383  1.3702 -0.0138  0.1557
 9394TIP3    H252378   6.181   1.838   1.239  0.2252 -1.9462 -0.4489
 9395TIP3   OH252379   0.308   4.437   0.407 -0.2539 -0.7469 -0.4746
 9395TIP3    H152380   0.279   4.417   0.496 -0.7873  0.2992 -0.3914
 9395TIP3    H252381   0.242   4.397   0.351 -0.9805  0.1981 -0.3286
 9396TIP3   OH252382   2.783   1.010   0.890 -0.0818  0.0953  0.1184
 9396TIP3    H152383   2.699   1.031   0.850  1.5641  1.6846 -2.8762
 9396TIP3    H252384   2.811   0.931   0.845  1.1644  1.0771 -0.8858
 9397TIP3   OH252385   3.094   6.740   0.079  0.0909  0.7737 -1.0428
 9397TIP3    H152386   3.065   6.656   0.043  0.1133 -1.0195  2.6343
 9397TIP3    H252387   3.013   6.785   0.102  0.0429 -0.0681  0.5851
 9398TIP3   OH252388   5.727   0.911   1.461  0.3330 -0.0852  0.1809
 9398TIP3    H152389   5.698   1.002   1.466 -0.0952 -0.2296  0.4426
 9398TIP3    H252390   5.821   0.915   1.480 -0.2174 -0.0049  3.5135
 9399TIP3   OH252391   4.648   6.439   9.037 -0.0874 -0.2637  0.0206
 9399TIP3    H152392   4.674   6.424   8.946  1.5298 -1.8008  0.6733
 9399TIP3    H252393   4.567   6.489   9.031  0.2503  0.1206 -2.2506
 9400TIP3   OH252394   2.879   7.099   9.207 -0.1800 -0.2508  0.5383
 9400TIP3    H152395   2.966   7.068   9.234 -0.5565 -1.6190  0.2528
 9400TIP3    H252396   2.888   7.115   9.113 -0.7469 -2.3826  0.0757
 9401TIP3   OH252397   0.945   6.908   7.243  0.4822  0.4266  0.1910
 9401TIP3    H152398   0.853   6.920   7.217  0.6758 -0.2171 -0.8314
 9401TIP3    H252399   0.996   6.943   7.170  1.0588  0.9360  0.8318
 9402TIP3   OH252400   6.821   2.524   0.933  0.2549  0.3656  0.0823
 9402TIP3    H152401   6.840   2.555   1.021  0.3138 -0.9932  0.5602
 9402TIP3    H252402   6.882   2.572   0.877  1.9863 -0.5897  1.0777
 9403TIP3   OH252403   5.774   4.956   8.201  0.5324  0.9860 -0.1410
 9403TIP3    H152404   5.739   5.023   8.142 -2.3051  0.0303  0.2778
 9403TIP3    H252405   5.731   4.973   8.284 -0.1210 -1.1719  0.0312
 9404TIP3   OH252406   5.592   3.710   0.467  0.0414  0.2511 -0.2864
 9404TIP3    H152407   5.630   3.716   0.555  1.3872  0.1479 -0.8343
 9404TIP3    H252408   5.597   3.617   0.445 -1.5628  0.0641  0.0479
 9405TIP3   OH252409   6.814   2.040   7.794  0.2418  0.7092 -0.7961
 9405TIP3    H152410   6.830   2.101   7.866 -3.1042  0.0244  0.7259
 9405TIP3    H252411   6.762   2.090   7.731  1.8448  0.8397 -2.0798
 9406TIP3   OH252412   6.826   6.197   7.387  0.5041  0.6431 -0.1348
 9406TIP3    H152413   6.758   6.131   7.396  0.6807  0.2782 -1.3245
 9406TIP3    H252414   6.814   6.254   7.463  0.3818 -0.7639  0.9431
 9407TIP3   OH252415   0.239   6.560   7.613 -0.1372  0.2556  0.1089
 9407TIP3    H152416   0.236   6.631   7.549  1.0798  0.0771 -0.1798
 9407TIP3    H252417   0.322   6.572   7.658  0.2751 -1.1901 -0.2028
 9408TIP3   OH252418   7.098   5.982   0.726 -0.2062 -0.1546 -0.8382
 9408TIP3    H152419   7.140   6.062   0.694 -0.9417 -0.2554 -2.1173
 9408TIP3    H252420   7.012   5.981   0.682 -0.2171 -1.6325 -0.8179
 9409TIP3   OH252421   6.178   7.104   0.149 -0.4570  0.0838  0.0620
 9409TIP3    H152422   6.265   7.124   0.182 -0.2876 -1.6549  0.7720
 9409TIP3    H252423   6.172   7.151   0.066  0.1352  2.3498  1.2274
 9410TIP3   OH252424   2.706   2.156   1.068 -0.1028  0.0364 -0.3816
 9410TIP3    H152425   2.778   2.197   1.117  0.2645 -0.0560 -0.8333
 9410TIP3    H252426   2.743   2.140   0.981 -0.3584 -0.9022 -0.3293
 9411TIP3   OH252427   3.575   2.281   0.584  0.2862  0.1158  0.0804
 9411TIP3    H152428   3.518   2.260   0.511  0.6776 -0.5085 -0.0478
 9411TIP3    H252429   3.537   2.360   0.623  0.0157  0.3817 -0.7216
 9412TIP3   OH252430   6.617   0.004   1.473  0.0168  0.1024 -0.3343
 9412TIP3    H152431   6.621   0.082   1.528 -1.0240  1.4424 -2.0418
 9412TIP3    H252432   6.572  -0.061   1.527 -0.5954  1.2272  0.5601
 9413TIP3   OH252433   6.142   2.432   9.099 -0.4634 -0.1944 -0.0549
 9413TIP3    H152434   6.104   2.515   9.069  0.3810 -0.3925 -1.7465
 9413TIP3    H252435   6.083   2.365   9.065 -0.3043 -0.3598 -0.0028
 9414TIP3   OH252436   6.977   0.863   0.490  0.2485 -0.0057 -0.0005
 9414TIP3    H152437   6.986   0.777   0.448  0.3104  0.6714 -1.4242
 9414TIP3    H252438   7.066   0.897   0.493  0.5096 -0.7519  2.3212
 9415TIP3   OH252439   6.350   0.449   0.173  0.3759  0.1630  0.5861
 9415TIP3    H152440   6.307   0.370   0.141  0.4157  0.5026 -0.3398
 9415TIP3    H252441   6.282   0.516   0.171  0.8676  0.6500 -0.6728
 9416TIP3   OH252442   1.538   2.708   3.034 -0.3049 -0.3369 -0.0402
 9416TIP3    H152443   1.560   2.617   3.050  0.5293 -0.2336 -0.5009
 9416TIP3    H252444   1.621   2.748   3.006 -0.8466  0.3467 -0.7341
 9417TIP3   OH252445   1.255   0.511   2.672  0.2970 -0.3215  0.8256
 9417TIP3    H152446   1.347   0.488   2.689  0.2609 -0.4486  0.8529
 9417TIP3    H252447   1.226   0.448   2.607  0.4931  0.2977  0.1277
 9418TIP3   OH252448   7.421   3.693   7.456  0.4772 -0.2608 -0.1372
 9418TIP3    H152449   7.392   3.724   7.542  0.2290 -0.3155 -0.2010
 9418TIP3    H252450   7.452   3.604   7.471  1.9102  0.2606  0.1970
 9419TIP3   OH252451   1.072   1.306   9.335 -0.4437  0.3337 -0.4321
 9419TIP3    H152452   1.066   1.252   9.414 -0.6451 -1.5598 -1.6812
 9419TIP3    H252453   1.025   1.256   9.268 -1.1747  2.3759 -1.5219
 9420TIP3   OH252454   5.744   6.923   2.290  0.1812  0.2319 -0.2800
 9420TIP3    H152455   5.660   6.945   2.330  0.3181  2.9340 -1.2757
 9420TIP3    H252456   5.725   6.847   2.234 -1.0601 -0.5527  1.1276
 9421TIP3   OH252457   1.184   0.576   1.468  0.2421 -0.6727 -0.2733
 9421TIP3    H152458   1.219   0.627   1.395 -1.4558  0.9275 -0.0431
 9421TIP3    H252459   1.091   0.563   1.445  0.0300 -1.3948  0.9275
 9422TIP3   OH252460   3.385   1.421   9.509  0.4168 -0.0317  0.1793
 9422TIP3    H152461   3.459   1.460   9.464  0.5508  0.9413  1.1941
 9422TIP3    H252462   3.308   1.451   9.460  0.6171  0.0618 -0.0775
 9423TIP3   OH252463   7.385   7.079   0.543  0.4000  0.0695  0.1255
 9423TIP3    H152464   7.369   7.168   0.575 -0.7253 -0.9421  2.6372
 9423TIP3    H252465   7.463   7.050   0.591 -1.1981 -1.4112  2.0211
 9424TIP3   OH252466   0.193   5.217   1.753  0.4506 -0.4946  0.0398
 9424TIP3    H152467   0.117   5.206   1.695  0.1831  0.0499  0.2787
 9424TIP3    H252468   0.241   5.291   1.715 -0.2450  0.4961  1.0589
 9425TIP3   OH252469   0.274   2.923   7.858 -0.2929 -0.0642 -0.0779
 9425TIP3    H152470   0.277   3.018   7.867  2.4029 -0.0672 -0.0183
 9425TIP3    H252471   0.261   2.891   7.948 -0.4763  0.2426  0.0066
 9426TIP3   OH252472   0.484   3.926   7.134  0.3398 -0.0373  0.7821
 9426TIP3    H152473   0.396   3.890   7.120  0.1732 -0.0772  1.8790
 9426TIP3    H252474   0.516   3.944   7.045 -0.4340 -0.8244  0.3208
 9427TIP3   OH252475   0.955   4.267   1.186 -0.2159  0.6635  0.5466
 9427TIP3    H152476   0.982   4.304   1.102 -1.4000 -1.1025 -0.7140
 9427TIP3    H252477   1.029   4.213   1.213 -1.1263 -1.7335 -1.3434
 9428TIP3   OH252478   6.046   6.869   0.579  0.1044  0.2738 -0.2182
 9428TIP3    H152479   5.954   6.896   0.577 -0.0680 -0.3141 -0.3319
 9428TIP3    H252480   6.049   6.791   0.524  0.5917  0.0398  0.1400
 9429TIP3   OH252481   6.327   0.821   8.930  0.0712  0.0853 -0.0444
 9429TIP3    H152482   6.259   0.758   8.906  1.0561 -0.9568 -0.1693
 9429TIP3    H252483   6.395   0.768   8.973  1.2446  0.9518 -0.7772
 9430TIP3   OH252484   5.064   4.914   1.201  0.2894  0.4725 -0.5829
 9430TIP3    H152485   5.115   4.960   1.135  0.3830  1.0843 -0.0865
 9430TIP3    H252486   4.975   4.946   1.189  0.2649  0.4179 -0.5507
 9431TIP3   OH252487   3.069   5.513   1.118  0.2512  0.5116 -0.1158
 9431TIP3    H152488   3.088   5.427   1.080 -0.2941  1.3126 -2.3510
 9431TIP3    H252489   3.132   5.572   1.076 -2.8113  2.1224 -2.9054
 9432TIP3   OH252490   3.442   6.469   8.985  0.0355 -0.0889 -0.4209
 9432TIP3    H152491   3.529   6.461   9.023 -0.2804  0.7960  0.5681
 9432TIP3    H252492   3.396   6.390   9.015  0.6734 -0.9007 -1.5148
 9433TIP3   OH252493   2.891   4.260   8.788  0.2690 -0.6227 -0.2946
 9433TIP3    H152494   2.840   4.328   8.833  0.0493 -1.4617  0.7740
 9433TIP3    H252495   2.826   4.209   8.740  0.4375 -0.0681 -1.1224
 9434TIP3   OH252496   6.079   0.296   2.160  0.1865  0.0954  0.1234
 9434TIP3    H152497   6.149   0.335   2.106  0.8204  0.0788  0.9144
 9434TIP3    H252498   6.074   0.353   2.237 -1.7430  0.9891 -0.5988
 9435TIP3   OH252499   6.768   4.095   8.259  0.0104  0.1842 -0.3348
 9435TIP3    H152500   6.756   4.004   8.233 -0.7578  0.4732 -1.0399
 9435TIP3    H252501   6.685   4.119   8.301 -0.0243  0.7398 -0.7155
 9436TIP3   OH252502   0.034   5.626   3.002 -0.1465  0.5331 -0.1846
 9436TIP3    H152503   0.013   5.538   3.036 -1.1459  0.7465 -0.2071
 9436TIP3    H252504  -0.047   5.654   2.959  0.9795  0.3807 -2.5717
 9437TIP3   OH252505   2.232   2.653   0.730  0.1307 -0.0397  0.0477
 9437TIP3    H152506   2.298   2.680   0.794 -0.3817  0.7340  0.2667
 9437TIP3    H252507   2.274   2.583   0.681  0.4266 -0.8981  1.4483
 9438TIP3   OH252508   4.079   3.888   0.039  0.0115 -0.5176  0.0192
 9438TIP3    H152509   4.099   3.944  -0.035  1.3784  0.5029  1.0997
 9438TIP3    H252510   4.124   3.805   0.019  0.7786 -0.0862 -0.1020
 9439TIP3   OH252511   5.543   1.714   1.543 -0.4935  0.0215  0.2723
 9439TIP3    H152512   5.485   1.647   1.509  0.6711 -1.0017  0.2178
 9439TIP3    H252513   5.532   1.789   1.484 -0.7341 -0.6516 -0.5523
 9440TIP3   OH252514   1.041   3.293   0.523  0.2677  0.7535  0.2329
 9440TIP3    H152515   1.000   3.320   0.605 -2.1644  2.5045 -1.4151
 9440TIP3    H252516   1.021   3.364   0.462  1.3031 -0.8364 -2.0946
 9441TIP3   OH252517   0.244   5.682   7.159  0.3149 -0.1579 -0.7293
 9441TIP3    H152518   0.166   5.657   7.109  0.0239  0.2055 -0.4579
 9441TIP3    H252519   0.317   5.655   7.104 -0.0023 -0.4804 -0.9972
 9442TIP3   OH252520   6.061   2.656   7.348 -0.4887 -0.2606  0.0970
 9442TIP3    H152521   6.036   2.572   7.385 -1.5647 -0.5715 -1.2600
 9442TIP3    H252522   6.066   2.715   7.423  0.9954 -1.6646  1.1621
 9443TIP3   OH252523   6.929   1.236   7.012 -0.2025  0.2199  0.0122
 9443TIP3    H152524   6.837   1.263   7.015 -0.6349 -1.1748  0.0202
 9443TIP3    H252525   6.932   1.173   6.941  0.3201 -1.2470  1.2939
 9444TIP3   OH252526   2.665   5.713   7.903  0.1165  0.7826 -0.3353
 9444TIP3    H152527   2.669   5.781   7.970 -0.2681  0.3786  0.1050
 9444TIP3    H252528   2.612   5.643   7.943 -1.3272  1.1223 -1.5827
 9445TIP3   OH252529   1.809   1.201   7.231 -0.1169  0.4286  0.2820
 9445TIP3    H152530   1.743   1.240   7.174  0.5014  1.7523  0.4256
 9445TIP3    H252531   1.836   1.121   7.186  0.1214  1.2817 -1.1249
 9446TIP3   OH252532   1.021   1.956   1.197  0.5471  0.2290  0.2227
 9446TIP3    H152533   1.090   1.895   1.170 -0.8322 -0.8597 -1.0733
 9446TIP3    H252534   0.955   1.900   1.237 -0.8457  0.7875 -1.1892
 9447TIP3   OH252535   5.761   1.614   1.275  0.2041  0.3874  0.1944
 9447TIP3    H152536   5.824   1.567   1.221 -1.5183 -2.7549  0.6740
 9447TIP3    H252537   5.803   1.619   1.361  0.2900 -0.6258  0.2228
 9448TIP3   OH252538   0.759   1.565   8.789 -0.6481 -0.1221  0.3226
 9448TIP3    H152539   0.703   1.505   8.740 -0.0493 -0.8146  0.4695
 9448TIP3    H252540   0.840   1.516   8.804 -0.3519  0.5264  0.9222
 9449TIP3   OH252541   5.067   3.933   2.436 -0.0973  0.1773 -0.2466
 9449TIP3    H152542   5.151   3.932   2.481  0.5310 -0.7325 -1.3736
 9449TIP3    H252543   5.046   4.026   2.425  0.8881  0.4143 -0.1670
 9450TIP3   OH252544   7.077   7.178   8.241  0.2244  0.3734  0.2161
 9450TIP3    H152545   7.086   7.092   8.284 -1.1651 -0.6708 -1.4466
 9450TIP3    H252546   6.982   7.192   8.236  0.4038  1.2765 -0.9192
 9451TIP3   OH252547   3.442   3.867   7.406  0.1756 -0.2854  0.5762
 9451TIP3    H152548   3.494   3.939   7.444  0.9142  0.5872 -1.8747
 9451TIP3    H252549   3.494   3.789   7.423  1.5914  0.3759 -0.4699
 9452TIP3   OH252550   3.657   3.940   0.722  0.2810 -0.0738  0.0803
 9452TIP3    H152551   3.689   4.013   0.670 -0.5862  0.7150  0.6213
 9452TIP3    H252552   3.670   3.968   0.813  0.3231 -0.7623  0.2911
 9453TIP3   OH252553   7.318   5.731   9.126  0.4042 -0.5825 -0.3853
 9453TIP3    H152554   7.233   5.772   9.142  0.5834 -0.3469 -0.0117
 9453TIP3    H252555   7.355   5.781   9.053 -0.3868 -1.6151 -1.5281
 9454TIP3   OH252556   5.698   4.709   0.090 -0.5810 -0.4075  0.3602
 9454TIP3    H152557   5.607   4.713   0.063 -1.0283 -1.4771  1.6250
 9454TIP3    H252558   5.715   4.794   0.130 -0.3256  0.6510 -1.8607
 9455TIP3   OH252559   0.852   2.908   2.474 -0.4299  0.1353 -0.5078
 9455TIP3    H152560   0.925   2.846   2.470  0.8779  1.4380  1.4195
 9455TIP3    H252561   0.806   2.885   2.555 -0.8113  0.7435 -0.5440
 9456TIP3   OH252562   6.745   0.395   7.768  0.0282  0.2056 -0.3702
 9456TIP3    H152563   6.782   0.313   7.735 -0.7463 -0.5717  0.6226
 9456TIP3    H252564   6.650   0.381   7.766 -0.2219  1.7397 -1.8023
 9457TIP3   OH252565   2.996   4.319   1.808 -0.1963  0.1355 -0.1963
 9457TIP3    H152566   3.062   4.386   1.826 -0.4206  0.8898 -1.9521
 9457TIP3    H252567   2.917   4.368   1.787 -0.9188 -0.7375  0.3946
 9458TIP3   OH252568   4.406   2.403   0.864 -0.2150 -0.1200  0.3965
 9458TIP3    H152569   4.366   2.353   0.935  1.4309 -1.5589  0.3968
 9458TIP3    H252570   4.363   2.369   0.785 -1.6751  1.1132  0.6095
 9459TIP3   OH252571   1.150   6.081   7.269 -0.3501 -0.1508 -0.1103
 9459TIP3    H152572   1.112   6.134   7.199 -1.6104 -0.4798  0.3094
 9459TIP3    H252573   1.089   6.090   7.342  1.6772  1.4098  1.5167
 9460TIP3   OH252574   2.330   2.959   8.853 -0.4127 -0.3628 -0.0681
 9460TIP3    H152575   2.258   2.981   8.794 -0.1054 -0.0617 -0.3340
 9460TIP3    H252576   2.290   2.959   8.940 -0.5055  0.9055 -0.0921
 9461TIP3   OH252577   2.477   3.567   7.661 -0.7709  0.4354 -0.0386
 9461TIP3    H152578   2.504   3.643   7.713 -1.2323 -0.1865  1.1644
 9461TIP3    H252579   2.456   3.602   7.575  0.9890  1.3729 -0.1436
 9462TIP3   OH252580   3.070   7.099   9.569 -0.0609 -0.3631  0.3393
 9462TIP3    H152581   3.126   7.054   9.506 -1.4180 -0.7352 -0.6608
 9462TIP3    H252582   3.078   7.192   9.547  0.7660 -0.3335  0.7352
 9463TIP3   OH252583   3.178   5.908   9.648  0.4786  0.0197  0.1019
 9463TIP3    H152584   3.150   5.924   9.557 -0.8032 -2.5586 -0.0682
 9463TIP3    H252585   3.220   5.822   9.644  0.4361 -0.1118  1.9328
 9464TIP3   OH252586   3.984   0.020   2.472 -0.4559  0.3102 -0.7231
 9464TIP3    H152587   4.065   0.064   2.448 -1.4886  1.6103 -2.0375
 9464TIP3    H252588   3.933   0.086   2.519 -0.8776 -0.4026 -0.1412
 9465TIP3   OH252589   1.796   6.727   0.917  0.0088  0.2302 -0.0363
 9465TIP3    H152590   1.863   6.794   0.931 -0.5791  1.0498 -0.9884
 9465TIP3    H252591   1.809   6.698   0.827 -1.1257  0.6659 -0.3651
 9466TIP3   OH252592   0.327   6.075   1.982  0.1259  0.1929  0.3991
 9466TIP3    H152593   0.283   6.054   2.065  0.2816  1.6663  0.8789
 9466TIP3    H252594   0.409   6.025   1.986  0.4363  0.7564  1.4405
 9467TIP3   OH252595   3.825   6.177   7.512 -0.7942  0.1461 -0.1004
 9467TIP3    H152596   3.898   6.198   7.569 -1.1531  0.1475  0.3660
 9467TIP3    H252597   3.862   6.176   7.424 -0.2692  0.2973  0.1183
 9468TIP3   OH252598   0.611   4.528   1.438  0.2550  0.0158 -0.3486
 9468TIP3    H152599   0.635   4.600   1.497 -0.3430  0.4626 -0.6456
 9468TIP3    H252600   0.695   4.487   1.416  0.5110 -0.0210  0.6291
 9469TIP3   OH252601   1.759   7.104   1.621  0.2622 -0.0982 -0.0386
 9469TIP3    H152602   1.842   7.117   1.576  1.5498 -0.5310  2.0591
 9469TIP3    H252603   1.742   7.010   1.612 -0.0657  0.0089 -0.5599
 9470TIP3   OH252604   7.345   5.820   1.814 -0.0445  0.3038  0.2816
 9470TIP3    H152605   7.277   5.755   1.833  1.6062 -1.5349  0.3005
 9470TIP3    H252606   7.315   5.900   1.856 -2.4236 -0.2690 -0.1632
 9471TIP3   OH252607   6.871   5.160   8.129  0.3301  0.0839 -0.2699
 9471TIP3    H152608   6.800   5.115   8.175 -0.6106  0.1037 -1.6483
 9471TIP3    H252609   6.849   5.253   8.135 -0.1040  0.0522 -1.2195
 9472TIP3   OH252610   6.867   5.322   9.616  0.0632 -0.0500  0.0748
 9472TIP3    H152611   6.782   5.344   9.577 -0.0449 -0.7757 -0.1118
 9472TIP3    H252612   6.848   5.315   9.710  0.2420  1.3064  0.2216
 9473TIP3   OH252613   2.244   6.227   9.224  0.0712 -0.4490 -0.3696
 9473TIP3    H152614   2.254   6.158   9.158  0.0871 -0.3629 -0.4571
 9473TIP3    H252615   2.328   6.272   9.224 -0.7139  1.1785 -2.1180
 9474TIP3   OH252616   1.136   5.284   7.934  0.3457 -0.8204  0.4478
 9474TIP3    H152617   1.091   5.269   7.851  1.6962 -1.0420 -0.2757
 9474TIP3    H252618   1.113   5.208   7.987 -0.0484 -0.9769  0.0616
 9475TIP3   OH252619   2.283   1.183   7.466 -0.3007  0.1239 -0.1731
 9475TIP3    H152620   2.326   1.214   7.387  1.5685  0.0483  0.7700
 9475TIP3    H252621   2.223   1.114   7.436  1.2681 -0.7450 -1.4007
 9476TIP3   OH252622   0.873   0.421   1.710 -0.3382 -0.1907  0.3710
 9476TIP3    H152623   0.832   0.359   1.770 -0.5835 -1.0063 -0.6169
 9476TIP3    H252624   0.964   0.424   1.737 -0.6096  0.0815  1.2979
 9477TIP3   OH252625   3.641   6.995   9.275  0.1013  0.1297 -0.3021
 9477TIP3    H152626   3.629   7.089   9.280 -1.4479 -0.0851  0.8421
 9477TIP3    H252627   3.640   6.966   9.366 -1.5444 -1.1885 -0.6871
 9478TIP3   OH252628   4.687   5.437   9.580  0.4185 -0.4524  0.1754
 9478TIP3    H152629   4.673   5.368   9.516 -0.2785  0.3847 -0.5922
 9478TIP3    H252630   4.678   5.393   9.665 -0.0001 -1.3024 -0.2988
 9479TIP3   OH252631   0.368   2.832   2.159 -0.4838  0.1011 -0.4483
 9479TIP3    H152632   0.349   2.766   2.227  1.1973  0.6026  0.5624
 9479TIP3    H252633   0.282   2.856   2.125 -1.2487 -1.4957  0.2339
 9480TIP3   OH252634   6.789   6.917   6.761 -0.3534 -0.0225 -0.4018
 9480TIP3    H152635   6.848   6.992   6.762 -0.7115  0.2643  0.3686
 9480TIP3    H252636   6.845   6.842   6.744  0.0597  0.3762 -0.8219
 9481TIP3   OH252637   2.700   4.136   8.647 -0.0392 -0.5239 -0.8708
 9481TIP3    H152638   2.667   4.048   8.667  1.4563 -0.8760  0.2216
 9481TIP3    H252639   2.775   4.122   8.589 -0.8715  0.1683 -2.1583
 9482TIP3   OH252640   1.690   2.898   7.776  0.3365  0.6315 -0.1297
 9482TIP3    H152641   1.753   2.970   7.776 -0.9932  1.8582  0.5323
 9482TIP3    H252642   1.657   2.895   7.866 -0.6305  0.1160 -0.4810
 9483TIP3   OH252643   2.246   6.898   8.673 -0.1466  0.0980 -0.1688
 9483TIP3    H152644   2.161   6.917   8.712 -0.1555 -0.4925  0.1062
 9483TIP3    H252645   2.248   6.951   8.593 -0.6724  0.2993 -0.0505
 9484TIP3   OH252646   5.200   3.448   2.261  0.1544  0.4908  0.1651
 9484TIP3    H152647   5.207   3.478   2.352  0.1668  1.1539 -0.0491
 9484TIP3    H252648   5.251   3.366   2.259 -1.5934 -0.6834  1.2419
 9485TIP3   OH252649   4.661   5.190   9.444 -0.7476  0.3428 -0.9644
 9485TIP3    H152650   4.686   5.127   9.512 -0.8730  0.5564 -0.7197
 9485TIP3    H252651   4.569   5.170   9.426 -0.5693 -0.0693 -1.4594
 9486TIP3   OH252652   4.377   0.171   9.614  0.3663  0.2998 -0.3764
 9486TIP3    H152653   4.424   0.088   9.612  1.2830  0.7821  0.3075
 9486TIP3    H252654   4.308   0.162   9.548  0.8352 -0.7724 -0.7317
 9487TIP3   OH252655   5.240   2.075   0.823 -0.3174 -0.4296 -0.0307
 9487TIP3    H152656   5.186   2.084   0.901 -0.3660 -1.0608  0.0093
 9487TIP3    H252657   5.211   1.994   0.782  0.1098 -0.4056 -0.3931
 9488TIP3   OH252658   6.258   6.007   7.820 -0.0355  0.2249  0.9432
 9488TIP3    H152659   6.248   5.913   7.805  0.5028  0.4166 -0.8717
 9488TIP3    H252660   6.317   6.036   7.750  0.3388  1.8057  1.8681
 9489TIP3   OH252661   4.061   6.881   7.637  0.5925  0.3178  0.3703
 9489TIP3    H152662   4.004   6.928   7.576 -0.9173 -0.3047  1.2426
 9489TIP3    H252663   4.027   6.904   7.723  0.4215 -1.5959  0.8436
 9490TIP3   OH252664   0.930   4.232   8.466 -0.6290  0.3735 -0.4078
 9490TIP3    H152665   0.927   4.320   8.505 -1.7437 -0.3522  1.2240
 9490TIP3    H252666   0.877   4.240   8.386  0.3903  1.4847 -1.0176
 9491TIP3   OH252667   6.461   3.631   9.420 -0.0875 -0.5371  0.4794
 9491TIP3    H152668   6.430   3.618   9.510  2.0197 -0.5071  1.2669
 9491TIP3    H252669   6.491   3.544   9.393 -1.7857 -0.8089 -0.6806
 9492TIP3   OH252670   0.008   5.862   7.973 -0.6066  0.3772  0.1607
 9492TIP3    H152671  -0.001   5.802   8.048  1.9212 -1.2544 -0.7021
 9492TIP3    H252672  -0.038   5.817   7.902  0.3853 -0.0443 -0.2247
 9493TIP3   OH252673   6.144   5.437   7.614  0.5271 -0.6692  0.1025
 9493TIP3    H152674   6.116   5.517   7.569 -1.0825 -0.6346  1.1005
 9493TIP3    H252675   6.229   5.416   7.575  0.9339  1.4577 -0.2811
 9494TIP3   OH252676   5.515   7.094   6.754 -0.3039 -0.7359 -0.1982
 9494TIP3    H152677   5.583   7.065   6.693 -0.2400  0.4172 -0.7117
 9494TIP3    H252678   5.436   7.101   6.700 -0.6652 -1.3648  0.2362
 9495TIP3   OH252679   2.958   2.118   7.419 -0.4296  0.1523  0.0339
 9495TIP3    H152680   3.018   2.176   7.373 -0.5552 -0.8353 -1.4799
 9495TIP3    H252681   2.919   2.172   7.487  1.0661  1.2138  0.1083
 9496TIP3   OH252682   0.225   4.237   8.584  0.1970 -0.6822 -0.0849
 9496TIP3    H152683   0.231   4.142   8.596 -1.3006 -0.9079 -0.8161
 9496TIP3    H252684   0.289   4.256   8.515  0.9280 -1.0615  0.4774
 9497TIP3   OH252685   6.973   6.376   8.079 -0.1454  0.2513 -0.0610
 9497TIP3    H152686   6.910   6.380   8.150 -0.2545 -0.5414 -0.1099
 9497TIP3    H252687   6.935   6.431   8.010  0.7909  2.4914  1.1038
 9498TIP3   OH252688   6.455   1.116   2.265 -0.3457 -0.6446 -0.1175
 9498TIP3    H152689   6.541   1.147   2.237 -0.9526  0.2871 -1.0254
 9498TIP3    H252690   6.418   1.190   2.314 -0.6852 -0.9952  0.1625
 9499TIP3   OH252691   6.438   6.453   1.679  0.5747 -0.0789  0.7189
 9499TIP3    H152692   6.448   6.405   1.761 -1.4873  1.4323  1.9424
 9499TIP3    H252693   6.386   6.394   1.624 -2.0034  0.6304  2.2335
 9500TIP3   OH252694   5.774   2.897   1.014  0.2112 -0.2964  0.2323
 9500TIP3    H152695   5.724   2.819   1.039 -1.9655  1.3048  1.2614
 9500TIP3    H252696   5.753   2.961   1.082  1.5114  1.3571 -0.8447
 9501TIP3   OH252697   6.054   3.916   1.082 -0.1896 -0.1838  0.6683
 9501TIP3    H152698   6.065   3.958   0.997  1.6203 -1.6759  0.0970
 9501TIP3    H252699   6.105   3.836   1.076 -0.1034 -0.3939  3.1405
 9502TIP3   OH252700   7.389   0.635   2.630  0.2039  0.0514 -0.1670
 9502TIP3    H152701   7.464   0.594   2.587  0.5788  0.7510 -0.2056
 9502TIP3    H252702   7.369   0.711   2.575 -1.2473 -0.7216 -0.7809
 9503TIP3   OH252703   1.334   0.290   8.526  0.0186  0.5841 -0.3933
 9503TIP3    H152704   1.326   0.299   8.621  2.1530  1.1482 -0.2137
 9503TIP3    H252705   1.374   0.204   8.513 -0.2869  0.4980 -0.7795
 9504TIP3   OH252706   1.809   7.259   0.820 -0.2926 -0.8716  0.1548
 9504TIP3    H152707   1.901   7.274   0.838 -0.6233 -0.3488  1.5125
 9504TIP3    H252708   1.800   7.276   0.726  0.1694  3.5811  0.7205
 9505TIP3   OH252709   1.525   7.077   0.852 -0.4250  0.0026  0.1617
 9505TIP3    H152710   1.487   7.156   0.813  0.6613  0.8231  0.6840
 9505TIP3    H252711   1.619   7.096   0.856 -0.1911 -1.1757  0.6478
 9506TIP3   OH252712   4.574   0.370   1.791  0.3357 -0.5469  0.4100
 9506TIP3    H152713   4.482   0.373   1.767  0.9775  0.1372 -2.2842
 9506TIP3    H252714   4.581   0.429   1.867 -1.0769  1.3518 -0.8358
 9507TIP3   OH252715   5.777   4.793   7.971 -0.2533 -0.2537  0.4398
 9507TIP3    H152716   5.806   4.817   8.059  0.3387  2.4364 -0.3843
 9507TIP3    H252717   5.708   4.729   7.985  1.5534 -1.8992  2.7434
 9508TIP3   OH252718   2.894   3.931   1.412 -0.2525 -0.1249 -0.1803
 9508TIP3    H152719   2.872   4.000   1.475  1.7863  0.3180  0.1039
 9508TIP3    H252720   2.878   3.970   1.326 -2.7273 -0.6215 -0.0197
 9509TIP3   OH252721   7.208   3.863   1.687 -0.1320 -0.6428 -0.4490
 9509TIP3    H152722   7.172   3.781   1.652 -0.3557 -1.5758  1.8191
 9509TIP3    H252723   7.139   3.896   1.744  0.7548  0.0739  0.2215
 9510TIP3   OH252724   7.164   7.284   9.018  0.3951 -0.4024  0.1147
 9510TIP3    H152725   7.242   7.339   9.010 -0.3806  0.9250  1.1775
 9510TIP3    H252726   7.130   7.278   8.928  1.5673 -0.8091 -0.3187
 9511TIP3   OH252727   4.135   0.162   9.436 -0.1489  0.6545  0.2720
 9511TIP3    H152728   4.047   0.191   9.460 -0.3604  0.8725 -0.7419
 9511TIP3    H252729   4.130   0.066   9.437 -0.3490  0.6648  0.3605
 9512TIP3   OH252730   5.578   4.186   2.259 -0.4049 -0.3719  0.3053
 9512TIP3    H152731   5.580   4.091   2.271 -3.0890 -0.8491 -1.9954
 9512TIP3    H252732   5.582   4.198   2.164  1.7093  1.9897  0.6015
 9513TIP3   OH252733   6.297   4.877   0.737 -0.2006  0.3437 -0.3011
 9513TIP3    H152734   6.280   4.922   0.654 -0.2733  0.7462 -0.0692
 9513TIP3    H252735   6.386   4.843   0.728 -0.6115 -0.5813 -0.9794
 9514TIP3   OH252736   6.851   6.177   0.101 -0.0927  0.4370  0.2988
 9514TIP3    H152737   6.874   6.136   0.184 -0.6403  1.2129  0.8409
 9514TIP3    H252738   6.873   6.269   0.112  0.3841  0.4519 -0.6324
 9515TIP3   OH252739   2.863   0.753   8.963 -0.0139 -0.2149 -0.1934
 9515TIP3    H152740   2.806   0.740   9.039  0.2943  0.4812  0.1727
 9515TIP3    H252741   2.872   0.848   8.956  1.9464 -0.3163  0.4132
 9516TIP3   OH252742   5.001   4.610   1.894  0.1612  0.0876  0.0753
 9516TIP3    H152743   5.048   4.693   1.889 -0.6159  0.5224 -0.2578
 9516TIP3    H252744   4.937   4.622   1.964 -2.2469  1.0337 -2.1173
 9517TIP3   OH252745   5.533   5.196   1.761  0.7959 -0.0141 -0.6644
 9517TIP3    H152746   5.469   5.132   1.729  0.7565  0.1307 -0.8786
 9517TIP3    H252747   5.610   5.144   1.782  0.3918 -0.2747  0.2067
 9518TIP3   OH252748   6.670   5.540   0.132 -0.2032  0.0583  0.6366
 9518TIP3    H152749   6.745   5.598   0.145 -0.2757 -0.1666  2.2940
 9518TIP3    H252750   6.632   5.567   0.049  0.6104  1.4286  0.6893
 9519TIP3   OH252751   6.844   5.794   0.173 -0.4466  0.2681 -0.0577
 9519TIP3    H152752   6.900   5.860   0.215 -0.4064  0.0179  0.2893
 9519TIP3    H252753   6.802   5.840   0.101 -0.1374  0.5778 -0.0420
 9520TIP3   OH252754   7.074   2.501   7.674  0.4709  0.2445 -0.4146
 9520TIP3    H152755   7.159   2.492   7.631  0.8768  1.2031  0.1461
 9520TIP3    H252756   7.085   2.576   7.732  1.0588 -2.8134  3.8945
 9521TIP3   OH252757   0.401   3.223   7.088  0.1995 -0.1550 -0.6828
 9521TIP3    H152758   0.408   3.226   7.183  0.4863 -1.6259 -0.6389
 9521TIP3    H252759   0.379   3.313   7.063 -1.1093  0.0024  0.8677
 9522TIP3   OH252760   6.695   4.857   7.463  0.7029  0.3455  0.5363
 9522TIP3    H152761   6.789   4.843   7.468  0.7438 -0.0377 -0.7210
 9522TIP3    H252762   6.671   4.893   7.548  2.1249  1.3207  0.5588
 9523TIP3   OH252763   7.159   5.360   2.237 -0.3863 -0.4653 -0.4763
 9523TIP3    H152764   7.109   5.286   2.271  0.0203  0.1459  1.6481
 9523TIP3    H252765   7.250   5.336   2.252 -0.1866 -0.1349 -1.1232
 9524TIP3   OH252766   1.743   5.626   8.230 -0.0592 -0.0256 -0.3771
 9524TIP3    H152767   1.793   5.676   8.166  1.2807 -0.0700  0.5890
 9524TIP3    H252768   1.805   5.560   8.262 -0.4909  0.3580  1.3641
 9525TIP3   OH252769   2.148   3.482   2.303 -0.2407 -0.0459 -0.7112
 9525TIP3    H152770   2.171   3.566   2.343 -0.1665 -0.1565 -0.5210
 9525TIP3    H252771   2.176   3.491   2.212  0.1146 -0.0035 -0.5986
 9526TIP3   OH252772   1.251   6.345   7.869 -0.1612 -0.5819 -0.0654
 9526TIP3    H152773   1.282   6.348   7.778  2.0636 -0.1071  0.6435
 9526TIP3    H252774   1.173   6.400   7.869 -0.2818 -0.6945 -1.7148
 9527TIP3   OH252775   1.950   5.673   7.877 -0.3903 -0.0349 -0.3594
 9527TIP3    H152776   1.867   5.644   7.840 -0.0837 -0.4177 -0.7593
 9527TIP3    H252777   1.925   5.732   7.949 -0.9972  1.1359 -1.4789
 9528TIP3   OH252778   3.652   3.969   0.336 -0.4134  0.2266 -0.1533
 9528TIP3    H152779   3.563   3.968   0.371 -1.4251  1.2686 -2.4583
 9528TIP3    H252780   3.676   4.061   0.335  0.2839  0.0450 -0.5077
 9529TIP3   OH252781   2.842   6.808   1.951  0.4278 -0.4083  0.0835
 9529TIP3    H152782   2.902   6.877   1.920  1.8801 -0.5615  2.2848
 9529TIP3    H252783   2.828   6.752   1.875  0.9182  1.1437 -1.2074
 9530TIP3   OH252784   1.067   4.633   2.120  0.5510 -0.0520 -0.3117
 9530TIP3    H152785   1.149   4.619   2.168  0.6957  2.5292  0.3457
 9530TIP3    H252786   1.000   4.638   2.188  0.5732  2.3829 -0.4087
 9531TIP3   OH252787   0.764   3.425   0.355  0.3827 -0.3364 -0.1571
 9531TIP3    H152788   0.835   3.372   0.320  0.6796 -0.3788  0.4802
 9531TIP3    H252789   0.799   3.515   0.356  0.4133 -0.3483  0.1006
 9532TIP3   OH252790   5.617   7.030   9.414 -0.5828 -0.1822  0.1969
 9532TIP3    H152791   5.611   7.013   9.320 -0.9485 -0.0472  0.1910
 9532TIP3    H252792   5.587   7.121   9.423  1.1190  0.3980  0.2494
 9533TIP3   OH252793   3.144   6.056   0.783  0.8954 -0.9401  0.2024
 9533TIP3    H152794   3.052   6.052   0.806  0.6014  0.5637 -0.5860
 9533TIP3    H252795   3.165   5.969   0.751 -1.0220 -0.5811 -2.3138
 9534TIP3   OH252796   4.874   4.317   8.678  0.1334 -0.0969 -0.1070
 9534TIP3    H152797   4.891   4.232   8.636 -0.8969  0.4698 -1.8037
 9534TIP3    H252798   4.815   4.297   8.750 -1.4293 -0.6742 -1.4952
 9535TIP3   OH252799   0.861   0.728   2.019  0.4018  0.5314  0.1168
 9535TIP3    H152800   0.888   0.753   2.108  0.7406 -0.3059  0.2643
 9535TIP3    H252801   0.835   0.810   1.978 -0.1971  0.8843  1.1386
 9536TIP3   OH252802   2.115   5.172   9.341 -0.6709 -0.1849 -0.3536
 9536TIP3    H152803   2.039   5.199   9.289 -0.7143 -1.4831 -1.0175
 9536TIP3    H252804   2.175   5.247   9.338 -1.5589  0.5307 -0.5328
 9537TIP3   OH252805   0.937   3.656   0.830 -0.1155 -0.2794  0.3979
 9537TIP3    H152806   0.965   3.741   0.796 -0.3667 -0.6302 -0.7348
 9537TIP3    H252807   1.006   3.630   0.891  0.1195  0.5905  0.5079
 9538TIP3   OH252808   4.915   7.121   9.388 -0.4140  0.3881 -0.4152
 9538TIP3    H152809   4.915   7.097   9.296  0.4141  0.1145 -0.3450
 9538TIP3    H252810   4.829   7.093   9.420 -0.7905  0.6818 -1.1474
 9539TIP3   OH252811   4.709   6.357   8.792 -0.0016 -0.2256  0.2213
 9539TIP3    H152812   4.764   6.292   8.748 -0.2083 -0.0609 -0.2787
 9539TIP3    H252813   4.645   6.383   8.727 -0.4277 -0.1163  0.6780
 9540TIP3   OH252814   4.487   6.998   8.176  0.1451 -0.1131 -0.3022
 9540TIP3    H152815   4.548   7.036   8.239  2.4120 -1.7630 -1.3523
 9540TIP3    H252816   4.424   6.950   8.230 -0.8179  2.2920  0.8532
 9541TIP3   OH252817   0.500   5.611   7.559 -0.1235  0.1438 -0.2294
 9541TIP3    H152818   0.464   5.690   7.518  1.0156  2.5543  2.9279
 9541TIP3    H252819   0.552   5.570   7.490 -1.4044  1.6751 -2.2527
 9542TIP3   OH252820   6.970   5.729   2.822  0.2191  0.0005  0.4258
 9542TIP3    H152821   6.930   5.766   2.744  0.8703 -2.4208 -1.1819
 9542TIP3    H252822   6.897   5.719   2.884 -0.5855  0.7155 -0.3858
 9543TIP3   OH252823   5.391   1.265   7.680 -0.5006  0.0609 -0.0313
 9543TIP3    H152824   5.370   1.348   7.637 -0.4445  0.7981  1.3022
 9543TIP3    H252825   5.451   1.289   7.751 -1.0776 -1.0016  0.8488
 9544TIP3   OH252826   3.882   2.897   9.047 -0.6943  0.0313  0.2101
 9544TIP3    H152827   3.805   2.846   9.073 -0.7126  0.7689  1.7249
 9544TIP3    H252828   3.846   2.970   8.997 -1.2539  1.4731  2.5657
 9545TIP3   OH252829   4.190   7.202   8.832 -0.1912  0.3571 -0.6527
 9545TIP3    H152830   4.179   7.107   8.825 -1.1244  0.4559 -0.6049
 9545TIP3    H252831   4.280   7.218   8.802  0.0113 -0.5489 -0.5452
 9546TIP3   OH252832   2.545   1.079   9.069  0.4512  0.4162  0.1183
 9546TIP3    H152833   2.589   1.122   8.995 -1.6888 -1.1515 -2.2223
 9546TIP3    H252834   2.591   0.996   9.079 -0.8267 -0.4978 -1.2343
 9547TIP3   OH252835   5.254   3.319   7.991 -0.0350  0.2079 -0.0084
 9547TIP3    H152836   5.277   3.411   7.974 -0.9044  0.1692 -1.6326
 9547TIP3    H252837   5.173   3.306   7.943  0.9667 -1.8726 -1.2583
 9548TIP3   OH252838   5.444   5.838   9.414  0.6325 -0.5754  0.2662
 9548TIP3    H152839   5.408   5.917   9.455  1.2936  0.3137 -0.7896
 9548TIP3    H252840   5.372   5.776   9.414 -0.4595  0.6287 -0.4110
 9549TIP3   OH252841   6.878   2.823   8.558  0.0409 -0.2191  0.2964
 9549TIP3    H152842   6.942   2.842   8.626  0.8012 -1.8738  0.0913
 9549TIP3    H252843   6.797   2.864   8.589  1.2789  2.4925  0.2478
 9550TIP3   OH252844   6.022   2.783   0.906 -0.0953  0.0348  0.2106
 9550TIP3    H152845   6.004   2.723   0.833  0.8814 -0.6698  0.5402
 9550TIP3    H252846   5.936   2.820   0.927 -0.1968  1.4074 -2.2694
 9551TIP3   OH252847   0.181   5.861   7.505  0.1976 -0.2722 -0.2205
 9551TIP3    H152848   0.205   5.779   7.549 -0.4132 -0.6060 -0.4969
 9551TIP3    H252849   0.088   5.850   7.484  0.2886  0.2038 -0.8865
 9552TIP3   OH252850   1.490   4.285   9.273  0.5144 -0.6195 -0.2428
 9552TIP3    H152851   1.484   4.305   9.180  0.9356 -1.3873 -0.4436
 9552TIP3    H252852   1.514   4.192   9.276  0.6090 -0.5739  0.6276
 9553TIP3   OH252853   2.883   0.613   1.097 -1.1135 -0.2836  0.0908
 9553TIP3    H152854   2.828   0.690   1.108 -1.5179 -0.9709  4.7015
 9553TIP3    H252855   2.973   0.647   1.101 -1.2905  0.0494  2.0038
 9554TIP3   OH252856   6.424   0.602   6.808  0.0616  0.0883 -0.1593
 9554TIP3    H152857   6.394   0.574   6.722  1.7833 -0.5575 -0.5836
 9554TIP3    H252858   6.499   0.546   6.827  1.6451  2.2487  0.3789
 9555TIP3   OH252859   3.378   4.587   2.562 -0.0382  0.5476  0.6278
 9555TIP3    H152860   3.351   4.525   2.630  1.3516  0.6677  1.3171
 9555TIP3    H252861   3.471   4.602   2.579  0.3619  0.5366 -1.3464
 9556TIP3   OH252862   2.164   1.763   2.749  0.4788  0.5832 -0.0110
 9556TIP3    H152863   2.177   1.753   2.655  0.3834  0.5561 -0.0216
 9556TIP3    H252864   2.117   1.684   2.776  0.4469  0.6215  0.0475
 9557TIP3   OH252865   0.822   0.875   9.610 -0.1652  0.1430 -0.4011
 9557TIP3    H152866   0.894   0.888   9.672  0.5734  2.5390 -1.6164
 9557TIP3    H252867   0.750   0.843   9.664  0.5238  1.8272  1.6703
 9558TIP3   OH252868   0.681   6.548   8.296 -0.3170 -0.5653  0.1290
 9558TIP3    H152869   0.678   6.459   8.262 -0.1246 -0.4437 -0.2022
 9558TIP3    H252870   0.589   6.570   8.311 -0.4684 -0.3524 -1.0089
 9559TIP3   OH252871   3.437   0.847   1.214 -0.3005  0.2560 -0.4711
 9559TIP3    H152872   3.518   0.796   1.220  1.0227  2.2674 -0.2740
 9559TIP3    H252873   3.442   0.909   1.287 -2.9019 -0.6814  0.6174
 9560TIP3   OH252874   4.787   6.641   8.767 -0.5759 -0.5392 -0.6461
 9560TIP3    H152875   4.807   6.550   8.789  0.0970 -0.5492 -1.2724
 9560TIP3    H252876   4.715   6.635   8.704 -1.9119 -0.5436  0.8293
 9561TIP3   OH252877   1.475   5.457   0.989 -0.1361 -0.3211 -0.1116
 9561TIP3    H152878   1.398   5.438   0.935  0.5880 -2.3350 -0.5286
 9561TIP3    H252879   1.534   5.383   0.974  0.7695 -0.1702  2.2116
 9562TIP3   OH252880   5.977   0.258   0.407  0.2340 -0.1708 -0.3880
 9562TIP3    H152881   5.911   0.263   0.338 -1.0259  1.7429  0.8524
 9562TIP3    H252882   5.991   0.164   0.420 -3.0987 -0.7344  0.0178
 9563TIP3   OH252883   5.202   0.168   8.603 -0.0710 -0.2216 -0.1913
 9563TIP3    H152884   5.226   0.111   8.530 -0.7853 -1.6017  0.6026
 9563TIP3    H252885   5.213   0.114   8.681 -1.3675  0.5091  0.5473
 9564TIP3   OH252886   1.490   3.549   1.933  0.1998  0.0783  0.8640
 9564TIP3    H152887   1.460   3.467   1.893  1.8732 -0.5745  0.8600
 9564TIP3    H252888   1.491   3.612   1.860  0.4775 -0.3415  0.5005
 9565TIP3   OH252889   3.997   1.706   9.415  0.0568  0.1877  0.2754
 9565TIP3    H152890   4.021   1.715   9.323 -0.5415  2.6166  0.2810
 9565TIP3    H252891   4.081   1.699   9.462  0.4477  0.7886 -0.3184
 9566TIP3   OH252892   5.153   5.749   2.206 -0.2511  0.1539  0.3593
 9566TIP3    H152893   5.156   5.816   2.274  0.6306  2.2837 -1.6524
 9566TIP3    H252894   5.104   5.789   2.135  0.2722 -1.3523 -0.9191
 9567TIP3   OH252895   5.759   4.804   8.780 -0.0501  0.2114  0.3286
 9567TIP3    H152896   5.706   4.759   8.845 -0.9759  2.1729  0.9875
 9567TIP3    H252897   5.780   4.888   8.819  0.4171  0.9594 -1.4160
 9568TIP3   OH252898   2.361   2.847   2.587 -0.1656  0.3469  0.1850
 9568TIP3    H152899   2.331   2.920   2.533  2.1129  2.4712  1.5846
 9568TIP3    H252900   2.425   2.801   2.532  0.0512  0.7681  0.0854
 9569TIP3   OH252901   5.570   7.169   7.648 -0.0913  0.0540 -0.1334
 9569TIP3    H152902   5.610   7.208   7.726  0.1174  0.2730 -0.3488
 9569TIP3    H252903   5.524   7.092   7.681 -2.3078  1.6175  0.6253
 9570TIP3   OH252904   1.704   0.441   9.432 -0.2629  0.2750 -0.9412
 9570TIP3    H152905   1.769   0.388   9.478 -2.2506  0.4662  2.3893
 9570TIP3    H252906   1.706   0.408   9.342  2.6787 -1.3464 -0.4106
 9571TIP3   OH252907   0.348   5.091   7.988  0.6043  0.5289 -0.2037
 9571TIP3    H152908   0.419   5.046   8.034  0.9089  2.2102  1.0396
 9571TIP3    H252909   0.269   5.042   8.012  1.0843 -0.1647 -0.0073
 9572TIP3   OH252910   0.128   4.221   8.920  0.1582  0.0204  0.4305
 9572TIP3    H152911   0.052   4.278   8.932 -1.0564 -1.1172 -1.3107
 9572TIP3    H252912   0.160   4.242   8.832  0.0209 -1.5262 -0.0192
 9573TIP3   OH252913   6.042   3.706   2.432 -0.0490  0.5452 -0.0892
 9573TIP3    H152914   5.999   3.674   2.511  1.1848 -0.5862  0.1509
 9573TIP3    H252915   5.980   3.770   2.396 -1.3278 -0.0601  0.9349
 9574TIP3   OH252916   6.375   5.807   7.449  0.1862 -0.3535  0.4390
 9574TIP3    H152917   6.282   5.798   7.471  0.4269 -1.3279  1.1063
 9574TIP3    H252918   6.420   5.751   7.512  1.0947 -1.3038 -1.0042
 9575TIP3   OH252919   1.920   1.460   0.185 -0.5938 -0.4029 -0.5432
 9575TIP3    H152920   1.911   1.372   0.147 -1.2481  0.2497 -1.9709
 9575TIP3    H252921   1.869   1.516   0.127 -0.9163  0.8037  0.8493
 9576TIP3   OH252922   0.838   0.361   8.286 -0.7038  0.2422  0.0615
 9576TIP3    H152923   0.748   0.394   8.284 -1.0621 -0.7193 -0.1192
 9576TIP3    H252924   0.879   0.399   8.209 -1.0584  0.3961 -0.0554
 9577TIP3   OH252925   6.430   3.017   8.560  0.1368 -0.2663 -0.2052
 9577TIP3    H152926   6.378   2.937   8.551  1.8752 -1.5641  0.7524
 9577TIP3    H252927   6.446   3.026   8.654  2.5262 -0.5689 -0.5071
 9578TIP3   OH252928   4.356   4.547   8.611  0.1240  0.4851  0.2937
 9578TIP3    H152929   4.276   4.544   8.557  0.4639  2.9977 -0.5037
 9578TIP3    H252930   4.392   4.459   8.605 -1.1251  0.0272 -1.6678
 9579TIP3   OH252931   0.432   5.507   9.517 -0.0934  0.0149 -0.2978
 9579TIP3    H152932   0.338   5.486   9.521 -0.6704  2.0632 -1.2590
 9579TIP3    H252933   0.457   5.488   9.427  0.0297  0.8368 -0.4456
 9580TIP3   OH252934   1.656   0.231   0.538 -0.1854 -0.3779  0.1423
 9580TIP3    H152935   1.636   0.313   0.583  3.2013  0.3183  0.6532
 9580TIP3    H252936   1.664   0.256   0.446 -0.2614 -0.3618  0.1401
 9581TIP3   OH252937   6.075   5.751   8.019 -0.0184 -0.3515 -0.1122
 9581TIP3    H152938   6.152   5.699   8.039 -1.5480 -2.5928  0.3620
 9581TIP3    H252939   6.057   5.800   8.099  0.3897 -0.4879  0.0639
 9582TIP3   OH252940   1.175   2.477   8.003  0.2862 -0.2225 -0.2382
 9582TIP3    H152941   1.189   2.458   8.095 -0.0663 -1.2093 -0.3740
 9582TIP3    H252942   1.082   2.459   7.988  0.9798 -3.4586 -1.4977
 9583TIP3   OH252943   3.062   6.433   0.697 -0.3435 -0.3305 -0.0569
 9583TIP3    H152944   3.097   6.432   0.786 -0.6762 -0.8004  0.0713
 9583TIP3    H252945   3.090   6.517   0.662  1.5826 -0.9873 -0.2297
 9584TIP3   OH252946   3.053   3.105   0.536  0.1691 -0.3270 -0.1795
 9584TIP3    H152947   3.049   3.054   0.616  0.9692  0.5484  0.4363
 9584TIP3    H252948   3.134   3.154   0.542 -0.0398  0.1907 -1.2624
 9585TIP3   OH252949   4.890   2.721   6.668 -0.2501 -0.3926 -0.5904
 9585TIP3    H152950   4.958   2.763   6.614 -0.3290  0.3753 -0.1114
 9585TIP3    H252951   4.924   2.633   6.685  0.9090  0.1721  0.1233
 9586TIP3   OH252952   5.485   0.880   0.251 -0.0108  0.0962  0.7383
 9586TIP3    H152953   5.478   0.911   0.160 -0.2013 -1.1403  0.3080
 9586TIP3    H252954   5.426   0.804   0.254 -0.1229  0.2244  1.9466
 9587TIP3   OH252955   6.740   0.590   1.869  0.3097  0.0219 -0.6216
 9587TIP3    H152956   6.804   0.599   1.940  0.3464 -0.4268 -0.5964
 9587TIP3    H252957   6.790   0.552   1.796  0.0258 -0.5278 -0.5329
 9588TIP3   OH252958   2.434   3.705   2.004 -0.4228  0.3142 -0.0568
 9588TIP3    H152959   2.464   3.614   1.997 -1.4088 -0.1157  0.8619
 9588TIP3    H252960   2.499   3.756   1.957  1.2627 -0.6516  1.1057
 9589TIP3   OH252961   0.644   0.156   1.319  0.0004  0.2582  0.1377
 9589TIP3    H152962   0.568   0.115   1.360 -0.2344 -0.8549 -1.3321
 9589TIP3    H252963   0.664   0.232   1.374 -0.9992 -0.5152  1.6073
 9590TIP3   OH252964   5.208   3.569   0.331 -0.0580  0.4917 -0.2440
 9590TIP3    H152965   5.292   3.567   0.286 -0.6503  0.1032 -1.3573
 9590TIP3    H252966   5.169   3.483   0.315 -0.3476  0.3844  0.9118
 9591TIP3   OH252967   1.788   5.520   1.541  0.3331  0.1228  0.1901
 9591TIP3    H152968   1.806   5.576   1.465  0.1943 -0.6256 -0.4160
 9591TIP3    H252969   1.702   5.548   1.572  0.7550  0.9937  0.5906
 9592TIP3   OH252970   1.241   0.176   9.061  0.9307  0.0040  0.1714
 9592TIP3    H152971   1.290   0.130   9.129  1.0827 -0.3223 -0.1521
 9592TIP3    H252972   1.245   0.268   9.086  3.1412  0.2132 -0.6970
 9593TIP3   OH252973   4.093   3.548   1.351  0.7019 -0.6850  0.4552
 9593TIP3    H152974   4.171   3.545   1.406 -0.2405 -0.5767  1.8571
 9593TIP3    H252975   4.079   3.641   1.334  0.6036 -0.6690  0.6208
 9594TIP3   OH252976   7.071   1.035   1.264  0.1157 -0.0301 -0.2265
 9594TIP3    H152977   7.157   1.050   1.225  0.0642 -0.6832 -0.6078
 9594TIP3    H252978   7.040   1.122   1.289  1.8397  0.0192  2.0155
 9595TIP3   OH252979   2.670   1.647   1.179 -0.2789 -0.4033 -0.6718
 9595TIP3    H152980   2.576   1.641   1.168 -0.3089  0.3405 -0.9034
 9595TIP3    H252981   2.702   1.557   1.168 -0.8696 -0.5222 -1.5151
 9596TIP3   OH252982   1.554   5.863   2.230 -0.0340 -0.4607 -0.0146
 9596TIP3    H152983   1.596   5.846   2.314 -0.6435  0.3246  0.4630
 9596TIP3    H252984   1.464   5.888   2.252 -1.7626 -4.6834 -1.0798
 9597TIP3   OH252985   7.217   4.436   9.387 -0.1717  0.2547 -0.3733
 9597TIP3    H152986   7.185   4.522   9.357 -1.6784  0.7329  2.2773
 9597TIP3    H252987   7.168   4.420   9.468  0.1455 -3.0943 -0.7281
 9598TIP3   OH252988   2.308   1.584   7.352  0.0250 -0.2431 -0.0668
 9598TIP3    H152989   2.359   1.653   7.310  0.5823  0.2345  1.3530
 9598TIP3    H252990   2.318   1.509   7.294 -1.2588  1.0520 -2.0721
 9599TIP3   OH252991   2.452   0.259   8.839  0.6389  0.0788  0.2469
 9599TIP3    H152992   2.464   0.319   8.912  1.2486 -0.8710  0.9423
 9599TIP3    H252993   2.406   0.184   8.876  0.4458 -0.1732 -0.4737
 9600TIP3   OH252994   2.428   0.807   1.454  0.9419 -0.5965  0.5732
 9600TIP3    H152995   2.465   0.768   1.375  0.2976  1.9795 -1.1261
 9600TIP3    H252996   2.336   0.783   1.453  0.7439  0.1488  0.0251
 9601TIP3   OH252997   1.481   6.605   2.064  0.1962  0.3393 -0.4110
 9601TIP3    H152998   1.440   6.689   2.042 -1.5129  0.1447  1.6720
 9601TIP3    H252999   1.535   6.624   2.141 -1.1697 -0.6105  0.8544
 9602TIP3   OH253000   6.725   4.694   8.111  0.6887  0.5187  0.2410
 9602TIP3    H153001   6.642   4.682   8.066  2.1298 -0.5736 -2.3365
 9602TIP3    H253002   6.724   4.785   8.141 -0.7888  0.9748 -1.1085
 9603TIP3   OH253003   2.790   1.084   1.503 -0.0919  0.1173  0.2990
 9603TIP3    H153004   2.835   1.014   1.455 -0.8406  0.0547 -0.3397
 9603TIP3    H253005   2.858   1.146   1.525  0.1488  0.6377 -1.7333
 9604TIP3   OH253006   6.253   4.659   0.362  0.2207 -0.3084 -0.0716
 9604TIP3    H153007   6.215   4.613   0.287  1.5700 -0.0234 -0.9635
 9604TIP3    H253008   6.184   4.718   0.392 -0.2888 -0.3080 -1.1937
 9605TIP3   OH253009   2.630   0.342   8.663 -0.8168  0.3732 -0.3442
 9605TIP3    H153010   2.557   0.296   8.705  0.5458  0.2264  2.0501
 9605TIP3    H253011   2.591   0.382   8.585 -3.4658  0.3402  0.8346
 9606TIP3   OH253012   4.871   2.608   2.329  0.6947  0.0226 -0.4096
 9606TIP3    H153013   4.850   2.638   2.418  1.7928  0.0743 -0.1504
 9606TIP3    H253014   4.815   2.662   2.272  0.1152  0.1186  0.2313
 9607TIP3   OH253015   5.254   4.604   7.129 -0.2809  0.6226  0.3019
 9607TIP3    H153016   5.306   4.630   7.206 -1.3603  1.4304  0.7937
 9607TIP3    H253017   5.202   4.681   7.109 -1.0355 -0.0545 -0.3921
 9608TIP3   OH253018   7.409   3.979   8.900 -0.3333 -0.3550  0.4086
 9608TIP3    H153019   7.458   4.056   8.929  1.4664 -1.3240  0.0850
 9608TIP3    H253020   7.342   3.967   8.968 -1.4084  2.1044 -0.1137
 9609TIP3   OH253021   4.657   3.572   8.802  0.2533  0.2857 -0.6129
 9609TIP3    H153022   4.643   3.665   8.788  0.3603  0.2591 -0.8945
 9609TIP3    H253023   4.595   3.549   8.872  0.3178  0.5914 -0.4520
 9610TIP3   OH253024   3.149   1.206   9.048  0.0358  0.1077  0.1012
 9610TIP3    H153025   3.177   1.134   8.992  0.3631 -1.9630  2.7452
 9610TIP3    H253026   3.227   1.261   9.057  1.1973 -1.6799  1.5774
 9611TIP3   OH253027   2.116   7.353   1.347  0.7886 -0.1918  0.0878
 9611TIP3    H153028   2.079   7.433   1.384  1.1867 -0.5703  1.3496
 9611TIP3    H253029   2.206   7.378   1.323  1.1683 -0.4429  1.1952
 9612TIP3   OH253030   7.232   6.547   8.863 -0.2153  0.0321 -0.3330
 9612TIP3    H153031   7.236   6.452   8.856 -0.2002 -0.0322  0.5136
 9612TIP3    H253032   7.301   6.578   8.805  2.6801 -0.6121  2.5067
 9613TIP3   OH253033   6.288   7.198   0.728  0.3475 -0.7313  0.4531
 9613TIP3    H153034   6.307   7.211   0.821 -0.0518 -0.3568  0.4885
 9613TIP3    H253035   6.200   7.160   0.727  0.1275 -0.2294  0.2105
 9614TIP3   OH253036   1.622   6.695   2.266 -0.5702 -0.4472 -0.0154
 9614TIP3    H153037   1.607   6.687   2.360  0.8821 -0.9113  0.2062
 9614TIP3    H253038   1.679   6.772   2.258 -1.5800  0.2683 -0.6444
 9615TIP3   OH253039   6.617   2.159   1.568 -0.1335 -0.2948  0.2498
 9615TIP3    H153040   6.545   2.097   1.570 -1.5595  1.3090  1.4576
 9615TIP3    H253041   6.689   2.113   1.612 -1.1559 -1.0854  1.1513
 9616TIP3   OH253042   5.811   1.429   0.458  0.1967  0.1830  0.1996
 9616TIP3    H153043   5.906   1.417   0.452 -0.1666 -2.4811 -3.4968
 9616TIP3    H253044   5.794   1.513   0.417  0.9356  1.0782  1.6426
 9617TIP3   OH253045   1.444   0.425   7.559  0.1983 -0.6051  0.3000
 9617TIP3    H153046   1.461   0.493   7.493 -3.1447  1.4321  1.2944
 9617TIP3    H253047   1.391   0.360   7.513  1.0452 -1.1623  0.0793
 9618TIP3   OH253048   3.236   3.517   6.900 -0.6708 -0.1601 -0.4174
 9618TIP3    H153049   3.261   3.500   6.809 -0.9293 -0.6855 -0.3981
 9618TIP3    H253050   3.155   3.568   6.893 -0.5633  0.0029 -0.4810
 9619TIP3   OH253051   4.205   1.550   0.999  0.3258 -0.0462 -0.7882
 9619TIP3    H153052   4.169   1.467   0.970 -1.6785 -1.6199  4.8781
 9619TIP3    H253053   4.133   1.612   0.990 -0.2420 -0.4943  0.4359
 9620TIP3   OH253054   2.995   6.313   2.444  0.4947  0.2351 -0.1277
 9620TIP3    H153055   3.039   6.254   2.382  0.2950  1.0191 -1.0413
 9620TIP3    H253056   3.066   6.365   2.481  0.5991 -0.1392  0.2079
 9621TIP3   OH253057   6.725   6.680   8.518  0.2350  0.3527 -0.1240
 9621TIP3    H153058   6.655   6.684   8.453  0.4971 -1.4225 -0.5520
 9621TIP3    H253059   6.742   6.772   8.540 -0.4893  0.9437 -1.8610
 9622TIP3   OH253060   5.616   2.983   2.127  0.1031 -0.4692  0.1987
 9622TIP3    H153061   5.558   3.059   2.125  0.1807 -0.4178 -0.8812
 9622TIP3    H253062   5.557   2.908   2.134 -0.1211 -0.4169 -0.9023
 9623TIP3   OH253063   3.774   4.805   8.650 -0.0653  0.5859 -0.2553
 9623TIP3    H153064   3.744   4.888   8.613 -0.0614 -0.0816 -1.8382
 9623TIP3    H253065   3.859   4.825   8.689  0.1635  1.2449 -1.0535
 9624TIP3   OH253066   5.274   0.360   7.114 -0.0706 -0.1934  0.0139
 9624TIP3    H153067   5.205   0.366   7.048  0.0145 -1.1256 -0.1686
 9624TIP3    H253068   5.331   0.435   7.095 -0.5223  0.0522 -0.4131
 9625TIP3   OH253069   5.615   0.184   0.029 -0.5143  0.4465  0.5042
 9625TIP3    H153070   5.611   0.252  -0.039 -1.4118 -1.1070 -1.0726
 9625TIP3    H253071   5.530   0.139   0.024  0.5628 -1.7190  0.4818
 9626TIP3   OH253072   2.794   6.168   0.294 -0.0944 -0.4740 -0.1761
 9626TIP3    H153073   2.836   6.184   0.378 -0.3761 -1.7190  0.2220
 9626TIP3    H253074   2.862   6.128   0.240 -0.3158 -1.0225 -0.0538
 9627TIP3   OH253075   7.381   1.235   8.903 -0.5529  0.2231  0.1542
 9627TIP3    H153076   7.291   1.213   8.879 -1.1126  1.4852  0.9719
 9627TIP3    H253077   7.373   1.317   8.952  0.8971 -0.4139  1.5404
 9628TIP3   OH253078   6.878   6.468   0.932 -0.0626 -0.1028  0.4173
 9628TIP3    H153079   6.911   6.481   1.021  0.6155 -0.3944  0.2136
 9628TIP3    H253080   6.783   6.462   0.942 -0.0226  0.2566  1.0720
 9629TIP3   OH253081   6.788   0.955   0.270 -0.0522 -0.0785  0.7500
 9629TIP3    H153082   6.699   0.982   0.248  0.0783  0.7465  1.1934
 9629TIP3    H253083   6.784   0.932   0.362  0.4885  1.3797  1.1689
 9630TIP3   OH253084   6.346   3.275   8.583  0.1632  0.0321 -0.0041
 9630TIP3    H153085   6.253   3.254   8.585  0.1250 -0.2191 -1.9380
 9630TIP3    H253086   6.388   3.196   8.548  0.8625  0.7418 -0.8350
 9631TIP3   OH253087   1.058   2.853   1.349  0.2133  0.0877  0.4559
 9631TIP3    H153088   0.996   2.896   1.290  0.7655 -0.1310 -0.2920
 9631TIP3    H253089   1.100   2.924   1.397 -0.1446  0.2722  0.4979
 9632TIP3   OH253090   3.564   0.788   8.087  0.3600 -0.3357  0.3779
 9632TIP3    H153091   3.514   0.846   8.145 -0.4701 -1.5851  0.9647
 9632TIP3    H253092   3.553   0.701   8.125 -0.5836 -1.2887 -1.8881
 9633TIP3   OH253093   2.187   6.805   0.054  0.1734  0.4747 -0.1465
 9633TIP3    H153094   2.253   6.794  -0.013  0.1796 -1.0113  0.0785
 9633TIP3    H253095   2.232   6.786   0.136  0.0823  1.9325  0.2797
 9634TIP3   OH253096   4.595   5.097   2.196  0.5240 -0.2065  0.4575
 9634TIP3    H153097   4.603   5.162   2.266 -1.9044 -0.3936  1.0166
 9634TIP3    H253098   4.614   5.146   2.115  1.0473  0.6063  1.0633
 9635TIP3   OH253099   5.273   6.672   1.178 -0.1370 -0.5730 -0.2046
 9635TIP3    H153100   5.221   6.696   1.255  1.2719  0.1273  0.5470
 9635TIP3    H253101   5.289   6.578   1.189  0.6672 -0.3392  0.7529
 9636TIP3   OH253102   3.087   0.308   1.314 -0.4227  0.6171  0.5736
 9636TIP3    H153103   3.164   0.356   1.285 -0.4487  0.5507  0.3911
 9636TIP3    H253104   3.108   0.279   1.402 -0.3467  0.8314  0.6274
 9637TIP3   OH253105   2.139   2.488   9.549 -0.1732 -0.1411 -0.5605
 9637TIP3    H153106   2.148   2.441   9.466  0.3713  0.0029 -0.5864
 9637TIP3    H253107   2.096   2.570   9.526 -1.9565 -0.9949 -0.3822
 9638TIP3   OH253108   4.538   1.796   7.643 -0.4516  0.0495  0.4523
 9638TIP3    H153109   4.630   1.770   7.646 -0.3508  0.2224 -0.8178
 9638TIP3    H253110   4.530   1.864   7.710  0.7215  1.1757 -0.5014
 9639TIP3   OH253111   3.278   4.501   1.119 -0.4278  0.2437 -0.2483
 9639TIP3    H153112   3.332   4.561   1.170 -0.8604 -0.2829  0.8683
 9639TIP3    H253113   3.301   4.520   1.028  0.5845  1.0077  0.1392
 9640TIP3   OH253114   0.846   5.311   8.698  0.6918 -0.6215  0.3361
 9640TIP3    H153115   0.804   5.243   8.646 -0.5461  0.7730 -0.5557
 9640TIP3    H253116   0.788   5.324   8.772  0.5033 -0.0005  0.0857
 9641TIP3   OH253117   6.916   5.574   7.459 -0.6693 -0.0300  0.4357
 9641TIP3    H153118   6.859   5.531   7.522 -1.0394 -0.2361 -0.0418
 9641TIP3    H253119   6.873   5.562   7.374 -0.1835  0.2590  0.1425
 9642TIP3   OH253120   6.974   6.301   6.841 -0.0552 -0.5062 -0.1402
 9642TIP3    H153121   7.041   6.340   6.898 -1.3149  1.2456  0.2091
 9642TIP3    H253122   7.015   6.298   6.754  0.6900 -0.0635  0.1879
 9643TIP3   OH253123   7.204   3.173   2.913  0.6225  0.3952  0.4156
 9643TIP3    H153124   7.213   3.251   2.967 -0.0719  1.8646 -1.4565
 9643TIP3    H253125   7.112   3.172   2.888  0.8486 -0.4146 -0.4488
 9644TIP3   OH253126   4.025   1.001   9.526  0.3375  0.3712  0.1383
 9644TIP3    H153127   4.023   1.010   9.621 -0.9535  2.3431 -0.0210
 9644TIP3    H253128   4.112   0.966   9.508 -0.0073 -1.7917  2.1182
 9645TIP3   OH253129   6.698   5.608   8.583 -0.0374 -0.1106 -1.1560
 9645TIP3    H153130   6.743   5.662   8.517  1.5667 -1.1072 -0.9209
 9645TIP3    H253131   6.614   5.653   8.597 -0.0008  0.6780 -3.1267
 9646TIP3   OH253132   2.426   5.665   8.979  0.2460  0.1989 -0.4955
 9646TIP3    H153133   2.353   5.642   9.037  1.2054  0.0357  0.7058
 9646TIP3    H253134   2.501   5.673   9.038  1.2508  0.1355 -1.7231
 9647TIP3   OH253135   7.329   1.672   1.511 -0.3027 -0.1235 -0.2657
 9647TIP3    H153136   7.294   1.684   1.599  1.2114  3.7333 -0.0081
 9647TIP3    H253137   7.367   1.584   1.512 -0.1748 -0.1569  3.0023
 9648TIP3   OH253138   6.429   4.078   1.556 -0.1147  0.1068  0.3695
 9648TIP3    H153139   6.358   4.026   1.517 -0.7372  1.3859 -0.2736
 9648TIP3    H253140   6.492   4.013   1.585 -0.4561 -0.9993 -1.1914
 9649TIP3   OH253141   5.798   0.732   7.493  0.0560  0.5587 -0.0252
 9649TIP3    H153142   5.860   0.784   7.441 -0.5097 -1.6433 -3.1868
 9649TIP3    H253143   5.715   0.778   7.484  0.2707  0.9939  0.1999
 9650TIP3   OH253144   3.717   5.307   1.302 -0.2874 -0.1027 -0.0747
 9650TIP3    H153145   3.662   5.376   1.339  0.4006  0.0629  0.6624
 9650TIP3    H253146   3.757   5.348   1.225  0.9596  0.7124  0.9580
 9651TIP3   OH253147   3.119   0.899   8.062 -0.3235  0.2421 -0.8718
 9651TIP3    H153148   3.158   0.813   8.045 -3.8902 -1.3650 -1.7153
 9651TIP3    H253149   3.139   0.951   7.984  1.6503  0.1815 -0.4547
 9652TIP3   OH253150   6.918   1.524   7.739 -0.1190  0.2047 -0.2715
 9652TIP3    H153151   7.006   1.485   7.734  0.0589  0.5908 -0.1781
 9652TIP3    H253152   6.931   1.606   7.787 -0.1847  1.2889 -2.0284
 9653TIP3   OH253153   3.472   1.647   8.385  0.2771  0.2495  0.2321
 9653TIP3    H153154   3.552   1.595   8.379 -0.1725 -0.5545  1.0822
 9653TIP3    H253155   3.482   1.713   8.316  0.5822 -1.3301 -1.3119
 9654TIP3   OH253156   1.188   2.322   1.958  0.4747 -0.2496  0.1143
 9654TIP3    H153157   1.271   2.348   1.999 -0.1104  0.2619  1.0290
 9654TIP3    H253158   1.160   2.399   1.910  0.1782 -0.1692  0.4105
 9655TIP3   OH253159   0.144   5.616   1.820 -0.1696  0.1692 -0.2453
 9655TIP3    H153160   0.225   5.626   1.769  0.7386 -1.4634  0.7661
 9655TIP3    H253161   0.090   5.691   1.795  1.7225  1.4130 -0.8321
 9656TIP3   OH253162   2.907   4.094   0.029 -0.3084  0.2720 -0.4776
 9656TIP3    H153163   2.832   4.084  -0.030 -0.5298 -1.9351  0.1099
 9656TIP3    H253164   2.868   4.098   0.117  0.2514 -2.7899  0.0126
 9657TIP3   OH253165   6.940   3.033   8.352  0.2888 -0.9343  0.5585
 9657TIP3    H153166   6.850   3.007   8.374  0.3707 -3.4163 -1.5460
 9657TIP3    H253167   6.994   2.959   8.378  1.2712 -0.8416 -1.0620
 9658TIP3   OH253168   7.365   1.193   0.763  0.1310 -0.1045  0.1241
 9658TIP3    H153169   7.449   1.160   0.731 -0.2115 -3.2046  1.9592
 9658TIP3    H253170   7.380   1.210   0.856 -1.1762 -0.5090  0.4306
 9659TIP3   OH253171   4.509   6.296   9.640 -1.1553  0.2676 -0.1306
 9659TIP3    H153172   4.452   6.219   9.638  0.1077 -0.7153 -0.2954
 9659TIP3    H253173   4.597   6.260   9.624 -0.2774  1.5173  1.6308
 9660TIP3   OH253174   0.830   3.699   0.011  0.3344  0.1108  0.1338
 9660TIP3    H153175   0.762   3.661   0.066  0.6115 -1.2207 -0.4024
 9660TIP3    H253176   0.783   3.731  -0.066  0.2778 -0.6267 -0.1460
 9661TIP3   OH253177   6.031   4.016   0.601  0.7243  0.3458 -0.0346
 9661TIP3    H153178   6.119   4.030   0.566  0.2020  0.4215 -1.3976
 9661TIP3    H253179   6.001   3.936   0.557  0.1019  0.3435  0.3859
 9662TIP3   OH253180   0.438   0.277   9.587  0.4219  0.5207 -0.0618
 9662TIP3    H153181   0.507   0.218   9.557 -1.3650 -1.1509 -1.0614
 9662TIP3    H253182   0.485   0.345   9.636  2.6684 -1.0880  0.1782
 9663TIP3   OH253183   6.588   0.518   1.008 -0.2175  0.2434 -0.6262
 9663TIP3    H153184   6.510   0.558   1.049  0.8692  1.2407  0.5465
 9663TIP3    H253185   6.592   0.430   1.045 -1.2401 -0.1299 -1.3430
 9664TIP3   OH253186   7.280   3.969   9.141 -0.4326 -0.2384 -0.4114
 9664TIP3    H153187   7.241   3.894   9.187  0.2920  0.6117  1.7237
 9664TIP3    H253188   7.353   3.996   9.197  0.5064  0.9182 -2.0958
 9665TIP3   OH253189   6.256   6.647   1.338 -0.0362 -0.1785  0.1127
 9665TIP3    H153190   6.231   6.704   1.265  2.2162 -1.2055 -1.5896
 9665TIP3    H253191   6.320   6.698   1.388 -0.8101  0.1435  0.7863
 9666TIP3   OH253192   2.346   6.666   9.472  0.2749 -0.1940 -0.3974
 9666TIP3    H153193   2.417   6.657   9.535 -0.1385  1.2800  0.3356
 9666TIP3    H253194   2.322   6.758   9.476 -0.6444 -0.3431 -1.7686
 9667TIP3   OH253195   7.418   0.323   7.716 -0.2580 -0.1509  0.1463
 9667TIP3    H153196   7.453   0.281   7.637 -0.5177  0.6539 -0.4077
 9667TIP3    H253197   7.327   0.292   7.722 -0.9593  1.5397 -1.1664
 9668TIP3   OH253198   2.447   4.330   6.882 -0.3678 -0.5618  0.1360
 9668TIP3    H153199   2.417   4.412   6.843  1.0486 -0.4600 -0.8236
 9668TIP3    H253200   2.450   4.269   6.809 -0.1951 -1.1236  0.6075
 9669TIP3   OH253201   6.480   4.690   8.663 -0.0750  0.7560  0.0283
 9669TIP3    H153202   6.494   4.645   8.579  0.2432 -0.6915  0.8211
 9669TIP3    H253203   6.406   4.644   8.703  0.5547  0.6069  1.0693
 9670TIP3   OH253204   6.400   1.315   2.426 -0.6961  0.4415  0.0222
 9670TIP3    H153205   6.346   1.367   2.367 -0.7662  1.3459  0.8544
 9670TIP3    H253206   6.347   1.306   2.506  1.0507  3.0621  1.6348
 9671TIP3   OH253207   3.449   5.231   0.631 -0.3464  0.3329 -0.6105
 9671TIP3    H153208   3.404   5.157   0.590 -1.8073  1.0093 -0.2960
 9671TIP3    H253209   3.507   5.191   0.695  0.1605 -0.6119 -1.6221
 9672TIP3   OH253210   3.226   3.311   3.216 -0.4153 -0.2154 -0.3469
 9672TIP3    H153211   3.190   3.247   3.277 -0.8841  0.8129  0.4964
 9672TIP3    H253212   3.263   3.259   3.145  2.9476 -1.7383  2.2021
 9673TIP3   OH253213   5.590   2.287   8.790 -0.2341  0.2250  0.1715
 9673TIP3    H153214   5.577   2.294   8.696  0.3214 -0.5102  0.0382
 9673TIP3    H253215   5.602   2.377   8.820  0.5428  0.3827 -0.5976
 9674TIP3   OH253216   0.455   5.352   0.421 -0.2406  0.1830  0.0043
 9674TIP3    H153217   0.458   5.383   0.511  0.2824  0.3369 -0.0594
 9674TIP3    H253218   0.463   5.432   0.368  1.6255 -0.0554 -0.1584
 9675TIP3   OH253219   3.579   2.829   1.679 -0.1578 -0.3254 -0.5971
 9675TIP3    H153220   3.499   2.829   1.626 -0.0768 -1.9855 -0.7764
 9675TIP3    H253221   3.563   2.761   1.745  0.6759  0.0989  0.0543
 9676TIP3   OH253222   5.081   3.404   7.147  0.6142  0.5848  0.4374
 9676TIP3    H153223   5.128   3.486   7.133  1.0860  0.4853  1.3246
 9676TIP3    H253224   5.100   3.351   7.070  0.0135  1.4412 -0.3046
 9677TIP3   OH253225   7.012   0.641   0.351 -0.0480 -0.6292  0.5452
 9677TIP3    H153226   6.934   0.599   0.386  0.6618 -0.7404  2.0903
 9677TIP3    H253227   7.046   0.579   0.286 -0.6988 -1.0268  0.5827
 9678TIP3   OH253228   2.062   0.070   7.388 -0.3288  0.1433 -0.4319
 9678TIP3    H153229   2.090   0.036   7.303 -1.3784 -0.0073 -0.7253
 9678TIP3    H253230   1.991   0.130   7.369  1.6270  2.8261  0.0557
 9679TIP3   OH253231   6.975   5.822   9.384  0.1871  0.0825  0.2384
 9679TIP3    H153232   6.894   5.807   9.335 -1.1999  0.0621  2.3654
 9679TIP3    H253233   6.973   5.755   9.453  1.5167  0.7175  0.9164
 9680TIP3   OH253234   5.287   5.186   7.213  0.5575 -0.2830  0.0576
 9680TIP3    H153235   5.238   5.121   7.163 -0.6785 -0.3460  1.2833
 9680TIP3    H253236   5.344   5.228   7.148  1.4964 -2.6201 -0.7579
 9681TIP3   OH253237   1.350   5.724   1.942 -0.0400  0.1208  0.3947
 9681TIP3    H153238   1.303   5.775   2.009 -3.2137  1.4527 -2.5769
 9681TIP3    H253239   1.289   5.656   1.917  1.4124 -0.8489 -0.6368
 9682TIP3   OH253240   6.014   5.813   8.790 -0.0853 -0.1294 -0.2747
 9682TIP3    H153241   5.970   5.896   8.809  1.6598  0.6601  0.4659
 9682TIP3    H253242   6.025   5.814   8.695 -0.5097  0.2490 -0.3269
 9683TIP3   OH253243   2.014   7.146   1.538 -0.2750  0.0614 -0.6836
 9683TIP3    H153244   2.064   7.084   1.485  1.1344 -0.1997  0.8685
 9683TIP3    H253245   2.046   7.232   1.513  0.7040 -0.0847  0.0067
 9684TIP3   OH253246   6.352   5.628   0.203  0.3449  0.1564 -0.0141
 9684TIP3    H153247   6.277   5.642   0.145  0.5141 -0.6417 -0.4321
 9684TIP3    H253248   6.319   5.568   0.270  0.7081 -0.4889 -0.4065
 9685TIP3   OH253249   3.745   0.424   8.627 -0.2258 -0.1900 -0.3174
 9685TIP3    H153250   3.752   0.388   8.539 -0.7913 -0.5533 -0.2199
 9685TIP3    H253251   3.743   0.519   8.615 -0.8483 -0.2530 -0.7338
 9686TIP3   OH253252   3.477   2.633   8.350  0.2087 -0.1227  0.3158
 9686TIP3    H153253   3.498   2.542   8.371 -1.3012 -0.5052  0.3048
 9686TIP3    H253254   3.506   2.683   8.426  0.7786 -0.6477  0.4515
 9687TIP3   OH253255   5.442   6.005   7.880  0.2462 -0.1703  0.0134
 9687TIP3    H153256   5.411   5.917   7.901 -0.6458  0.1826  0.2402
 9687TIP3    H253257   5.474   5.999   7.790 -2.0413 -0.2124 -0.8745
 9688TIP3   OH253258   1.249   6.779   7.920 -0.6551 -0.6134  0.0540
 9688TIP3    H153259   1.159   6.753   7.938 -1.4131  1.5356 -0.3317
 9688TIP3    H253260   1.269   6.843   7.989 -0.3196  0.7622 -1.2745
 9689TIP3   OH253261   5.739   3.660   9.584 -0.2094 -0.2800 -0.1225
 9689TIP3    H153262   5.813   3.706   9.624  0.4352 -0.3952 -1.1697
 9689TIP3    H253263   5.778   3.601   9.520 -1.1029 -1.5061  0.4238
 9690TIP3   OH253264   4.743   2.770   8.077  0.1053  0.0699  0.8346
 9690TIP3    H153265   4.716   2.753   7.987  1.9763  2.7964 -0.3790
 9690TIP3    H253266   4.676   2.728   8.131 -0.9717 -1.8257 -1.7785
 9691TIP3   OH253267   5.587   6.793   0.520 -0.5465  0.4205 -0.9037
 9691TIP3    H153268   5.503   6.802   0.475  0.2634  1.8113 -2.2223
 9691TIP3    H253269   5.573   6.721   0.582 -2.6280  0.4657 -1.2389
 9692TIP3   OH253270   6.628   4.578   1.628 -0.0999 -0.2162 -0.3738
 9692TIP3    H153271   6.648   4.663   1.666 -1.6250  0.2782 -0.6065
 9692TIP3    H253272   6.636   4.591   1.533  0.7174 -0.6358 -0.3740
 9693TIP3   OH253273   7.058   3.410   7.869  0.3516 -0.2013 -0.0675
 9693TIP3    H153274   7.030   3.440   7.955  0.5647  0.0724 -0.0940
 9693TIP3    H253275   7.038   3.483   7.810  0.0089 -0.4666 -0.2864
 9694TIP3   OH253276   2.058   5.570   8.939  0.0627 -0.0773  0.7830
 9694TIP3    H153277   2.058   5.587   8.845 -1.1864  0.5780  0.8819
 9694TIP3    H253278   2.087   5.479   8.947  0.4305 -0.0577 -0.2112
 9695TIP3   OH253279   5.405   7.355   1.143 -0.0013 -0.1195  0.1074
 9695TIP3    H153280   5.442   7.314   1.065  0.3392 -0.2267  0.3194
 9695TIP3    H253281   5.477   7.353   1.207 -0.3195 -0.1614  0.4688
 9696TIP3   OH253282   1.760   4.860   1.586 -0.3673  0.3142 -0.0050
 9696TIP3    H153283   1.800   4.883   1.502 -0.9109 -1.2552 -0.7389
 9696TIP3    H253284   1.668   4.843   1.565 -1.1184  2.3499  1.3805
 9697TIP3   OH253285   1.543   0.160   2.597  0.4381 -0.1782  0.3833
 9697TIP3    H153286   1.536   0.251   2.624  2.0155 -0.5064  2.1618
 9697TIP3    H253287   1.483   0.113   2.655  3.1455 -0.7673  2.9859
 9698TIP3   OH253288   2.506   3.592   1.666 -0.1990 -0.1303  0.9912
 9698TIP3    H153289   2.425   3.545   1.646 -0.8367  1.4043 -0.3180
 9698TIP3    H253290   2.478   3.668   1.717  0.5340 -0.0825  1.3395
 9699TIP3   OH253291   4.026   3.747   2.267  0.4712 -0.1400  0.1218
 9699TIP3    H153292   4.030   3.764   2.361 -1.4520 -0.0747  0.2149
 9699TIP3    H253293   4.112   3.710   2.246  0.8914 -0.2531  1.9148
 9700TIP3   OH253294   3.364   1.928   0.032 -0.1596 -0.0272 -0.2251
 9700TIP3    H153295   3.329   1.849   0.073  0.5493 -0.6404 -0.7633
 9700TIP3    H253296   3.459   1.920   0.042 -0.0888  0.8076 -0.2027
 9701TIP3   OH253297   1.423   6.009   1.243  0.3192  0.0219 -0.2265
 9701TIP3    H153298   1.388   6.006   1.154  1.9507 -0.8963 -0.8780
 9701TIP3    H253299   1.441   6.102   1.260 -1.4864  0.3990 -0.2101
 9702TIP3   OH253300   0.635   2.669   2.065  0.3477  0.3031  0.1521
 9702TIP3    H153301   0.665   2.597   2.120 -0.3214 -0.0818  0.0317
 9702TIP3    H253302   0.571   2.629   2.006  0.1509  0.9470 -0.0821
 9703TIP3   OH253303   6.545   1.632   1.760  0.5699  0.2658  0.1445
 9703TIP3    H153304   6.569   1.682   1.838  2.6308  0.6383 -0.6710
 9703TIP3    H253305   6.577   1.544   1.778  2.0226  0.6030 -0.6807
 9704TIP3   OH253306   6.353   3.314   8.204 -0.3370 -0.0945 -0.4144
 9704TIP3    H153307   6.267   3.274   8.220  0.4969 -2.4799 -1.5028
 9704TIP3    H253308   6.348   3.344   8.113  0.2235 -0.9391 -0.7305
 9705TIP3   OH253309   3.743   2.183   1.978  0.1419 -0.1703  0.2811
 9705TIP3    H153310   3.684   2.197   1.904 -1.5988 -2.0334  1.1884
 9705TIP3    H253311   3.823   2.146   1.939 -0.4654 -0.4342 -0.7429
 9706TIP3   OH253312   4.663   6.937   1.626  0.2509 -0.1730  0.3614
 9706TIP3    H153313   4.673   6.844   1.647 -0.4937  0.3255  3.3635
 9706TIP3    H253314   4.572   6.958   1.650  0.4377  1.3467 -0.1334
 9707TIP3   OH253315   3.538   6.203   9.159 -0.3242  0.4937 -0.0918
 9707TIP3    H153316   3.535   6.226   9.066 -0.1705 -1.3236 -0.5918
 9707TIP3    H253317   3.631   6.189   9.177 -0.5320 -1.7593 -0.4206
 9708TIP3   OH253318   6.789   0.856   5.989 -0.2919 -0.2347 -0.0002
 9708TIP3    H153319   6.873   0.813   5.974 -0.2620 -0.0558 -0.3511
 9708TIP3    H253320   6.724   0.788   5.972 -0.2339 -0.2329 -0.2335
 9709TIP3   OH253321   5.197   3.768   1.522 -0.9285  0.5451  0.2820
 9709TIP3    H153322   5.130   3.806   1.465 -1.3004  1.4028  1.2703
 9709TIP3    H253323   5.195   3.820   1.602 -1.4746 -1.5500  1.7403
 9710TIP3   OH253324   4.403   0.864   8.587 -0.8478  0.2403  0.3772
 9710TIP3    H153325   4.357   0.784   8.610  1.7940 -1.5625 -0.0925
 9710TIP3    H253326   4.381   0.879   8.495 -1.3335  0.0603  0.4607
 9711TIP3   OH253327   3.769   6.366   0.073 -0.8537 -0.1774  1.0641
 9711TIP3    H153328   3.827   6.334   0.004 -0.6877  3.0096 -0.4712
 9711TIP3    H253329   3.757   6.291   0.131  0.1019 -2.6475 -1.6617
 9712TIP3   OH253330   6.189   1.588   9.316 -0.3778 -0.1015 -0.3765
 9712TIP3    H153331   6.137   1.659   9.277  0.9743  0.2652 -1.5877
 9712TIP3    H253332   6.262   1.632   9.359  1.2391 -0.7755 -2.3072
 9713TIP3   OH253333   3.138   3.656   0.507 -0.1719  0.2874 -0.2375
 9713TIP3    H153334   3.112   3.659   0.599  0.6031  0.0482  0.0043
 9713TIP3    H253335   3.133   3.563   0.484 -0.0842  0.3101 -0.3483
 9714TIP3   OH253336   2.897   7.190   8.617  0.3480  0.3109  0.1002
 9714TIP3    H153337   2.976   7.145   8.647  0.9651 -1.3004 -3.4899
 9714TIP3    H253338   2.922   7.229   8.533 -2.0867  1.7596 -0.0450
 9715TIP3   OH253339   5.231   1.743   0.279 -0.0341  0.1682  0.5544
 9715TIP3    H153340   5.271   1.826   0.306  0.5144 -0.6315  2.3790
 9715TIP3    H253341   5.298   1.700   0.226 -0.8920  1.4977 -1.7299
 9716TIP3   OH253342   1.548   4.726   2.360 -0.1611 -0.4790  0.2441
 9716TIP3    H153343   1.606   4.680   2.420 -0.0202 -1.3009 -0.4991
 9716TIP3    H253344   1.461   4.718   2.398  0.0551 -0.1637  0.8146
 9717TIP3   OH253345   0.932   3.005   1.142  0.3272  0.1397 -0.1216
 9717TIP3    H153346   1.014   3.040   1.108  1.7910 -2.6651  0.2114
 9717TIP3    H253347   0.895   2.956   1.069  0.1703 -0.5568  0.4138
 9718TIP3   OH253348   0.355   0.806   0.813 -0.2151  0.7532  0.1127
 9718TIP3    H153349   0.263   0.782   0.808  0.4232 -2.7048  1.7406
 9718TIP3    H253350   0.355   0.898   0.838 -3.1707  1.0411 -0.6212
 9719TIP3   OH253351   1.770   6.483   6.940 -0.5741 -0.3750  0.0894
 9719TIP3    H153352   1.717   6.543   6.991  0.2288 -1.4452  2.3062
 9719TIP3    H253353   1.760   6.399   6.984  1.1297 -1.1011 -0.8244
 9720TIP3   OH253354   3.459   7.025   0.659  0.3955 -0.0145 -0.2753
 9720TIP3    H153355   3.375   7.003   0.619 -0.0016 -1.9497  1.4263
 9720TIP3    H253356   3.474   7.117   0.636 -1.2036 -0.1954 -2.2515
 9721TIP3   OH253357   0.280   3.407   8.029  0.4239 -0.4835  0.1781
 9721TIP3    H153358   0.286   3.407   7.934  0.3863 -0.1044  0.1772
 9721TIP3    H253359   0.200   3.357   8.047 -0.6182  1.0377 -0.0595
 9722TIP3   OH253360   7.229   3.533   1.637 -0.6801  0.2789 -0.0373
 9722TIP3    H153361   7.156   3.544   1.577 -1.0662 -1.5997  0.0240
 9722TIP3    H253362   7.216   3.446   1.675  3.2000 -1.5068 -2.2626
 9723TIP3   OH253363   5.199   4.262   6.614  0.8066  0.8466 -0.2620
 9723TIP3    H153364   5.292   4.282   6.626  0.4773  2.0427  0.4138
 9723TIP3    H253365   5.156   4.347   6.607 -0.3943  0.3444  0.5943
 9724TIP3   OH253366   4.387   4.913   2.627  0.1089 -0.5195  0.3327
 9724TIP3    H153367   4.437   4.989   2.658  0.4351  0.1373 -1.6821
 9724TIP3    H253368   4.304   4.949   2.597  0.1796 -0.9853 -0.4496
 9725TIP3   OH253369   1.079   4.427   0.989  0.0312 -0.3566 -0.0229
 9725TIP3    H153370   1.160   4.397   1.031  1.5726  1.2975 -1.6749
 9725TIP3    H253371   1.092   4.410   0.896 -1.7420 -0.4601 -0.2877
 9726TIP3   OH253372   1.618   0.673   9.093  0.4068 -0.3579 -0.1158
 9726TIP3    H153373   1.689   0.700   9.152  0.9178  0.9470 -1.2575
 9726TIP3    H253374   1.562   0.750   9.086 -0.7534 -1.1454  0.2008
 9727TIP3   OH253375   1.222   1.063   6.507  0.4054 -0.1239 -0.0670
 9727TIP3    H153376   1.191   0.983   6.549  0.5491  0.2154  0.6998
 9727TIP3    H253377   1.145   1.119   6.503  0.0412 -0.6806 -1.5771
 9728TIP3   OH253378   1.811   5.478   0.232 -0.2136  0.0065 -0.0744
 9728TIP3    H153379   1.842   5.478   0.142 -0.5679  1.1355 -0.2141
 9728TIP3    H253380   1.887   5.505   0.284  0.7009 -2.8711  0.2914
 9729TIP3   OH253381   4.377   5.457   0.125 -0.3528 -0.0774 -0.0836
 9729TIP3    H153382   4.420   5.476   0.209  0.8795 -0.0099 -0.6985
 9729TIP3    H253383   4.342   5.542   0.097  1.3201  0.4460 -0.7401
 9730TIP3   OH253384   3.608   1.802   0.035  0.6042 -0.2768  0.7477
 9730TIP3    H153385   3.665   1.814  -0.041 -0.2967 -0.1496  0.0787
 9730TIP3    H253386   3.668   1.798   0.110  1.6509 -2.3122 -0.1310
 9731TIP3   OH253387   5.235   0.350   1.604  0.6070 -0.2492 -0.2771
 9731TIP3    H153388   5.243   0.445   1.614  1.0927 -0.2872 -0.2694
 9731TIP3    H253389   5.182   0.339   1.526  1.0411  0.0315 -0.6198
 9732TIP3   OH253390   0.030   3.057   9.648  0.4795 -0.3783  0.3817
 9732TIP3    H153391   0.123   3.063   9.628  0.3289  0.4930 -0.0804
 9732TIP3    H253392  -0.014   3.102   9.576 -0.3314 -1.1960  0.3451
 9733TIP3   OH253393   5.787   2.618   2.495  0.4204 -0.2290 -0.2953
 9733TIP3    H153394   5.704   2.633   2.541  0.1811 -0.6865 -0.5687
 9733TIP3    H253395   5.809   2.527   2.514  0.5212 -0.3060 -0.7630
 9734TIP3   OH253396   5.106   2.687   1.110  0.2276 -0.8558 -0.3589
 9734TIP3    H153397   5.172   2.633   1.067 -1.7972 -1.7096 -2.5849
 9734TIP3    H253398   5.045   2.624   1.148 -0.8060 -0.1210 -0.7709
 9735TIP3   OH253399   3.489   6.699   1.612 -0.0288  0.0288  0.0973
 9735TIP3    H153400   3.558   6.758   1.641  1.0233 -0.6227 -1.0219
 9735TIP3    H253401   3.530   6.613   1.608 -0.7530 -0.2943 -1.0438
 9736TIP3   OH253402   1.780   2.861   7.003 -0.0053 -0.2010 -0.7603
 9736TIP3    H153403   1.772   2.892   7.094 -0.4853  1.4430 -1.3209
 9736TIP3    H253404   1.809   2.771   7.011 -0.3849 -0.2060  1.0457
 9737TIP3   OH253405   4.002   2.167   1.847  0.2381 -0.4653 -0.3896
 9737TIP3    H153406   4.095   2.162   1.827  0.0518 -0.2893 -1.3768
 9737TIP3    H253407   3.959   2.134   1.768 -0.5387 -0.4860  0.0290
 9738TIP3   OH253408   3.484   3.687   1.405 -0.4655 -0.2680 -0.1951
 9738TIP3    H153409   3.402   3.706   1.452  0.1597  0.5714  0.5885
 9738TIP3    H253410   3.541   3.650   1.471  0.1854  0.2539 -0.4567
 9739TIP3   OH253411   7.163   0.456   2.600 -0.3288 -0.1186 -0.1316
 9739TIP3    H153412   7.133   0.545   2.614 -1.9653 -1.0895  3.8534
 9739TIP3    H253413   7.253   0.456   2.630 -0.7805 -0.0721  1.2681
 9740TIP3   OH253414   3.879   5.391   1.096 -0.4931 -0.0378 -0.1336
 9740TIP3    H153415   3.876   5.297   1.077 -1.7668 -0.5359  2.2619
 9740TIP3    H253416   3.837   5.431   1.020  1.3152 -1.2113 -1.8710
 9741TIP3   OH253417   5.258   2.661   9.490 -0.3641 -0.7224  0.5635
 9741TIP3    H153418   5.293   2.595   9.549 -1.0775 -1.2061  0.4589
 9741TIP3    H253419   5.323   2.670   9.421  1.4992  1.3470  2.4403
 9742TIP3   OH253420   1.194   1.548   8.361  0.3881 -0.4398  0.2651
 9742TIP3    H153421   1.175   1.641   8.350 -0.5363 -0.7674 -1.2809
 9742TIP3    H253422   1.156   1.506   8.283 -1.2503 -2.3887  1.9768
 9743TIP3   OH253423   6.163   1.220   9.236  0.2135 -0.4810 -0.1989
 9743TIP3    H153424   6.165   1.310   9.203  0.6245  0.0755  1.2850
 9743TIP3    H253425   6.252   1.187   9.221  0.0863 -0.6219 -0.6643
 9744TIP3   OH253426   4.817   5.305   9.236 -0.3475  0.6314  0.1516
 9744TIP3    H153427   4.774   5.334   9.155 -0.8956  2.3855  1.0218
 9744TIP3    H253428   4.748   5.310   9.302  0.4510  0.5905  0.9965
 9745TIP3   OH253429   6.800   5.317   1.490 -0.3682 -1.0842 -0.4102
 9745TIP3    H153430   6.729   5.374   1.464  0.8106 -0.0454 -1.4943
 9745TIP3    H253431   6.844   5.294   1.408  2.5533  1.0570  0.3729
 9746TIP3   OH253432   6.850   2.681   8.929 -0.4093 -0.4503 -0.6591
 9746TIP3    H153433   6.754   2.687   8.935 -0.2874  0.4943  0.8286
 9746TIP3    H253434   6.878   2.771   8.909  0.1333 -0.9331 -2.2289
 9747TIP3   OH253435   6.435   2.469   0.809  0.4738 -0.6074 -0.0823
 9747TIP3    H153436   6.351   2.428   0.831  0.1128  0.5301  0.7156
 9747TIP3    H253437   6.423   2.500   0.719 -0.0066 -0.3447  0.0688
 9748TIP3   OH253438   3.720   0.379   1.666  0.2199 -0.1317 -0.1705
 9748TIP3    H153439   3.785   0.311   1.648  1.7173  1.2740 -0.3558
 9748TIP3    H253440   3.703   0.419   1.581 -0.0778  0.2024  0.0422
 9749TIP3   OH253441   1.531   3.593   2.197 -0.3394  0.8502  0.0337
 9749TIP3    H153442   1.621   3.567   2.216 -1.1765 -0.9887  1.8601
 9749TIP3    H253443   1.516   3.566   2.107  0.9125  1.1652 -0.2795
 9750TIP3   OH253444   4.596   6.715   0.766  0.2283 -0.1919 -0.2219
 9750TIP3    H153445   4.691   6.720   0.759  0.1855 -0.1325 -0.8564
 9750TIP3    H253446   4.573   6.630   0.729 -0.0519  0.2929 -1.2086
 9751TIP3   OH253447   2.736   3.570   1.195  0.0297  0.2698  0.2812
 9751TIP3    H153448   2.738   3.665   1.177 -1.7512  0.1294 -0.9904
 9751TIP3    H253449   2.655   3.540   1.153  0.2087 -1.7182  1.2540
 9752TIP3   OH253450   5.198   6.856   2.265  0.0115 -0.4229 -0.3139
 9752TIP3    H153451   5.270   6.815   2.218 -0.6105 -0.7263 -1.0286
 9752TIP3    H253452   5.190   6.805   2.346 -0.7563 -1.7582 -1.1918
 9753TIP3   OH253453   6.727   5.938   9.649  0.1450 -0.1047 -0.8631
 9753TIP3    H153454   6.701   5.966   9.561 -0.6451  0.7126 -0.3800
 9753TIP3    H253455   6.766   6.016   9.689 -0.6410 -0.1090 -0.0593
 9754TIP3   OH253456   4.360   1.559   8.587  0.2312 -0.1650  0.0137
 9754TIP3    H153457   4.366   1.611   8.667  1.2217 -0.6486  0.2721
 9754TIP3    H253458   4.449   1.559   8.552  0.1778 -1.3844 -0.1671
 9755TIP3   OH253459   0.692   3.288   0.707  0.0816  1.0375 -0.5575
 9755TIP3    H153460   0.778   3.296   0.747  0.1202 -0.2975 -0.3334
 9755TIP3    H253461   0.635   3.258   0.778 -0.0270 -0.5538 -1.2881
 9756TIP3   OH253462   0.689   7.139   6.947 -0.2465 -0.6632 -0.5858
 9756TIP3    H153463   0.777   7.131   6.909 -0.2789 -0.3667 -0.7241
 9756TIP3    H253464   0.654   7.220   6.910 -0.2328 -0.3056  0.1838
 9757TIP3   OH253465   1.165   5.459   0.970 -0.4876 -0.3359 -0.1951
 9757TIP3    H153466   1.158   5.541   1.019  0.4034 -0.9002  0.9177
 9757TIP3    H253467   1.092   5.406   1.001  1.3048 -1.5399  2.2639
 9758TIP3   OH253468   2.518   0.538   9.396 -0.5637  0.8347  0.0508
 9758TIP3    H153469   2.495   0.471   9.461  0.5215  1.7780  1.4681
 9758TIP3    H253470   2.438   0.590   9.387 -1.8020 -1.2474 -1.9289
 9759TIP3   OH253471   6.726   4.374   7.353 -0.4684  0.2512 -0.6180
 9759TIP3    H153472   6.801   4.374   7.294 -2.3944 -1.6536 -3.2939
 9759TIP3    H253473   6.745   4.305   7.416  0.7294  0.9248 -0.2191
 9760TIP3   OH253474   2.214   6.289   7.091 -0.0119  0.2892  0.1891
 9760TIP3    H153475   2.163   6.211   7.069  0.8765 -0.3995  0.5088
 9760TIP3    H253476   2.149   6.353   7.120 -0.8589  0.0421 -1.1014
 9761TIP3   OH253477   0.777   2.136   0.287 -0.4117 -0.3695 -0.5847
 9761TIP3    H153478   0.806   2.171   0.203  1.6727  0.0590  0.2474
 9761TIP3    H253479   0.830   2.058   0.301 -0.1420  0.0082  0.6617
 9762TIP3   OH253480   4.656   3.630   1.941 -0.2464  0.1235  0.0488
 9762TIP3    H153481   4.724   3.626   1.874  0.8603  1.0482  1.0565
 9762TIP3    H253482   4.585   3.680   1.901 -0.0689 -0.2922 -0.7960
 9763TIP3   OH253483   2.889   6.811   0.877  0.2495 -0.2762 -0.2551
 9763TIP3    H153484   2.907   6.752   0.950  0.1294 -1.1344 -0.9066
 9763TIP3    H253485   2.918   6.897   0.908  0.1363 -0.6163  0.8189
 9764TIP3   OH253486   3.029   3.977   0.861  0.2595 -0.0619  0.3527
 9764TIP3    H153487   2.985   4.042   0.807  1.4278  0.3977 -0.0852
 9764TIP3    H253488   3.072   4.028   0.930 -0.5812 -0.5741  1.2888
 9765TIP3   OH253489   3.929   5.500   3.031  0.1077  0.4018 -0.7226
 9765TIP3    H153490   3.989   5.428   3.014 -0.1184  0.3910 -1.5002
 9765TIP3    H253491   3.842   5.463   3.015 -0.3132 -0.1751  2.3155
 9766TIP3   OH253492   0.401   5.772   2.155 -0.5016  0.3811 -0.2930
 9766TIP3    H153493   0.441   5.711   2.218  1.3763  2.8704  1.0883
 9766TIP3    H253494   0.323   5.805   2.201 -1.0645 -0.3446 -0.7118
 9767TIP3   OH253495   5.808   7.175   0.928 -0.3266 -0.1773 -0.0389
 9767TIP3    H153496   5.766   7.247   0.882  0.3477  0.7635  0.7746
 9767TIP3    H253497   5.738   7.134   0.978 -0.8119 -0.4178 -0.9056
 9768TIP3   OH253498   4.464   0.535   6.861 -0.2543 -0.0628 -0.0852
 9768TIP3    H153499   4.408   0.579   6.796  0.5963  0.5834 -0.4125
 9768TIP3    H253500   4.442   0.577   6.944  0.3275  0.8048 -0.3473
 9769TIP3   OH253501   3.098   5.228   0.129  0.8387  0.4957  0.3950
 9769TIP3    H153502   3.021   5.223   0.186  0.6690  1.0744  0.2158
 9769TIP3    H253503   3.172   5.239   0.189  0.6457  1.2502  0.5030
 9770TIP3   OH253504   0.973   2.606   8.249  0.6135  0.7779 -0.0956
 9770TIP3    H153505   0.893   2.595   8.301 -1.1266  0.1332 -2.7054
 9770TIP3    H253506   1.019   2.523   8.256 -0.0222  0.4108 -0.2307
 9771TIP3   OH253507   6.613   3.891   7.635 -0.0503  0.3864 -0.9104
 9771TIP3    H153508   6.553   3.850   7.573 -0.8953  1.4636 -0.8285
 9771TIP3    H253509   6.700   3.875   7.598 -0.3306 -1.4440 -0.8790
 9772TIP3   OH253510   4.035   6.416   0.763  1.0280  0.2545 -0.2653
 9772TIP3    H153511   4.109   6.458   0.718 -0.0314  1.6859 -0.7780
 9772TIP3    H253512   4.009   6.345   0.705  2.0693 -0.3524 -0.0121
 9773TIP3   OH253513   1.216   0.980   8.171  0.2230 -0.6468  0.5085
 9773TIP3    H153514   1.207   0.920   8.245  0.4259 -1.4794 -0.1261
 9773TIP3    H253515   1.288   1.038   8.195 -0.4829 -0.1494  1.4663
 9774TIP3   OH253516   2.555   2.251   0.479  0.6579 -0.0617  0.1773
 9774TIP3    H153517   2.494   2.262   0.552  2.3587  1.0283  1.4985
 9774TIP3    H253518   2.505   2.278   0.402 -0.3133  1.4789  1.2947
 9775TIP3   OH253519   0.391   0.953   8.884 -0.0271 -0.1778  0.0535
 9775TIP3    H153520   0.304   0.992   8.878 -1.1020 -2.4803 -0.2164
 9775TIP3    H253521   0.448   1.014   8.836 -1.7985  0.4883 -1.3103
 9776TIP3   OH253522   4.280   0.433   0.009 -0.2014 -0.0148 -0.2524
 9776TIP3    H153523   4.344   0.365  -0.010  0.8408  0.4077  1.5471
 9776TIP3    H253524   4.266   0.477  -0.075  3.0613  0.8718 -0.4363
 9777TIP3   OH253525   3.607   4.737   9.064 -0.2718 -0.1279 -0.2927
 9777TIP3    H153526   3.623   4.688   8.983  3.2356 -0.8783  0.7145
 9777TIP3    H253527   3.630   4.827   9.042  3.1682 -0.7347  0.3839
 9778TIP3   OH253528   3.714   3.985   0.991 -0.4419  0.0920  0.2552
 9778TIP3    H153529   3.669   3.931   1.056  0.2492  0.4826  1.0813
 9778TIP3    H253530   3.680   4.073   1.005 -0.9813  0.0183 -0.5547
 9779TIP3   OH253531   4.646   5.007   8.328 -0.0100  0.3371  0.2414
 9779TIP3    H153532   4.701   5.027   8.404 -1.5880 -1.2339  1.9149
 9779TIP3    H253533   4.559   5.039   8.352 -0.5575 -0.2458 -0.8833
 9780TIP3   OH253534   1.106   3.407   8.255 -0.6808 -0.7240  0.0078
 9780TIP3    H153535   1.138   3.406   8.345  0.1258  2.0263 -0.1469
 9780TIP3    H253536   1.168   3.352   8.207 -0.2740 -1.0504  0.8899
 9781TIP3   OH253537   0.700   4.009   9.423  0.3243  0.2113  0.4959
 9781TIP3    H153538   0.638   4.025   9.351  0.2243 -0.5650  0.3965
 9781TIP3    H253539   0.732   3.920   9.407  1.1923  0.4737  0.7582
 9782TIP3   OH253540   0.532   6.583   1.248  0.2303  0.2636 -0.0969
 9782TIP3    H153541   0.476   6.653   1.216 -1.2098 -1.3235 -1.2161
 9782TIP3    H253542   0.619   6.623   1.254 -0.5562  2.1548 -0.5497
 9783TIP3   OH253543   2.335   4.363   2.183 -0.3397 -0.4429 -0.0913
 9783TIP3    H153544   2.318   4.447   2.226  1.5029  0.1694 -0.4928
 9783TIP3    H253545   2.299   4.373   2.095  1.0678  0.4658 -0.5961
 9784TIP3   OH253546   1.246   6.211   8.619  0.5229  0.0558 -0.0828
 9784TIP3    H153547   1.326   6.257   8.593  1.3838  0.8380  3.4423
 9784TIP3    H253548   1.273   6.120   8.632  0.5210  0.0334 -0.2395
 9785TIP3   OH253549   2.268   6.486   7.783  0.0448 -0.0376  0.2043
 9785TIP3    H153550   2.230   6.399   7.798 -1.0237  0.0625 -1.6969
 9785TIP3    H253551   2.216   6.545   7.837 -0.1191 -0.3790  0.4248
 9786TIP3   OH253552   2.120   1.852   9.358 -0.0705  0.4484 -0.1692
 9786TIP3    H153553   2.193   1.880   9.412 -0.4815 -0.9426  1.1793
 9786TIP3    H253554   2.052   1.825   9.420 -1.2500  0.4878 -1.3804
 9787TIP3   OH253555   0.499   0.756   1.806  0.0858  0.5268 -0.1599
 9787TIP3    H153556   0.506   0.838   1.756  2.2685  0.8597  0.5848
 9787TIP3    H253557   0.510   0.783   1.897  0.8956 -0.5743  0.0902
 9788TIP3   OH253558   5.958   5.533   0.781  0.2162 -0.1733 -0.2664
 9788TIP3    H153559   6.035   5.584   0.757 -0.9481  1.3858 -0.8234
 9788TIP3    H253560   5.939   5.480   0.703  1.1355 -1.1264  0.1372
 9789TIP3   OH253561   1.194   3.008   1.047 -0.3872  0.1906 -0.3338
 9789TIP3    H153562   1.277   2.984   1.089 -0.2274  0.4539 -0.4949
 9789TIP3    H253563   1.144   2.927   1.044 -0.4613  0.1950  0.4960
 9790TIP3   OH253564   1.890   2.993   0.646 -0.2529  0.3553  0.4400
 9790TIP3    H153565   1.839   3.030   0.574  0.6558 -0.1393 -0.4664
 9790TIP3    H253566   1.825   2.975   0.714 -0.8783  2.5862  0.5038
 9791TIP3   OH253567   0.674   3.124   7.768 -0.3937  0.3936 -0.6196
 9791TIP3    H153568   0.606   3.091   7.709 -0.3389  0.4777 -0.7305
 9791TIP3    H253569   0.634   3.121   7.855 -0.7013  0.8913 -0.7446
 9792TIP3   OH253570   2.095   5.607   0.338 -0.0589 -0.1318  0.1178
 9792TIP3    H153571   2.171   5.665   0.338 -0.1248 -0.0365 -0.4974
 9792TIP3    H253572   2.129   5.523   0.372  0.0394  0.2492  0.9848
 9793TIP3   OH253573   7.007   5.540   1.200 -0.0921  0.1778 -0.2331
 9793TIP3    H153574   6.945   5.576   1.263  1.5742  2.5452  0.2116
 9793TIP3    H253575   7.084   5.596   1.208  1.6307 -1.8221 -1.6713
 9794TIP3   OH253576   4.097   1.373   2.268 -0.1164  0.0322  0.0841
 9794TIP3    H153577   4.158   1.303   2.245  0.2665  0.3798  0.0327
 9794TIP3    H253578   4.048   1.339   2.343 -0.4009 -0.5518 -0.3581
 9795TIP3   OH253579   6.561   6.857   7.449  0.1179  0.4129  0.1012
 9795TIP3    H153580   6.623   6.833   7.380 -1.6224  1.3694 -1.8731
 9795TIP3    H253581   6.617   6.879   7.524  2.0070 -2.3970 -0.3193
 9796TIP3   OH253582   0.496   1.529   2.407 -0.4202  0.5204  0.0480
 9796TIP3    H153583   0.522   1.619   2.390  0.7280  0.0503 -0.8390
 9796TIP3    H253584   0.437   1.534   2.482 -1.7911  2.1952 -1.0682
 9797TIP3   OH253585   6.338   6.943   8.075 -0.2904 -0.4169  0.7701
 9797TIP3    H153586   6.323   7.038   8.084 -0.1827 -0.3877  0.6357
 9797TIP3    H253587   6.280   6.916   8.004  1.2579 -0.0636 -0.6996
 9798TIP3   OH253588   0.335   4.856   7.519 -0.1591  0.3203 -0.1856
 9798TIP3    H153589   0.421   4.886   7.549 -0.9066  2.3934  0.1179
 9798TIP3    H253590   0.274   4.891   7.584 -1.1939 -1.9462  0.1517
 9799TIP3   OH253591   4.018   4.524   1.669 -0.0413  0.1279  0.4576
 9799TIP3    H153592   3.981   4.541   1.583 -0.0083  3.8912  1.0406
 9799TIP3    H253593   4.112   4.516   1.654 -0.1051  0.0489  0.0937
 9800TIP3   OH253594   3.455   3.531   3.105 -0.2205 -0.3575  0.3908
 9800TIP3    H153595   3.496   3.457   3.151 -0.2425  0.7243  2.2535
 9800TIP3    H253596   3.362   3.509   3.101 -0.0929 -0.8549  0.0526
 9801TIP3   OH253597   3.922   1.062   9.047  0.2211  0.0836  0.2531
 9801TIP3    H153598   3.923   0.998   9.119  0.6186 -0.5414 -0.3015
 9801TIP3    H253599   3.997   1.118   9.064  2.5275 -2.2073 -1.5378
 9802TIP3   OH253600   2.728   0.778   1.762  0.6175 -0.0692 -0.0725
 9802TIP3    H153601   2.698   0.742   1.678  1.0843 -0.9011  0.1007
 9802TIP3    H253602   2.820   0.799   1.747  0.2243  1.6310 -0.3359
 9803TIP3   OH253603   2.176   3.112   7.613  0.1024  0.1322 -0.6132
 9803TIP3    H153604   2.120   3.116   7.536  1.2059 -1.4475 -1.5627
 9803TIP3    H253605   2.258   3.153   7.586  0.3930 -0.1415 -0.1719
 9804TIP3   OH253606   4.384   7.420   1.405  0.6806  0.1617 -0.3271
 9804TIP3    H153607   4.327   7.477   1.456 -0.4688 -0.8621 -0.4189
 9804TIP3    H253608   4.466   7.418   1.454 -0.2795 -0.5202  1.3319
 9805TIP3   OH253609   6.658   6.775   9.526  0.1495  0.2673  0.3846
 9805TIP3    H153610   6.674   6.743   9.437 -0.0304 -2.1364  1.1479
 9805TIP3    H253611   6.728   6.839   9.540  0.2944  0.5705 -1.3972
 9806TIP3   OH253612   0.317   7.380   8.985 -0.0874 -0.4580  0.1534
 9806TIP3    H153613   0.303   7.311   9.050 -1.2313 -0.4331 -0.0455
 9806TIP3    H253614   0.301   7.338   8.901  0.8956 -0.3627 -0.0924
 9807TIP3   OH253615   7.060   3.700   8.705 -0.3926 -0.3218  0.5929
 9807TIP3    H153616   7.070   3.688   8.611 -1.8405 -0.2714  0.4062
 9807TIP3    H253617   6.973   3.740   8.715 -0.5921 -1.0343  1.9929
 9808TIP3   OH253618   1.106   0.437   1.869 -0.1504  0.0214  0.1022
 9808TIP3    H153619   1.190   0.482   1.877  1.1663 -1.9608 -1.5926
 9808TIP3    H253620   1.055   0.469   1.944  2.2333  1.0181  1.4230
 9809TIP3   OH253621   3.315   6.004   9.216  0.1467 -0.3393 -0.0625
 9809TIP3    H153622   3.307   5.986   9.122 -0.1719  0.5443 -0.2165
 9809TIP3    H253623   3.372   6.081   9.220 -0.5123  0.1288  0.4199
 9810TIP3   OH253624   5.034   5.893   8.161 -0.5852 -0.1755 -0.0133
 9810TIP3    H153625   5.059   5.847   8.081 -1.3344 -1.7351  0.6152
 9810TIP3    H253626   5.108   5.878   8.220 -0.7955 -0.5083  0.1655
 9811TIP3   OH253627   2.560   3.740   8.040 -0.3654  0.2976  0.2195
 9811TIP3    H153628   2.617   3.811   8.067  0.4462  0.2911 -1.3684
 9811TIP3    H253629   2.485   3.745   8.099  1.0321  0.6061  2.0396
 9812TIP3   OH253630   5.694   3.918   7.436  0.2080  0.3532  0.0435
 9812TIP3    H153631   5.624   3.858   7.462 -0.2188  0.7143 -0.2606
 9812TIP3    H253632   5.703   3.905   7.342 -1.9702  2.8717 -0.6351
 9813TIP3   OH253633   5.248   5.973   7.217 -0.5590 -0.3595 -0.3316
 9813TIP3    H153634   5.156   5.981   7.192 -1.3267 -1.2944  1.9693
 9813TIP3    H253635   5.288   5.922   7.146 -1.6357  0.5618 -1.6511
 9814TIP3   OH253636   4.384   6.723   1.698  0.7024  0.4272  0.2471
 9814TIP3    H153637   4.479   6.713   1.692  0.4931 -0.9686 -1.3480
 9814TIP3    H253638   4.357   6.653   1.758  0.6849  1.0898  1.0410
 9815TIP3   OH253639   1.532   0.480   0.454  0.2058  0.7281 -0.7516
 9815TIP3    H153640   1.550   0.567   0.419  0.1348  0.8731 -0.4315
 9815TIP3    H253641   1.525   0.493   0.549 -0.5228  0.4976 -0.7651
 9816TIP3   OH253642   5.861   5.329   7.348 -0.3144 -0.4215  0.0513
 9816TIP3    H153643   5.895   5.368   7.268 -1.9217  1.0938  0.0518
 9816TIP3    H253644   5.767   5.321   7.333 -0.5893 -0.5239  1.6302
 9817TIP3   OH253645   5.017   2.335   0.874  0.4174  0.4141  0.3377
 9817TIP3    H153646   4.988   2.311   0.962 -0.2574  0.1273  0.0471
 9817TIP3    H253647   4.954   2.401   0.845  0.5986  0.4629  0.0480
 9818TIP3   OH253648   1.716   1.871   9.559 -0.1197 -0.3708 -1.1694
 9818TIP3    H153649   1.633   1.912   9.582  0.3175 -0.5336  0.8623
 9818TIP3    H253650   1.778   1.944   9.556 -0.0866 -0.4087 -1.4040
 9819TIP3   OH253651   2.895   5.445   0.045  0.2358  0.2795 -0.0732
 9819TIP3    H153652   2.911   5.518  -0.014  1.1152 -0.3804 -0.6598
 9819TIP3    H253653   2.979   5.399   0.051  0.2300  0.4246  1.8268
 9820TIP3   OH253654   0.221   4.781   1.470 -0.0083 -0.0825 -1.5425
 9820TIP3    H153655   0.304   4.773   1.422  0.9826 -0.5629  0.1815
 9820TIP3    H253656   0.239   4.843   1.540 -1.0261 -0.4377 -0.9472
 9821TIP3   OH253657   1.727   4.650   0.254 -0.0085 -0.0095 -0.5514
 9821TIP3    H153658   1.650   4.597   0.273 -0.1882  0.3771 -0.1869
 9821TIP3    H253659   1.741   4.640   0.159 -0.1187 -0.5901 -0.5096
 9822TIP3   OH253660   0.060   1.938   0.910 -0.3125 -0.4552 -0.0673
 9822TIP3    H153661   0.118   2.002   0.952 -0.3574 -1.7411  2.1025
 9822TIP3    H253662  -0.028   1.974   0.922 -0.1762  0.2622 -1.1011
 9823TIP3   OH253663   1.248   2.661   7.147  0.0953 -0.0016  0.3570
 9823TIP3    H153664   1.291   2.659   7.232  0.5143  0.9881  0.1831
 9823TIP3    H253665   1.296   2.728   7.098 -0.2683 -0.4156 -0.5863
 9824TIP3   OH253666   7.116   6.926   8.700 -0.1350 -0.5116 -0.0801
 9824TIP3    H153667   7.192   6.958   8.748  0.0577 -1.7886  0.4944
 9824TIP3    H253668   7.152   6.880   8.625 -0.4324  1.3623 -1.4514
 9825TIP3   OH253669   2.671   5.083   8.243 -0.0211 -0.2685 -0.2244
 9825TIP3    H153670   2.747   5.046   8.197 -0.6770 -0.0181 -1.5534
 9825TIP3    H253671   2.682   5.053   8.334  0.8235 -1.5626 -0.7140
 9826TIP3   OH253672   0.765   0.779   7.022  0.0718  0.0326 -0.3292
 9826TIP3    H153673   0.696   0.845   7.015 -0.3435 -0.3669 -0.0308
 9826TIP3    H253674   0.833   0.810   6.962  1.3954  2.5410  2.2261
 9827TIP3   OH253675   5.087   2.771   1.868 -0.1432 -0.2539  0.0365
 9827TIP3    H153676   5.090   2.705   1.937  1.6997  1.2761  1.5356
 9827TIP3    H253677   5.048   2.848   1.909  0.1370  0.4006 -0.8748
 9828TIP3   OH253678   4.100   6.796   7.970 -0.0401 -0.0518  0.0866
 9828TIP3    H153679   4.180   6.849   7.972 -1.2504  1.8860 -0.6755
 9828TIP3    H253680   4.029   6.858   7.982 -1.4550 -1.8698  2.0141
 9829TIP3   OH253681   2.559   3.139   1.582 -0.1826 -0.1414  0.0934
 9829TIP3    H153682   2.518   3.200   1.520  0.3554  0.5021  0.3627
 9829TIP3    H253683   2.626   3.190   1.626 -2.2421  0.2322  3.1494
 9830TIP3   OH253684   3.590   4.336   7.963  0.0756 -0.1173  0.2822
 9830TIP3    H153685   3.606   4.256   8.012 -0.6819 -2.7870 -3.4384
 9830TIP3    H253686   3.500   4.361   7.986  0.0239 -0.8164  0.8649
 9831TIP3   OH253687   3.488   0.947   7.225  0.4224  0.0953 -0.1033
 9831TIP3    H153688   3.493   0.871   7.284  0.8830  0.8881  0.9034
 9831TIP3    H253689   3.449   0.912   7.145 -1.3339 -0.7939  1.0611
 9832TIP3   OH253690   4.977   7.038   1.386 -0.0977  0.1061 -0.1756
 9832TIP3    H153691   4.919   7.037   1.309 -0.9983  0.3933  0.4810
 9832TIP3    H253692   5.065   7.044   1.349 -0.4768 -0.3476 -1.2038
 9833TIP3   OH253693   5.319   4.559   7.956  0.3141 -0.2246 -0.4682
 9833TIP3    H153694   5.266   4.595   8.027  1.4736  0.8528 -0.1233
 9833TIP3    H253695   5.299   4.465   7.957 -0.0625 -0.1547  0.9600
 9834TIP3   OH253696   0.258   1.965   1.863 -0.0839  0.3767 -0.3793
 9834TIP3    H153697   0.208   2.043   1.839 -0.3623  0.1026 -0.6899
 9834TIP3    H253698   0.196   1.910   1.911 -0.6649 -0.8466 -2.4396
 9835TIP3   OH253699   5.569   1.100   1.580 -0.0189 -0.2006 -0.2284
 9835TIP3    H153700   5.531   1.020   1.617 -0.8001  0.6144  0.7631
 9835TIP3    H253701   5.630   1.131   1.647  1.8915 -1.0487 -1.4576
 9836TIP3   OH253702   3.748   7.372   1.697 -0.5597 -0.2663 -0.2175
 9836TIP3    H153703   3.729   7.375   1.791 -2.2202 -0.9780 -0.4867
 9836TIP3    H253704   3.735   7.280   1.674  2.5924 -0.7071 -0.6676
 9837TIP3   OH253705   3.546   3.573   7.958  0.0048 -0.5795  0.5071
 9837TIP3    H153706   3.540   3.643   8.022 -1.8682  1.0025 -1.2364
 9837TIP3    H253707   3.639   3.566   7.938  0.2825  1.1888  1.0034
 9838TIP3   OH253708   7.130   1.020   2.682 -0.0082 -0.0289  0.4821
 9838TIP3    H153709   7.037   1.030   2.703 -0.8545 -3.7631 -0.8329
 9838TIP3    H253710   7.166   0.971   2.756  0.2372 -1.0530 -0.3094
 9839TIP3   OH253711   3.704   7.251   8.457 -0.5558 -0.3065  0.0808
 9839TIP3    H153712   3.756   7.180   8.420 -2.7166 -2.5847  1.1036
 9839TIP3    H253713   3.685   7.222   8.547 -2.3229  1.0937  0.2150
 9840TIP3   OH253714   0.202   1.306   8.178  0.2537 -0.6711 -0.1862
 9840TIP3    H153715   0.211   1.357   8.259  1.9817 -1.4404  0.1683
 9840TIP3    H253716   0.237   1.363   8.110 -0.9230 -0.1372 -0.3600
 9841TIP3   OH253717   4.569   1.367   0.905 -0.2211 -0.4348 -0.3888
 9841TIP3    H153718   4.591   1.403   0.819  0.8671 -1.4197 -0.5412
 9841TIP3    H253719   4.491   1.313   0.889 -0.7690  0.3828 -0.5070
 9842TIP3   OH253720   2.427   6.403   1.365 -0.4253  0.3285  0.3675
 9842TIP3    H153721   2.362   6.400   1.295  0.0854 -0.3397 -0.0913
 9842TIP3    H253722   2.433   6.495   1.389 -0.7869  0.5279 -0.2993
 9843TIP3   OH253723   1.012   6.331   0.511  0.2301 -0.5207 -0.5220
 9843TIP3    H153724   1.100   6.320   0.474  1.1427  1.1650  0.9463
 9843TIP3    H253725   1.004   6.426   0.524 -1.4501 -0.7393  0.2510
 9844TIP3   OH253726   6.065   5.786   2.201 -1.1114  0.0723 -0.2213
 9844TIP3    H153727   6.069   5.813   2.109 -1.6092 -0.4853 -0.4175
 9844TIP3    H253728   6.152   5.805   2.235 -1.4083  1.8629 -0.3438
 9845TIP3   OH253729   1.585   6.191   7.695  0.2804  0.0320 -0.0555
 9845TIP3    H153730   1.497   6.166   7.722  0.3064 -0.2394 -0.2157
 9845TIP3    H253731   1.643   6.135   7.748  0.3472 -0.0733 -0.2409
 9846TIP3   OH253732   2.808   2.891   8.494  0.0321 -0.1595  0.1470
 9846TIP3    H153733   2.899   2.913   8.474 -0.1494 -0.3437 -0.9422
 9846TIP3    H253734   2.808   2.796   8.504 -0.5554 -0.6178 -3.0736
 9847TIP3   OH253735   6.132   4.489   2.266  0.5192 -0.7108  0.1245
 9847TIP3    H153736   6.176   4.476   2.182  0.6467 -0.4895  0.1573
 9847TIP3    H253737   6.136   4.583   2.281 -0.5076 -0.6088 -0.1713
 9848TIP3   OH253738   3.039   1.730   2.634 -0.0591 -0.0385 -0.2194
 9848TIP3    H153739   3.005   1.737   2.724 -0.3019 -1.3543 -0.1760
 9848TIP3    H253740   3.110   1.665   2.641  0.0500 -0.0025 -0.9485
 9849TIP3   OH253741   7.325   2.287   9.119  0.5899 -0.4968  0.1307
 9849TIP3    H153742   7.409   2.245   9.098  2.0155  1.8185  0.7192
 9849TIP3    H253743   7.309   2.266   9.210  1.4452  0.3648  0.5065
 9850TIP3   OH253744   4.099   1.897   0.613  0.7545  0.3285 -0.1291
 9850TIP3    H153745   4.004   1.892   0.620  0.8645 -0.4520  1.3205
 9850TIP3    H253746   4.123   1.976   0.661  0.9138 -0.2479  0.7714
 9851TIP3   OH253747   4.808   3.768   0.941 -0.0826  0.0636 -0.1567
 9851TIP3    H153748   4.790   3.709   0.867  0.1166  0.4850 -0.5466
 9851TIP3    H253749   4.775   3.721   1.017 -0.1047 -0.4713 -0.4867
 9852TIP3   OH253750   4.491   4.550   2.833  0.6346  0.0116 -0.3004
 9852TIP3    H153751   4.402   4.578   2.810 -0.0498  1.2747  3.2734
 9852TIP3    H253752   4.546   4.586   2.764 -1.3119  1.8683 -0.9955
 9853TIP3   OH253753   6.214   2.121   9.261  0.0952 -0.1455  0.2137
 9853TIP3    H153754   6.250   2.046   9.215  0.8747  1.1663 -1.4326
 9853TIP3    H253755   6.131   2.139   9.217  0.5516  0.7470 -0.3188
 9854TIP3   OH253756   3.341   3.843   8.163  0.4329 -0.0866  0.2723
 9854TIP3    H153757   3.414   3.782   8.150  1.2349  0.3926  2.1777
 9854TIP3    H253758   3.357   3.882   8.249 -1.9867  0.1698  0.6938
 9855TIP3   OH253759   1.365   5.701   9.591 -0.4113  0.2456  0.1790
 9855TIP3    H153760   1.393   5.665   9.676  0.2772 -0.0044 -0.1414
 9855TIP3    H253761   1.272   5.720   9.603 -0.5617 -0.6935  0.6941
 9856TIP3   OH253762   4.101   5.862   1.214  0.2246 -0.2744  0.1324
 9856TIP3    H153763   4.128   5.926   1.148  4.2784 -0.9883  0.8509
 9856TIP3    H253764   4.075   5.785   1.163  0.5084  0.1539 -0.6815
 9857TIP3   OH253765   5.755   0.953   8.388  0.1872  0.1925 -0.2921
 9857TIP3    H153766   5.678   0.952   8.444  0.5523  0.2251  0.2145
 9857TIP3    H253767   5.758   1.043   8.354 -0.4201 -0.0095 -0.9199
 9858TIP3   OH253768   4.944   0.434   9.524  0.2903  0.1610  0.2650
 9858TIP3    H153769   4.877   0.496   9.555 -0.9099 -0.3762 -1.1382
 9858TIP3    H253770   4.904   0.392   9.448  1.6944 -1.2137  0.2460
 9859TIP3   OH253771   2.172   2.948   7.190 -0.6868 -0.7401 -0.7474
 9859TIP3    H153772   2.167   3.043   7.182 -0.7652 -0.6640  0.1560
 9859TIP3    H253773   2.234   2.921   7.122 -0.9643 -0.0854 -1.2607
 9860TIP3   OH253774   5.540   3.080   0.812 -0.4613  0.2331  0.1535
 9860TIP3    H153775   5.479   3.101   0.882 -0.9788 -0.7813  0.0319
 9860TIP3    H253776   5.610   3.144   0.820 -1.0897  0.8417  0.8708
 9861TIP3   OH253777   3.451   1.623   8.696  0.0766 -0.0872  0.3689
 9861TIP3    H153778   3.455   1.702   8.642  0.0678  0.4924  1.1998
 9861TIP3    H253779   3.493   1.648   8.778 -0.4929 -0.7540  0.8770
 9862TIP3   OH253780   1.487   4.367   2.858 -0.0659  0.1032  0.0844
 9862TIP3    H153781   1.545   4.374   2.934 -1.2530 -0.0666  1.0485
 9862TIP3    H253782   1.472   4.457   2.831 -2.9240  0.5781  2.7156
 9863TIP3   OH253783   7.207   4.909   1.057 -0.3445  0.0976  0.2811
 9863TIP3    H153784   7.270   4.913   0.985 -1.8389  1.1713 -1.0438
 9863TIP3    H253785   7.227   4.827   1.102 -0.4443 -1.5044 -2.4159
 9864TIP3   OH253786   1.736   1.669   0.493 -0.3159  0.0831 -0.4299
 9864TIP3    H153787   1.767   1.759   0.482  0.6559 -0.4934 -3.6547
 9864TIP3    H253788   1.654   1.666   0.445 -0.8546 -0.5400  0.5060
 9865TIP3   OH253789   1.135   4.470   1.865  0.3631  0.4368 -0.0132
 9865TIP3    H153790   1.073   4.516   1.808 -0.4612 -0.8617 -0.1978
 9865TIP3    H253791   1.107   4.493   1.954 -0.3730 -0.1037 -0.0957
 9866TIP3   OH253792   0.484   0.089   8.286  0.5110  0.4114  0.2130
 9866TIP3    H153793   0.414   0.084   8.221 -0.1055  0.3255  0.8701
 9866TIP3    H253794   0.485   0.002   8.326  0.2858  0.7342  0.9266
 9867TIP3   OH253795   0.671   5.575   8.780 -0.1242 -0.1032 -0.1368
 9867TIP3    H153796   0.589   5.623   8.780 -0.7576 -1.1075 -2.0916
 9867TIP3    H253797   0.646   5.483   8.792  0.8771 -0.2574  1.0483
 9868TIP3   OH253798   2.061   3.207   9.064 -0.0788  0.2923  0.0352
 9868TIP3    H153799   2.110   3.125   9.062  0.7011  0.7552 -1.2159
 9868TIP3    H253800   2.113   3.265   9.120  0.0973  0.3606 -0.1982
 9869TIP3   OH253801   0.166   1.033   1.572  0.7218  0.4035  0.7471
 9869TIP3    H153802   0.185   1.120   1.607  0.9468  1.1217 -1.0402
 9869TIP3    H253803   0.144   1.048   1.480 -4.0201 -0.8968  1.4166
 9870TIP3   OH253804   2.815   1.862   2.558 -0.1341  0.0020  0.5706
 9870TIP3    H153805   2.855   1.945   2.533  0.3753 -0.0911  1.0634
 9870TIP3    H253806   2.888   1.800   2.563 -0.7306 -1.0203 -1.8990
 9871TIP3   OH253807   0.890   7.403   7.256  0.3977  0.4347  0.0904
 9871TIP3    H153808   0.977   7.382   7.290 -0.2062 -0.4031  1.2242
 9871TIP3    H253809   0.835   7.331   7.288 -0.4195  0.1096 -1.9175
 9872TIP3   OH253810   2.301   2.154   1.189 -0.0482 -0.6269  0.1485
 9872TIP3    H153811   2.352   2.172   1.268  0.3939 -3.6276  0.6600
 9872TIP3    H253812   2.355   2.186   1.117  0.2623  0.7222  0.9519
 9873TIP3   OH253813   0.068   4.015   7.122 -0.2678  0.9970 -0.0638
 9873TIP3    H153814   0.116   4.081   7.071 -0.7578  1.8023  0.4842
 9873TIP3    H253815   0.016   3.968   7.057  0.7614  0.5431 -0.5789
 9874TIP3   OH253816   2.466   1.110   0.693 -0.2964 -0.2568 -0.0731
 9874TIP3    H153817   2.507   1.159   0.764 -2.7739  0.5456  0.8974
 9874TIP3    H253818   2.424   1.176   0.639  0.8961 -0.9230 -1.9196
 9875TIP3   OH253819   6.079   4.004   8.891  1.1821  0.4813 -0.0440
 9875TIP3    H153820   6.088   3.928   8.833  1.7478  1.8305 -1.8030
 9875TIP3    H253821   6.164   4.049   8.885  1.3640  0.5123  2.0978
 9876TIP3   OH253822   1.757   0.223   8.955  0.5108  0.0773 -1.0759
 9876TIP3    H153823   1.841   0.254   8.990 -0.1223  1.1857 -0.4665
 9876TIP3    H253824   1.724   0.164   9.022  0.0302  0.9759 -0.4981
 9877TIP3   OH253825   0.466   3.351   1.950  0.1582  0.3334  0.3634
 9877TIP3    H153826   0.543   3.347   1.894  0.7681 -1.4820  1.2745
 9877TIP3    H253827   0.402   3.401   1.899  1.4539  0.6888 -0.9742
 9878TIP3   OH253828   0.544   4.935   8.115 -0.2345 -0.3313  0.0043
 9878TIP3    H153829   0.634   4.917   8.086 -0.5589  1.4320 -2.4063
 9878TIP3    H253830   0.495   4.856   8.094  0.0685  0.0022 -2.1488
 9879TIP3   OH253831   7.081   0.177   7.507  0.1518  0.1581  0.1554
 9879TIP3    H153832   7.152   0.132   7.553  0.9296  0.8790 -0.3219
 9879TIP3    H253833   7.060   0.252   7.563 -1.8343 -1.2614  1.4716
 9880TIP3   OH253834   0.556   0.380   7.749  0.2857 -0.5680  0.2196
 9880TIP3    H153835   0.588   0.410   7.834  3.1196 -1.0019 -0.5599
 9880TIP3    H253836   0.568   0.456   7.691  1.0006 -1.0889 -0.3353
 9881TIP3   OH253837   5.071   4.881   8.904  0.0710 -0.0407 -0.4564
 9881TIP3    H153838   5.048   4.800   8.949  0.0875  1.1072  1.7395
 9881TIP3    H253839   5.136   4.855   8.838 -0.6623 -1.9240 -0.4987
 9882TIP3   OH253840   0.672   5.998   8.203 -0.1277 -0.2610 -0.3039
 9882TIP3    H153841   0.611   5.938   8.246  0.5053  0.7069  2.1738
 9882TIP3    H253842   0.630   6.084   8.212  0.6955  0.1507 -0.3743
 9883TIP3   OH253843   2.969   2.564   1.141  0.4909  0.1724  0.2383
 9883TIP3    H153844   3.035   2.515   1.190  0.6722  0.2144  0.0373
 9883TIP3    H253845   2.984   2.538   1.050 -1.8845 -2.4431  0.4457
 9884TIP3   OH253846   7.311   4.876   9.185  0.6253 -0.0825  0.3848
 9884TIP3    H153847   7.318   4.912   9.096  3.0443  0.7582  0.8365
 9884TIP3    H253848   7.269   4.945   9.236  0.2259 -0.1280  0.1213
 9885TIP3   OH253849   4.013   3.589   0.331  0.2269 -0.1013 -0.1966
 9885TIP3    H153850   3.926   3.631   0.328  0.8071  1.0896 -2.6452
 9885TIP3    H253851   4.056   3.630   0.406 -0.9250  0.1241  0.3685
 9886TIP3   OH253852   0.977   7.288   9.335  0.1343  0.2673 -0.4287
 9886TIP3    H153853   0.995   7.194   9.346  0.5268  0.3085 -0.6934
 9886TIP3    H253854   0.981   7.302   9.240  1.4081  0.8011 -0.3113
 9887TIP3   OH253855   5.180   3.161   9.056  0.2003 -0.0042 -0.3121
 9887TIP3    H153856   5.177   3.193   9.146  0.3181  0.0451 -0.3246
 9887TIP3    H253857   5.185   3.241   9.003  0.2549 -0.0368 -0.3558
 9888TIP3   OH253858   6.415   5.656   8.522  0.9307 -0.2602 -0.2971
 9888TIP3    H153859   6.354   5.642   8.594  1.7145  1.1160  0.6726
 9888TIP3    H253860   6.366   5.709   8.459  1.1733  1.0260  0.5789
 9889TIP3   OH253861   5.837   6.365   8.476 -0.4047  0.3083 -0.2393
 9889TIP3    H153862   5.803   6.435   8.421  1.3574  1.2751 -0.1587
 9889TIP3    H253863   5.921   6.341   8.437  0.9308  1.0533  1.9905
 9890TIP3   OH253864   7.121   4.494   0.625  0.9616  0.2103 -0.1818
 9890TIP3    H153865   7.090   4.545   0.550  2.5464  0.8614 -0.4360
 9890TIP3    H253866   7.043   4.451   0.658 -0.2112  1.7942 -0.7470
 9891TIP3   OH253867   1.690   0.070   8.071  0.1525  0.2869 -0.4235
 9891TIP3    H153868   1.776   0.036   8.098  0.6424  1.6708 -0.1266
 9891TIP3    H253869   1.630   0.039   8.139  0.7849  0.9554  0.4726
 9892TIP3   OH253870   0.194   1.663   0.253  0.1517 -0.3543  0.3278
 9892TIP3    H153871   0.238   1.728   0.308 -0.6199 -1.7771  2.7783
 9892TIP3    H253872   0.111   1.703   0.229  0.5622  0.3382  0.0228
 9893TIP3   OH253873   5.727   6.551   7.798 -0.5801  0.1533  0.5145
 9893TIP3    H153874   5.694   6.465   7.826 -0.0863  0.2895  1.5497
 9893TIP3    H253875   5.716   6.607   7.875  1.2412  0.4343  0.6110
 9894TIP3   OH253876   2.088   7.357   9.596  0.0978 -0.2363 -0.5126
 9894TIP3    H153877   2.147   7.383   9.526  0.0723 -1.1957 -0.8955
 9894TIP3    H253878   2.108   7.418   9.668  0.2362  0.6439 -1.2823
 9895TIP3   OH253879   3.085   4.834   1.757 -0.4057  0.0114  0.1850
 9895TIP3    H153880   3.024   4.815   1.686  1.2793 -1.4782 -0.9629
 9895TIP3    H253881   3.169   4.849   1.712  0.7315 -1.1067  1.8632
 9896TIP3   OH253882   1.737   0.101   8.711 -0.2765  0.5652  0.0522
 9896TIP3    H153883   1.752   0.143   8.796 -0.2639  2.4431 -0.8305
 9896TIP3    H253884   1.818   0.118   8.661 -0.6594  0.3286 -0.6610
 9897TIP3   OH253885   3.241   3.080   0.938  0.1815 -0.4998  0.1822
 9897TIP3    H153886   3.165   3.023   0.952  0.3057 -1.7245 -3.2368
 9897TIP3    H253887   3.204   3.165   0.919 -0.4223 -1.1684 -1.7950
 9898TIP3   OH253888   6.693   5.820   1.732  0.6893  0.7567 -0.1576
 9898TIP3    H153889   6.643   5.829   1.651 -1.1137  0.7914  0.9173
 9898TIP3    H253890   6.683   5.904   1.776  0.1257  0.1299  0.9312
 9899TIP3   OH253891   6.814   6.430   8.589  0.0113  0.2567 -0.2093
 9899TIP3    H153892   6.866   6.453   8.666 -0.0828  1.4622 -0.4903
 9899TIP3    H253893   6.768   6.511   8.565 -0.4355 -0.2564 -1.1691
 9900TIP3   OH253894   2.411   2.359   0.278  0.6316 -0.5680 -0.3901
 9900TIP3    H153895   2.366   2.404   0.206 -2.0500 -0.8403  0.9802
 9900TIP3    H253896   2.374   2.271   0.279  1.7221 -1.0521  0.4182
 9901TIP3   OH253897   7.067   1.667   8.040  0.0841  0.5361  0.3987
 9901TIP3    H153898   7.139   1.609   8.019 -0.8327 -0.0835 -1.2138
 9901TIP3    H253899   7.049   1.650   8.133  0.6348 -0.8609  0.2767
 9902TIP3   OH253900   4.865   1.087   8.655  0.0235 -0.0007  0.3408
 9902TIP3    H153901   4.876   1.156   8.720 -0.9225  0.2630  0.2283
 9902TIP3    H253902   4.829   1.013   8.703  0.8819 -0.3807  0.4294
 9903TIP3   OH253903   4.592   5.154   8.792 -0.2444 -0.3336  0.2063
 9903TIP3    H153904   4.595   5.083   8.856 -2.1126 -0.6804 -0.0381
 9903TIP3    H253905   4.565   5.111   8.710  0.5355  0.3604 -0.4338
 9904TIP3   OH253906   4.804   7.203   0.088 -0.2050  0.5007  0.8212
 9904TIP3    H153907   4.888   7.165   0.060 -0.2674  0.3206  0.8769
 9904TIP3    H253908   4.819   7.297   0.087 -0.3988  0.5329 -0.4618
 9905TIP3   OH253909   7.186   2.255   0.343 -0.3270 -0.0452  0.2440
 9905TIP3    H153910   7.160   2.202   0.267  1.5385 -0.1838 -0.3515
 9905TIP3    H253911   7.237   2.327   0.305  0.6160 -0.1024  1.3538
 9906TIP3   OH253912   5.390   4.782   2.055  0.1560 -0.6454  0.5193
 9906TIP3    H153913   5.375   4.762   2.147  1.5617  0.6805  1.0915
 9906TIP3    H253914   5.312   4.829   2.027 -0.0672 -0.6253  1.1694
 9907TIP3   OH253915   5.996   1.171   0.610 -0.3392 -0.1329 -0.4001
 9907TIP3    H153916   6.066   1.126   0.563  0.3205 -0.5191  0.8932
 9907TIP3    H253917   6.002   1.262   0.581 -0.6172 -0.5360 -1.7949
 9908TIP3   OH253918   0.693   7.201   7.394 -0.2276  0.0612 -0.0096
 9908TIP3    H153919   0.733   7.161   7.471 -0.9548 -2.4997 -0.8650
 9908TIP3    H253920   0.627   7.260   7.429 -0.2208 -0.7063  1.3497
 9909TIP3   OH253921   3.411   5.083   0.957 -0.2107  0.1426  0.2488
 9909TIP3    H153922   3.394   5.110   1.047  0.0520  0.5305  0.1848
 9909TIP3    H253923   3.327   5.051   0.925 -1.6062  4.3147 -0.8729
 9910TIP3   OH253924   3.329   3.947   2.211 -0.1536  0.1144 -0.2050
 9910TIP3    H153925   3.402   3.978   2.265 -1.8368  0.0957  2.2434
 9910TIP3    H253926   3.344   3.853   2.201  1.9491  0.5980 -2.8157
 9911TIP3   OH253927   5.637   0.810   9.526 -0.0259 -0.4495 -0.0800
 9911TIP3    H153928   5.624   0.880   9.462  1.2464  1.4945  1.6567
 9911TIP3    H253929   5.550   0.794   9.562 -0.4084 -0.0933 -0.8172
 9912TIP3   OH253930   0.174   2.953   8.797 -0.3417 -0.1385  0.3132
 9912TIP3    H153931   0.132   2.976   8.880 -1.4018 -1.2217  0.0970
 9912TIP3    H253932   0.121   2.998   8.731 -0.9152 -1.1448  0.0732
 9913TIP3   OH253933   0.422   3.630   0.658  0.0659 -0.0776 -0.1834
 9913TIP3    H153934   0.517   3.624   0.658  0.1410 -0.2168 -2.7147
 9913TIP3    H253935   0.391   3.541   0.673  0.3517 -0.1730 -0.1702
 9914TIP3   OH253936   5.588   4.341   0.272  0.6483  0.2766 -0.0030
 9914TIP3    H153937   5.504   4.385   0.263  1.6967  2.2935 -0.5814
 9914TIP3    H253938   5.640   4.399   0.328  1.6365 -0.9713  0.4339
 9915TIP3   OH253939   7.210   6.235   0.017 -0.3300  0.1319  0.7122
 9915TIP3    H153940   7.174   6.172  -0.047  0.2514 -1.9040  2.2831
 9915TIP3    H253941   7.132   6.278   0.053 -0.9460 -1.2737  1.1411
 9916TIP3   OH253942   3.713   5.391   0.855  0.3279 -0.1928  0.1819
 9916TIP3    H153943   3.667   5.308   0.841 -1.0739  0.7443 -1.2841
 9916TIP3    H253944   3.666   5.453   0.799  1.1296  1.6658  1.4750
 9917TIP3   OH253945   4.557   2.781   1.408 -0.4710 -0.1764  0.3472
 9917TIP3    H153946   4.620   2.714   1.381  0.6478 -0.0662  2.4786
 9917TIP3    H253947   4.484   2.731   1.446  0.2638 -0.2420  1.7330
 9918TIP3   OH253948   6.227   3.397   0.768 -0.5189  0.6935 -0.0039
 9918TIP3    H153949   6.188   3.478   0.735  0.8204  0.3969 -2.5590
 9918TIP3    H253950   6.175   3.328   0.728  0.1682  0.3020 -0.2300
 9919TIP3   OH253951   3.973   6.229   0.570  0.1513  0.4264 -0.0022
 9919TIP3    H153952   4.034   6.160   0.542 -1.8598 -1.3995 -0.1221
 9919TIP3    H253953   3.931   6.257   0.489 -1.7370 -0.9712  0.4174
 9920TIP3   OH253954   1.645   4.150   1.815  0.4225  0.1356  0.3245
 9920TIP3    H153955   1.698   4.089   1.868  0.6905  0.0436 -0.0465
 9920TIP3    H253956   1.563   4.157   1.863 -0.3236 -1.9198 -0.5105
 9921TIP3   OH253957   4.231   4.658   7.807  0.2062 -0.3633 -0.7532
 9921TIP3    H153958   4.279   4.633   7.886  1.4581  0.9113 -1.0468
 9921TIP3    H253959   4.200   4.576   7.770  1.4280 -1.1673 -0.0596
 9922TIP3   OH253960   5.521   4.243   0.684  0.3382 -0.3325  0.5173
 9922TIP3    H153961   5.507   4.188   0.607  0.7211  0.7638 -0.3580
 9922TIP3    H253962   5.490   4.190   0.758 -0.4720 -1.2184 -0.4366
 9923TIP3   OH253963   7.384   7.188   2.872 -0.0261  0.4805  0.1648
 9923TIP3    H153964   7.331   7.153   2.944  0.1341 -1.5009 -0.6194
 9923TIP3    H253965   7.425   7.267   2.908 -1.0752  0.3349  1.7661
 9924TIP3   OH253966   6.786   5.286   0.223 -0.2971 -0.4344  0.1815
 9924TIP3    H153967   6.849   5.300   0.293  0.0848  0.2764 -0.2919
 9924TIP3    H253968   6.732   5.364   0.223  0.3539  0.0483 -0.9627
 9925TIP3   OH253969   4.304   4.104   8.021 -0.1469 -0.7675 -0.5242
 9925TIP3    H153970   4.395   4.102   7.992 -0.1500 -1.6317 -0.5102
 9925TIP3    H253971   4.302   4.168   8.092  0.7943 -1.8557  0.5417
 9926TIP3   OH253972   4.046   7.267   0.598  0.2850 -0.1277 -0.6643
 9926TIP3    H153973   3.963   7.239   0.559 -0.4337 -2.0461  1.9084
 9926TIP3    H253974   4.022   7.294   0.687  2.2009  1.0608 -0.4539
 9927TIP3   OH253975   4.029   3.653   9.262  0.2950 -0.4852 -0.5757
 9927TIP3    H153976   4.064   3.579   9.311 -0.9634 -0.6669  0.0956
 9927TIP3    H253977   4.017   3.618   9.173  0.4582 -0.8420 -0.4617
 9928TIP3   OH253978   4.000   3.283   1.377 -0.0310  0.0416  0.1501
 9928TIP3    H153979   4.044   3.361   1.343  1.2158 -0.8269 -0.3212
 9928TIP3    H253980   4.052   3.258   1.454  0.2394 -0.9090 -0.3171
 9929TIP3   OH253981   3.981   6.532   7.054  0.3295 -0.8471 -0.6745
 9929TIP3    H153982   4.016   6.573   6.975  0.3331  1.5880  0.5077
 9929TIP3    H253983   3.912   6.474   7.022  1.7112 -1.5396 -2.5898
 9930TIP3   OH253984   3.904   1.757   0.449 -0.1882  0.5052 -0.1263
 9930TIP3    H153985   3.963   1.683   0.461 -1.5653 -0.9629 -1.7762
 9930TIP3    H253986   3.878   1.753   0.357 -0.8753  2.6423 -0.0965
 9931TIP3   OH253987   7.017   3.577   1.473  0.0826 -0.4672  0.0210
 9931TIP3    H153988   7.003   3.487   1.445 -1.7197 -0.2901  0.2105
 9931TIP3    H253989   6.958   3.589   1.547  1.0283  0.5847  0.6428
 9932TIP3   OH253990   1.972   6.025   1.782 -0.4566  0.3415 -0.0964
 9932TIP3    H153991   2.049   6.074   1.754 -2.0268  2.1079 -1.5617
 9932TIP3    H253992   1.902   6.090   1.787 -2.0656 -1.3241  0.4073
 9933TIP3   OH253993   5.813   6.253   8.735 -0.0600  0.0108 -0.2003
 9933TIP3    H153994   5.861   6.336   8.737 -1.2271  0.7029 -0.0437
 9933TIP3    H253995   5.780   6.246   8.646  0.3736 -0.5022 -0.3285
 9934TIP3   OH253996   4.585   4.346   1.473 -0.2237 -0.1403  0.9495
 9934TIP3    H153997   4.652   4.302   1.421  1.5635  1.5906  1.6847
 9934TIP3    H253998   4.583   4.435   1.440 -0.7025  0.3818  2.3004
 9935TIP3   OH253999   1.353   6.187   2.121 -0.5341 -0.1972  0.0218
 9935TIP3    H154000   1.332   6.277   2.096  0.3481  0.9455  2.9267
 9935TIP3    H254001   1.383   6.194   2.212  0.5705 -3.3078  0.0238
 9936TIP3   OH254002   1.168   2.384   6.854 -0.5657  0.3518 -0.0502
 9936TIP3    H154003   1.094   2.373   6.915 -0.4574 -0.5433 -0.0611
 9936TIP3    H254004   1.233   2.321   6.884  1.3357  2.8950  1.5859
 9937TIP3   OH254005   3.588   2.321   9.558 -0.4429  0.6341 -0.4357
 9937TIP3    H154006   3.579   2.415   9.545  2.2488  1.1571  0.6644
 9937TIP3    H254007   3.587   2.310   9.653 -1.2923 -0.5324 -0.5656
 9938TIP3   OH254008   7.272   0.866   6.434  0.0101  0.4854 -0.0305
 9938TIP3    H154009   7.328   0.883   6.510  1.4280  0.8613 -1.1011
 9938TIP3    H254010   7.232   0.950   6.413 -0.0342  0.4834  0.0493
 9939TIP3   OH254011   7.348   1.476   9.028  0.0976 -0.0772  0.2658
 9939TIP3    H154012   7.377   1.548   9.084  1.9467  0.0743 -0.7926
 9939TIP3    H254013   7.318   1.519   8.948 -1.6080 -0.3526  0.7092
 9940TIP3   OH254014   4.750   5.691   2.588 -0.0209  0.2998 -0.3687
 9940TIP3    H154015   4.747   5.683   2.493  1.4220  0.5766 -0.4491
 9940TIP3    H254016   4.659   5.709   2.613  0.0434  3.4590 -1.9769
 9941TIP3   OH254017   1.268   2.748   7.978 -0.0868 -0.4304 -0.1111
 9941TIP3    H154018   1.203   2.818   7.984  1.1151  0.7170  0.0154
 9941TIP3    H254019   1.218   2.668   7.988 -1.6295  0.3633 -1.0709
 9942TIP3   OH254020   2.489   7.209   1.852 -0.5012 -0.4026 -0.1871
 9942TIP3    H154021   2.580   7.226   1.872 -0.7602  0.9165 -0.0361
 9942TIP3    H254022   2.447   7.198   1.937 -0.7464  0.5499 -0.1673
 9943TIP3   OH254023   3.316   6.044   1.565  0.1411 -0.0313 -0.1882
 9943TIP3    H154024   3.347   6.039   1.475  0.8257 -1.4837  0.1132
 9943TIP3    H254025   3.262   5.966   1.577 -0.8256  0.6951  0.3512
 9944TIP3   OH254026   3.550   2.560   2.187 -0.2222 -0.1351 -0.2367
 9944TIP3    H154027   3.562   2.515   2.271 -1.0309 -0.6548 -0.3773
 9944TIP3    H254028   3.629   2.539   2.137 -0.2573 -0.8082 -0.0263
 9945TIP3   OH254029   6.489   2.967   9.219 -0.0485  0.0695 -0.0184
 9945TIP3    H154030   6.491   2.897   9.284 -1.4311 -0.9112 -0.9621
 9945TIP3    H254031   6.523   2.927   9.139  0.5747  0.9297 -0.1964
 9946TIP3   OH254032   6.682   5.090   1.160 -0.2420  0.7467 -0.5325
 9946TIP3    H154033   6.644   5.137   1.086  1.5396  2.2402 -0.5847
 9946TIP3    H254034   6.726   5.158   1.211  0.7472 -0.6130  0.4994
 9947TIP3   OH254035   2.487   3.433   0.610 -0.2295 -0.1033  0.4358
 9947TIP3    H154036   2.411   3.472   0.566 -0.8730 -0.0224  1.5810
 9947TIP3    H254037   2.482   3.340   0.589 -0.1665  0.0190 -0.1614
 9948TIP3   OH254038   2.283   3.906   2.314 -0.8812 -0.3533  0.0520
 9948TIP3    H154039   2.335   3.954   2.249 -1.4393 -1.0711 -0.9501
 9948TIP3    H254040   2.231   3.974   2.358 -0.0470  0.2142  0.1813
 9949TIP3   OH254041   2.560   4.507   9.495 -0.1078  0.1525  0.0532
 9949TIP3    H154042   2.615   4.429   9.509 -0.7492 -0.4420 -0.6837
 9949TIP3    H254043   2.623   4.575   9.472  0.3392 -0.5194 -0.7904
 9950TIP3   OH254044   2.540   4.984   0.697  0.3906  0.2358  0.0248
 9950TIP3    H154045   2.586   4.933   0.631 -0.9539 -1.1141  0.0743
 9950TIP3    H254046   2.477   4.923   0.735  0.8083  1.0896  2.2520
 9951TIP3   OH254047   5.719   0.565   7.205  0.7207  0.0814  0.2251
 9951TIP3    H154048   5.735   0.474   7.232 -3.1847 -0.5000  1.2929
 9951TIP3    H254049   5.742   0.616   7.283  0.7790 -0.2614  0.4399
 9952TIP3   OH254050   4.343   5.293   2.595 -0.4651 -0.0578  0.0030
 9952TIP3    H154051   4.358   5.218   2.653 -2.0768 -1.1760 -0.9548
 9952TIP3    H254052   4.248   5.301   2.590 -0.3921  3.1979  1.4541
 9953TIP3   OH254053   1.332   2.872   3.084 -0.2527 -0.1704 -0.4321
 9953TIP3    H154054   1.396   2.805   3.059 -0.5912 -0.9956  0.7956
 9953TIP3    H254055   1.250   2.823   3.095 -0.5630  0.4855  0.2446
 9954TIP3   OH254056   2.754   5.032   8.977  0.0736 -0.1204  0.1078
 9954TIP3    H154057   2.716   5.049   9.063  0.4387 -0.2058  0.2911
 9954TIP3    H254058   2.681   5.038   8.916  0.1137  1.7317  0.1975
 9955TIP3   OH254059   1.571   2.718   7.218  0.1182  0.6450 -0.4227
 9955TIP3    H154060   1.593   2.632   7.181 -0.6160  0.1822  0.1687
 9955TIP3    H254061   1.523   2.762   7.148 -1.7587 -0.4416  0.0866
 9956TIP3   OH254062   1.967   0.219   8.275 -0.1901  0.3119  0.1526
 9956TIP3    H154063   1.957   0.145   8.215 -1.1538 -0.0729  0.7512
 9956TIP3    H254064   1.989   0.293   8.219 -2.9914  0.4039 -0.9652
 9957TIP3   OH254065   5.438   0.357   7.380  0.2713  0.3601 -0.6067
 9957TIP3    H154066   5.363   0.415   7.367  0.4585  0.8322  0.3459
 9957TIP3    H254067   5.436   0.298   7.304 -1.6092 -0.2395 -0.1589
 9958TIP3   OH254068   5.654   5.702   8.344  0.0739 -0.3941  1.1035
 9958TIP3    H154069   5.583   5.718   8.407  1.5147 -0.2251  2.7754
 9958TIP3    H254070   5.691   5.788   8.327  0.1753 -0.5344  0.6094
 9959TIP3   OH254071   5.734   6.096   9.293 -0.4331 -0.1097  0.3310
 9959TIP3    H154072   5.716   6.008   9.258 -1.7289 -0.0965  0.9266
 9959TIP3    H254073   5.825   6.112   9.269 -1.0173 -0.3961 -2.4355
 9960TIP3   OH254074   5.806   5.558   1.017 -0.1060  0.8310 -0.3602
 9960TIP3    H154075   5.735   5.505   0.982 -0.8189  1.5158  0.0136
 9960TIP3    H254076   5.862   5.576   0.942  0.9624 -1.6317 -0.2503
 9961TIP3   OH254077   0.249   3.189   7.802 -0.4967 -0.1503 -0.6692
 9961TIP3    H154078   0.217   3.269   7.761 -1.7516  0.1186  0.7515
 9961TIP3    H254079   0.283   3.137   7.729 -1.1048  1.0008 -1.8182
 9962TIP3   OH254080   5.561   2.372   1.937 -0.0678  0.2753 -0.2085
 9962TIP3    H154081   5.614   2.452   1.933 -0.5735  0.6716  0.8202
 9962TIP3    H254082   5.564   2.338   1.847  2.0432  0.1945 -0.1720
 9963TIP3   OH254083   4.764   1.652   7.728  0.0626 -0.4576  0.0958
 9963TIP3    H154084   4.699   1.590   7.694 -1.1555  0.3330  0.8978
 9963TIP3    H254085   4.849   1.613   7.705 -0.6845 -1.3950 -1.1945
 9964TIP3   OH254086   5.891   4.400   2.224  0.1334  0.1048  0.2549
 9964TIP3    H154087   5.975   4.437   2.252  0.0745  0.5344 -0.1171
 9964TIP3    H254088   5.906   4.370   2.135 -0.2482  0.6800 -0.0113
 9965TIP3   OH254089   5.702   5.517   6.978  0.1579  0.4959  0.1559
 9965TIP3    H154090   5.774   5.576   6.958  0.5113 -0.0461 -0.2009
 9965TIP3    H254091   5.635   5.573   7.017  0.6690  1.0460  0.2533
 9966TIP3   OH254092   2.586   5.784   0.435  0.2410 -0.7089  0.3485
 9966TIP3    H154093   2.580   5.871   0.396  2.4273 -0.5914  0.1869
 9966TIP3    H254094   2.618   5.800   0.524  0.2849 -1.3314  0.4491
 9967TIP3   OH254095   3.001   3.698   0.742 -0.2723 -0.1479 -0.1740
 9967TIP3    H154096   2.912   3.668   0.758  0.0213  0.1900  2.6270
 9967TIP3    H254097   3.007   3.781   0.790  1.4698 -0.0008 -0.5725
 9968TIP3   OH254098   7.082   2.234   8.875  0.0856 -0.5021  0.4049
 9968TIP3    H154099   7.140   2.286   8.932 -0.0999 -0.2197  0.3381
 9968TIP3    H254100   7.094   2.272   8.788 -0.0973 -0.5344  0.3664
 9969TIP3   OH254101   3.431   5.440   2.093 -0.5400 -0.2040 -0.7838
 9969TIP3    H154102   3.434   5.446   2.189  1.4425 -2.8241 -0.5737
 9969TIP3    H254103   3.523   5.451   2.067 -0.9844 -0.1152 -2.3688
 9970TIP3   OH254104   0.056   6.917   7.255 -0.2952 -0.0153  0.0337
 9970TIP3    H154105   0.066   6.877   7.169  0.8188  0.7648 -0.2214
 9970TIP3    H254106  -0.038   6.934   7.262 -0.2912  0.8771 -1.4954
 9971TIP3   OH254107   3.514   5.780   9.342  0.1092 -0.4012 -0.2701
 9971TIP3    H154108   3.492   5.834   9.266  2.4647 -0.8877 -1.3850
 9971TIP3    H254109   3.429   5.751   9.375 -1.0605  1.0358 -1.8001
 9972TIP3   OH254110   0.657   5.775   1.485  0.2000  0.8439 -0.0788
 9972TIP3    H154111   0.646   5.836   1.558  0.0771  0.7587 -0.0256
 9972TIP3    H254112   0.602   5.811   1.415  0.5265  1.0716 -0.2226
 9973TIP3   OH254113   6.769   1.992   9.103 -0.1370 -0.0092  0.5040
 9973TIP3    H154114   6.738   2.032   9.021 -0.8979  1.2113  1.3596
 9973TIP3    H254115   6.864   1.989   9.093 -0.1242  1.2377  0.0424
 9974TIP3   OH254116   1.398   4.896   1.941 -0.1921 -0.3385 -0.0534
 9974TIP3    H154117   1.393   4.805   1.970  0.7138 -0.1340  0.8001
 9974TIP3    H254118   1.481   4.928   1.977 -0.2040  0.6432 -0.8672
 9975TIP3   OH254119   6.868   6.253   0.732  0.3150  0.1054 -0.1853
 9975TIP3    H154120   6.914   6.196   0.794 -1.5468 -0.3142  0.8877
 9975TIP3    H254121   6.871   6.340   0.773  2.1021  0.6217 -1.2504
 9976TIP3   OH254122   1.994   0.955   8.678  0.6930 -0.6705  0.2590
 9976TIP3    H154123   1.987   1.035   8.625  0.9706  0.2842  1.6286
 9976TIP3    H254124   2.065   0.905   8.637  0.4482 -0.2885 -0.6722
 9977TIP3   OH254125   4.077   6.536   1.700  0.3804  0.6619  0.3770
 9977TIP3    H154126   4.087   6.446   1.733  0.2148  0.5753  0.1910
 9977TIP3    H254127   4.075   6.590   1.779 -0.0786  0.4459  0.5202
 9978TIP3   OH254128   2.280   5.160   2.005  0.3181  0.2009  0.1996
 9978TIP3    H154129   2.369   5.170   2.039 -0.1423  1.0377  1.2126
 9978TIP3    H254130   2.284   5.196   1.916  0.8547  0.8334  0.4686
 9979TIP3   OH254131   3.769   5.286   8.683 -0.0246 -0.0657 -0.2493
 9979TIP3    H154132   3.752   5.317   8.771 -0.6527 -0.5404 -0.2045
 9979TIP3    H254133   3.786   5.366   8.632  1.4597  0.1458  0.5224
 9980TIP3   OH254134   2.363   3.486   2.934 -0.7803  0.6407 -0.2182
 9980TIP3    H154135   2.440   3.447   2.975 -0.5846  0.6555 -0.5678
 9980TIP3    H254136   2.290   3.431   2.962 -0.5364  0.1662 -0.5184
 9981TIP3   OH254137   7.321   4.848   7.931  0.2303 -0.2599  0.0297
 9981TIP3    H154138   7.300   4.768   7.883 -0.3332 -1.0222  1.4834
 9981TIP3    H254139   7.284   4.919   7.878  0.9438 -0.9172 -1.3926
 9982TIP3   OH254140   7.004   7.307   8.785 -0.0059 -0.0309 -0.8122
 9982TIP3    H154141   7.003   7.382   8.725  0.1467  0.3954 -0.2878
 9982TIP3    H254142   6.981   7.232   8.729 -1.1752  0.5492 -1.1451
 9983TIP3   OH254143   0.782   0.170   1.789 -0.5446 -0.4426 -0.2570
 9983TIP3    H154144   0.692   0.192   1.764 -0.9756 -2.5640 -0.8390
 9983TIP3    H254145   0.775   0.083   1.829  1.2533 -0.7195 -0.4407
 9984TIP3   OH254146   0.271   4.676   6.982  0.3443  0.6125 -0.4300
 9984TIP3    H154147   0.304   4.669   6.892 -1.5009 -2.6230 -1.0055
 9984TIP3    H254148   0.336   4.630   7.035 -0.7624 -1.5866 -0.8756
 9985TIP3   OH254149   3.612   1.361   1.074 -0.0389  0.4044 -0.7284
 9985TIP3    H154150   3.642   1.437   1.024  0.4859  2.8905  2.9852
 9985TIP3    H254151   3.692   1.310   1.089  0.2174  0.8264 -0.6199
 9986TIP3   OH254152   3.107   0.671   8.715  0.0451  0.0412 -0.4297
 9986TIP3    H154153   3.185   0.683   8.769  0.3599  2.3140 -1.2907
 9986TIP3    H254154   3.042   0.632   8.773  1.8173 -2.0008  0.2775
 9987TIP3   OH254155   6.837   2.750   1.498 -0.3413  0.0927 -0.4396
 9987TIP3    H154156   6.778   2.700   1.442 -2.0791  1.6651 -0.0845
 9987TIP3    H254157   6.791   2.832   1.516  1.6269  1.0722  0.4964
 9988TIP3   OH254158   3.557   5.710   8.315  0.2156 -0.4457  0.1415
 9988TIP3    H154159   3.485   5.711   8.252  0.4399  1.2014 -0.1212
 9988TIP3    H254160   3.585   5.618   8.318 -2.0656 -1.1877  0.4764
 9989TIP3   OH254161   2.969   4.866   9.074 -0.1430 -0.3379  0.0778
 9989TIP3    H154162   2.949   4.809   9.148 -1.1384 -0.3214 -0.1613
 9989TIP3    H254163   2.889   4.917   9.061  0.2684  0.1634 -0.5625
 9990TIP3   OH254164   4.583   3.265   0.266 -0.1791  0.1240  0.3029
 9990TIP3    H154165   4.586   3.329   0.194  0.3204 -1.4369 -1.1300
 9990TIP3    H254166   4.672   3.232   0.273 -0.3020  0.0014  1.4275
 9991TIP3   OH254167   0.160   2.189   1.775 -0.0451 -0.1296 -0.0118
 9991TIP3    H154168   0.212   2.209   1.698 -0.2424  0.3024 -0.0353
 9991TIP3    H254169   0.069   2.198   1.745 -0.1262 -0.3482  0.1678
 9992TIP3   OH254170   1.530   2.777   7.981  0.0906  0.2452  0.4582
 9992TIP3    H154171   1.564   2.818   8.061 -1.2702  0.5791  0.8902
 9992TIP3    H254172   1.442   2.747   8.005 -0.3403  0.3542 -0.9260
 9993TIP3   OH254173   5.279   2.556   2.252 -0.1322 -0.2028 -0.2481
 9993TIP3    H154174   5.310   2.553   2.343  0.5885 -2.1774 -0.5195
 9993TIP3    H254175   5.190   2.520   2.256  0.2912 -1.2904 -0.4584
 9994TIP3   OH254176   2.153   4.557   1.905 -0.0743 -0.2072 -0.0044
 9994TIP3    H154177   2.231   4.602   1.938 -0.2905  0.9960 -1.0527
 9994TIP3    H254178   2.082   4.588   1.960  0.1137 -1.0589  0.7452
 9995TIP3   OH254179   6.736   3.859   0.922 -0.0738 -0.2394 -0.5680
 9995TIP3    H154180   6.737   3.952   0.898  0.1904 -0.4679 -1.4736
 9995TIP3    H254181   6.827   3.831   0.911 -0.0093 -0.4381  0.4036
 9996TIP3   OH254182   3.136   2.867   9.308 -0.2743 -0.0006 -0.3909
 9996TIP3    H154183   3.070   2.880   9.240 -0.6856 -1.6151 -0.3552
 9996TIP3    H254184   3.109   2.926   9.378 -1.9431 -0.8798 -0.2225
 9997TIP3   OH254185   6.178   1.424   8.105 -0.0143 -0.4096  0.1709
 9997TIP3    H154186   6.141   1.419   8.017 -1.0289 -0.6336  0.5976
 9997TIP3    H254187   6.170   1.336   8.140  2.7979 -1.0119 -0.4074
 9998TIP3   OH254188   4.012   3.388   9.336 -0.4709 -0.4561 -0.1983
 9998TIP3    H154189   3.940   3.429   9.385  0.3880 -0.0012  0.7127
 9998TIP3    H254190   3.970   3.318   9.287 -1.4647 -0.5503  0.7430
 9999TIP3   OH254191   3.910   6.786   9.644  0.2126 -0.6199 -0.4292
 9999TIP3    H154192   3.828   6.812   9.603  1.4025  1.3703 -1.7539
 9999TIP3    H254193   3.941   6.866   9.687  1.3352 -1.4003  0.2768
10000TIP3   OH254194   3.059   3.957   2.264 -0.4682  0.0300  0.1813
10000TIP3    H154195   3.150   3.970   2.237 -0.7074  1.5669  0.0056
10000TIP3    H254196   3.024   4.046   2.274 -1.3316 -0.4696  2.3640
10001TIP3   OH254197   7.318   2.955   7.763  0.1215 -0.7235 -1.0873
10001TIP3    H154198   7.297   3.013   7.836 -0.6378 -2.1260 -0.1250
10001TIP3    H254199   7.371   3.008   7.704 -0.8345  1.0433 -0.4486
10002TIP3   OH254200   3.288   2.217   9.024 -0.3990  0.2153 -0.0722
10002TIP3    H154201   3.344   2.252   8.955 -1.4356  0.6065 -0.7235
10002TIP3    H254202   3.201   2.252   9.006 -0.8341 -0.2429  1.0267
10003TIP3   OH254203   3.721   2.104   9.433  0.3011 -0.1430 -0.1633
10003TIP3    H154204   3.663   2.044   9.386 -0.0207  0.1143 -0.0957
10003TIP3    H254205   3.663   2.173   9.466  0.1949 -1.2659  2.2373
10004TIP3   OH254206   6.639   7.232   8.084  0.6523  0.0619  0.1393
10004TIP3    H154207   6.707   7.300   8.087  0.1848  0.6780 -1.9754
10004TIP3    H254208   6.684   7.156   8.048 -0.1646  1.1304 -3.5170
10005TIP3   OH254209   3.591   1.003   9.283 -0.2709  1.0301  0.3604
10005TIP3    H154210   3.518   1.061   9.265 -1.2441 -0.2042  0.1669
10005TIP3    H254211   3.556   0.939   9.346  0.5730  0.2884  0.0998
10006TIP3   OH254212   2.380   5.474   0.480 -0.8740  0.6240  0.0797
10006TIP3    H154213   2.401   5.567   0.477  0.0552  0.3951 -1.7261
10006TIP3    H254214   2.393   5.450   0.572  2.6913  1.4786 -0.0650
10007TIP3   OH254215   5.571   2.723   1.090 -0.5792 -0.5166 -0.3414
10007TIP3    H154216   5.555   2.630   1.107  1.4490 -0.5171  2.1903
10007TIP3    H254217   5.504   2.769   1.143  0.1544 -0.5701  0.6656
10008TIP3   OH254218   1.826   4.681   3.042 -0.0412  0.1928  0.3620
10008TIP3    H154219   1.807   4.751   2.980  0.4303 -0.2512 -0.2890
10008TIP3    H254220   1.901   4.713   3.092  0.9538 -0.3343 -0.7513
10009TIP3   OH254221   1.131   6.446   1.422  0.1211  0.4091 -0.4475
10009TIP3    H154222   1.179   6.411   1.347  1.3801 -0.2668  0.6287
10009TIP3    H254223   1.139   6.541   1.413 -0.0672  0.3572 -1.3437
10010TIP3   OH254224   4.464   5.013   8.576  0.1887 -0.4962 -0.0628
10010TIP3    H154225   4.404   5.086   8.564 -0.7924 -1.1299  0.8338
10010TIP3    H254226   4.448   4.957   8.499  0.0970 -0.3416 -0.1573
10011TIP3   OH254227   5.715   6.081   6.820 -0.1383 -0.2458  0.3921
10011TIP3    H154228   5.656   6.021   6.774  0.4142 -1.7459  1.5416
10011TIP3    H254229   5.793   6.028   6.838  1.2538  1.4529 -0.3948
10012TIP3   OH254230   0.302   5.341   7.340 -0.1108  0.2773  1.0010
10012TIP3    H154231   0.271   5.261   7.296  0.1497  0.8999 -0.3763
10012TIP3    H254232   0.388   5.318   7.373 -0.2931 -0.1962  1.1555
10013TIP3   OH254233   4.305   0.033   8.958 -0.1810 -0.3708 -0.3137
10013TIP3    H154234   4.272   0.067   8.875 -0.1405 -0.1212 -0.2282
10013TIP3    H254235   4.230   0.041   9.018 -0.3307 -0.8988 -0.4166
10014TIP3   OH254236   7.403   3.065   8.624 -0.0086  0.3831 -0.8201
10014TIP3    H154237   7.378   3.000   8.559 -2.7016  0.4139  0.0817
10014TIP3    H254238   7.343   3.050   8.697  1.7131  1.5286  0.9398
10015TIP3   OH254239   4.417   2.033   7.776 -0.1869  0.3262 -0.1443
10015TIP3    H154240   4.444   2.115   7.819  0.6946  0.3261 -0.6728
10015TIP3    H254241   4.398   2.059   7.686 -4.7148  0.8648  0.7573
10016TIP3   OH254242   2.229   1.567   1.816  0.3580  0.0612 -0.6133
10016TIP3    H154243   2.272   1.541   1.734 -0.1414 -0.1639 -0.8066
10016TIP3    H254244   2.211   1.485   1.861 -0.2885  0.1254 -0.7480
10017TIP3   OH254245   6.690   6.971   8.519 -0.1859  0.0828 -0.3168
10017TIP3    H154246   6.659   7.021   8.443 -0.3899 -1.5709 -1.3785
10017TIP3    H254247   6.610   6.945   8.565 -0.1407 -0.0805 -0.3284
10018TIP3   OH254248   5.472   1.851   0.636 -0.4734 -0.1946  0.1974
10018TIP3    H154249   5.473   1.868   0.730  0.3828 -0.2178  0.1950
10018TIP3    H254250   5.562   1.831   0.614 -0.0318  2.6722 -1.1257
10019TIP3   OH254251   2.265   7.118   1.163  0.0271 -0.2850 -0.1556
10019TIP3    H154252   2.357   7.113   1.139  0.6814  0.3300  1.9815
10019TIP3    H254253   2.219   7.074   1.092  1.8898  0.0563 -1.6420
10020TIP3   OH254254   0.393   4.361   9.086 -0.2869 -0.0106  0.1941
10020TIP3    H154255   0.352   4.444   9.107  0.2909  0.3882 -0.2228
10020TIP3    H254256   0.336   4.295   9.125  0.2735  0.6393  2.2547
10021TIP3   OH254257   3.352   3.722   9.269 -0.2395 -0.1091 -0.6248
10021TIP3    H154258   3.342   3.644   9.213  1.7763  0.1787 -1.4526
10021TIP3    H254259   3.293   3.786   9.229 -0.2627 -0.5186 -1.2770
10022TIP3   OH254260   6.338   3.621   7.573  0.6471 -0.2559 -0.6489
10022TIP3    H154261   6.355   3.595   7.482  0.1613 -1.4971 -0.3981
10022TIP3    H254262   6.243   3.612   7.583  0.6813  0.0322 -0.0628
10023TIP3   OH254263   5.579   0.086   1.294  0.1804 -0.1323 -0.0870
10023TIP3    H154264   5.635   0.155   1.258 -0.4190  0.1869 -0.4217
10023TIP3    H254265   5.563   0.112   1.384 -1.7322  1.2784 -0.7807
10024TIP3   OH254266   2.612   2.740   2.482 -0.2531 -0.6364  0.1894
10024TIP3    H154267   2.649   2.671   2.537 -1.4150 -0.3987  1.3332
10024TIP3    H254268   2.672   2.747   2.408  0.8134 -1.6828  0.9168
10025TIP3   OH254269   5.015   4.854   7.702 -0.2345  0.2825 -0.0442
10025TIP3    H154270   5.052   4.940   7.719 -1.3716  0.2940  2.8820
10025TIP3    H254271   5.082   4.792   7.730 -0.2515  0.2358 -0.1040
10026TIP3   OH254272   4.891   0.266   9.248 -0.4398  0.5074  0.2947
10026TIP3    H154273   4.945   0.205   9.198  1.1453  1.5208  0.7023
10026TIP3    H254274   4.866   0.334   9.185 -0.5683  0.4575  0.2913
10027TIP3   OH254275   6.335   7.321   8.973  0.1048 -0.0683 -1.1408
10027TIP3    H154276   6.298   7.244   9.016  0.2836 -0.4079 -1.5901
10027TIP3    H254277   6.285   7.329   8.892 -0.6147  0.9022 -0.6138
10028TIP3   OH254278   0.163   6.898   2.503 -0.4926  0.4964 -0.1630
10028TIP3    H154279   0.136   6.900   2.595 -0.2490 -0.7940 -0.0477
10028TIP3    H254280   0.255   6.873   2.505 -0.3693  0.8819 -0.7478
10029TIP3   OH254281   1.594   0.298   3.069  0.2048 -0.0369  0.3854
10029TIP3    H154282   1.677   0.297   3.117  1.5046  0.8366 -1.6621
10029TIP3    H254283   1.592   0.214   3.023  1.3469  0.9716 -1.6397
10030TIP3   OH254284   1.111   0.591   2.427  0.4786 -0.0643  0.2621
10030TIP3    H154285   1.145   0.635   2.504  1.6007 -0.7760  0.2091
10030TIP3    H254286   1.174   0.520   2.411  0.0116 -0.2206 -1.0133
10031TIP3   OH254287   3.034   3.605   8.942 -0.1642 -0.4567  0.0677
10031TIP3    H154288   3.025   3.512   8.923  0.4507 -0.4340 -0.3633
10031TIP3    H254289   2.950   3.630   8.980 -0.2179 -1.2582  0.4981
10032TIP3   OH254290   4.181   2.105   0.786 -0.0054 -0.1936 -0.3408
10032TIP3    H154291   4.141   2.156   0.857 -0.5225  0.8498 -1.3299
10032TIP3    H254292   4.236   2.168   0.740  2.7707 -1.5642  0.8883
10033TIP3   OH254293   4.119   4.194   1.178 -0.9305  0.0958 -0.5220
10033TIP3    H154294   4.214   4.198   1.188 -0.9630  0.3247 -0.2792
10033TIP3    H254295   4.086   4.251   1.247 -1.2542 -0.1974 -0.4307
10034TIP3   OH254296   3.888   2.364   0.329  0.1372  0.2646 -0.2615
10034TIP3    H154297   3.861   2.286   0.377  0.8942 -0.6368 -1.2445
10034TIP3    H254298   3.983   2.359   0.324  0.2706  1.6449  0.2734
10035TIP3   OH254299   2.298   5.741   8.474 -0.2827  0.5663 -0.3128
10035TIP3    H154300   2.281   5.792   8.554  1.0642 -1.6918  1.5220
10035TIP3    H254301   2.211   5.729   8.436 -0.9435  1.9234  0.6542
10036TIP3   OH254302   6.231   3.868   7.641 -0.2877 -0.1106  0.0481
10036TIP3    H154303   6.186   3.799   7.593 -0.4369 -0.1786  0.2863
10036TIP3    H254304   6.258   3.827   7.723  0.6127 -0.2040 -0.2781
10037TIP3   OH254305   2.221   5.209   0.200 -0.3837  0.3486  0.5216
10037TIP3    H154306   2.181   5.251   0.125  0.7323 -0.2204 -0.4286
10037TIP3    H254307   2.158   5.221   0.271 -1.1099  1.5659 -0.3000
10038TIP3   OH254308   0.886   2.367   6.908 -0.4295  0.0075 -0.3801
10038TIP3    H154309   0.889   2.388   6.814  0.9671  0.9851 -0.1556
10038TIP3    H254310   0.802   2.400   6.938 -1.3654 -1.2834 -1.4861
10039TIP3   OH254311   5.731   4.457   1.351 -0.4661 -0.1860  0.0096
10039TIP3    H154312   5.762   4.499   1.432 -1.9487 -0.3160  0.6786
10039TIP3    H254313   5.778   4.373   1.348  0.6136  0.3968  0.0005
10040TIP3   OH254314   0.293   5.048   1.086 -0.5081  0.1803 -0.0990
10040TIP3    H154315   0.199   5.065   1.085 -0.4346  0.5966 -0.2209
10040TIP3    H254316   0.315   5.031   0.994 -0.5373 -0.3286 -0.0113
10041TIP3   OH254317   4.616   2.512   1.530  0.3466  0.5464  0.1908
10041TIP3    H154318   4.682   2.452   1.567 -0.9221  0.1220  1.9049
10041TIP3    H254319   4.533   2.479   1.563 -0.4735  2.8633  0.6497
10042TIP3   OH254320   6.842   3.924   2.513 -0.2937  0.1551 -0.1229
10042TIP3    H154321   6.854   3.998   2.572 -1.2260  1.0341 -0.9907
10042TIP3    H254322   6.903   3.858   2.545 -0.1380  0.9275  1.2660
10043TIP3   OH254323   3.808   2.106   1.667  0.4402 -0.5149  0.0200
10043TIP3    H154324   3.715   2.124   1.654  0.1053 -1.6156  0.7600
10043TIP3    H254325   3.832   2.048   1.595  0.7474  0.3365 -0.5805
10044TIP3   OH254326   4.623   4.370   9.497 -0.3817 -0.8439  0.5488
10044TIP3    H154327   4.683   4.419   9.441 -1.4241 -0.2909 -0.1195
10044TIP3    H254328   4.547   4.428   9.508 -0.5221 -1.2444  1.9366
10045TIP3   OH254329   5.447   5.461   9.571  0.7646 -0.0936  0.4239
10045TIP3    H154330   5.377   5.397   9.562 -1.4195  2.2436 -0.4549
10045TIP3    H254331   5.479   5.476   9.482 -0.5191  1.7736  0.2147
10046TIP3   OH254332   2.341   0.248   9.289 -0.4316  0.4705 -0.1674
10046TIP3    H154333   2.368   0.185   9.222 -2.4117  0.8396 -1.4044
10046TIP3    H254334   2.421   0.266   9.339  0.1613 -3.3805  0.6194
10047TIP3   OH254335   6.292   7.012   6.764  0.2375  0.2740  0.2081
10047TIP3    H154336   6.267   7.050   6.680  0.7363  0.5522  0.1782
10047TIP3    H254337   6.344   7.080   6.807  1.3164 -0.4358  0.0666
10048TIP3   OH254338   4.133   3.710   7.529 -0.4438 -0.1707 -0.6687
10048TIP3    H154339   4.221   3.713   7.566 -0.1199 -1.8245 -1.2248
10048TIP3    H254340   4.112   3.802   7.509 -0.2946  0.7572  2.7029
10049TIP3   OH254341   3.528   3.991   1.821 -0.2019  0.0086 -0.1731
10049TIP3    H154342   3.450   4.010   1.873  0.6777 -0.0959  1.2276
10049TIP3    H254343   3.597   3.973   1.886  1.0970  0.5216 -1.3542
10050TIP3   OH254344   5.816   3.535   1.233  0.0369  0.1935 -0.2024
10050TIP3    H154345   5.771   3.463   1.189 -0.3080  0.9834 -1.1903
10050TIP3    H254346   5.836   3.501   1.321  0.4707 -1.3146 -0.8531
10051TIP3   OH254347   3.549   5.083   7.899 -0.0406  0.3465  0.1141
10051TIP3    H154348   3.479   5.019   7.911  0.5829 -0.2232  0.8170
10051TIP3    H254349   3.616   5.036   7.851 -0.1039  0.8708 -0.5035
10052TIP3   OH254350   3.892   1.388   8.976 -0.2458 -0.3541 -0.0795
10052TIP3    H154351   3.821   1.324   8.975 -0.7189  0.1234  1.6856
10052TIP3    H254352   3.849   1.473   8.977  0.3869  0.0177 -1.4842
10053TIP3   OH254353   6.332   2.347   6.110 -0.4062  0.3799  0.0785
10053TIP3    H154354   6.382   2.279   6.154 -0.6821  0.5629  0.6856
10053TIP3    H254355   6.295   2.400   6.181  0.1641  1.4327 -0.3864
10054TIP3   OH254356   6.700   6.765   1.520 -0.0026 -0.7294 -0.6395
10054TIP3    H154357   6.720   6.672   1.530 -0.8092 -0.9022 -0.5895
10054TIP3    H254358   6.778   6.802   1.479 -0.2819 -1.7209 -2.1179
10055TIP3   OH254359   4.831   3.812   7.969  0.0981  0.0863 -0.5878
10055TIP3    H154360   4.784   3.800   7.887  1.1904 -0.0874 -1.1995
10055TIP3    H254361   4.890   3.885   7.953  0.2942  0.0758  0.0553
10056TIP3   OH254362   5.620   5.772   1.246  0.5986  0.0561 -0.2254
10056TIP3    H154363   5.608   5.845   1.186 -1.4542 -0.4065 -0.4262
10056TIP3    H254364   5.711   5.745   1.232  1.2575  2.2056 -0.5070
10057TIP3   OH254365   1.531   0.816   0.797  0.2681 -0.3761 -0.5740
10057TIP3    H154366   1.509   0.754   0.867  1.0687  0.6514  0.6351
10057TIP3    H254367   1.600   0.772   0.747  1.4996 -0.1244  0.8346
10058TIP3   OH254368   3.579   3.147   8.665 -0.6838  0.2629 -0.5375
10058TIP3    H154369   3.506   3.193   8.708  1.6416  1.6878  2.2522
10058TIP3    H254370   3.617   3.212   8.607 -1.1661 -0.2576 -1.4547
10059TIP3   OH254371   4.209   5.692   7.311 -0.4262  0.1191 -0.4743
10059TIP3    H154372   4.298   5.681   7.345 -0.0695  1.0034 -1.0957
10059TIP3    H254373   4.211   5.648   7.226  0.2200  2.3775 -1.7147
10060TIP3   OH254374   7.360   1.829   8.131 -0.3726  0.8848 -0.2451
10060TIP3    H154375   7.363   1.774   8.209 -2.0148  1.5413  0.3095
10060TIP3    H254376   7.446   1.818   8.091 -0.5458 -1.9035 -0.0298
10061TIP3   OH254377   2.445   2.694   1.104 -0.1394  0.5205 -0.6168
10061TIP3    H154378   2.372   2.631   1.100  0.5074 -0.5903  2.2893
10061TIP3    H254379   2.402   2.779   1.115 -1.0898 -0.1401  1.2974
10062TIP3   OH254380   1.262   6.284   1.244 -0.1705  0.7080  0.5290
10062TIP3    H154381   1.335   6.276   1.306  0.2736  0.7576  0.0189
10062TIP3    H254382   1.304   6.304   1.161 -0.7196  0.0651  0.0899
10063TIP3   OH254383   6.217   3.893   1.478 -0.2487  0.0512 -0.3045
10063TIP3    H154384   6.244   3.811   1.436 -3.2496 -0.0341 -2.4327
10063TIP3    H254385   6.222   3.875   1.572  0.9457 -1.9013 -0.6914
10064TIP3   OH254386   6.081   3.212   0.607  0.7236 -0.1100 -0.0035
10064TIP3    H154387   6.144   3.145   0.633  1.5363  0.3450 -0.7225
10064TIP3    H254388   6.035   3.174   0.532  1.8396  0.4560 -1.0197
10065TIP3   OH254389   4.259   3.152   1.240 -0.2460 -0.0219 -0.2814
10065TIP3    H154390   4.339   3.134   1.290 -0.0307 -0.2011 -0.6872
10065TIP3    H254391   4.258   3.086   1.171 -0.2875  0.5202 -0.8078
10066TIP3   OH254392   7.416   2.911   7.422  0.1044 -0.3410  0.0040
10066TIP3    H154393   7.460   2.835   7.458  1.1213  0.0717 -0.3295
10066TIP3    H254394   7.419   2.898   7.327  0.8102  0.3758 -0.0867
10067TIP3   OH254395   0.523   1.119   0.197  0.2130 -0.2532  0.4297
10067TIP3    H154396   0.449   1.129   0.137 -0.5070  1.3743  1.5118
10067TIP3    H254397   0.496   1.049   0.256 -1.9175  2.2267  2.6674
10068TIP3   OH254398   4.222   6.124   2.457 -1.0918 -0.3757 -0.3147
10068TIP3    H154399   4.248   6.146   2.367 -2.2324  0.0236 -0.5688
10068TIP3    H254400   4.260   6.038   2.472 -2.9625 -1.6453 -2.1523
10069TIP3   OH254401   0.708   0.353   7.340 -0.1392  0.0681  0.0760
10069TIP3    H154402   0.654   0.305   7.277 -0.8374 -0.2144  0.8711
10069TIP3    H254403   0.747   0.423   7.288 -0.2698 -0.4707 -0.7880
10070TIP3   OH254404   4.390   6.988   0.375  0.0326  0.3824  1.2698
10070TIP3    H154405   4.482   7.015   0.370  0.3516 -0.7990  0.3871
10070TIP3    H254406   4.357   7.031   0.454  1.8460 -0.6122  2.6306
10071TIP3   OH254407   2.071   1.230   7.949  0.5437 -0.0182  0.3593
10071TIP3    H154408   2.006   1.284   7.905  1.1936  0.4742 -0.0217
10071TIP3    H254409   2.021   1.176   8.010 -0.1721  0.6430  0.3694
10072TIP3   OH254410   4.296   6.270   0.686 -0.4699 -0.0927  0.2162
10072TIP3    H154411   4.377   6.264   0.636  0.6642 -0.0369  1.9887
10072TIP3    H254412   4.241   6.330   0.635  0.9145  0.5460 -0.5750
10073TIP3   OH254413   6.856   5.637   0.400 -0.2049  0.1746  0.2182
10073TIP3    H154414   6.762   5.651   0.416  0.0595  0.3514  1.7438
10073TIP3    H254415   6.875   5.691   0.323 -1.0334  1.4295  0.8503
10074TIP3   OH254416   0.520   5.787   0.194 -0.2120  0.2034 -0.5551
10074TIP3    H154417   0.551   5.867   0.236 -1.5003 -0.5034  1.9455
10074TIP3    H254418   0.439   5.814   0.149 -2.1307 -0.0612  2.4828
10075TIP3   OH254419   3.842   2.767   2.264  0.0870 -0.7404  0.2124
10075TIP3    H154420   3.856   2.690   2.320  0.3140 -0.8711 -0.0216
10075TIP3    H254421   3.881   2.743   2.180  1.3619  0.1352  0.5335
10076TIP3   OH254422   1.266   2.437   8.937 -0.4871  0.2739 -0.1065
10076TIP3    H154423   1.329   2.444   9.009 -2.1641  0.5709  1.3754
10076TIP3    H254424   1.241   2.528   8.918 -0.9152  0.1228 -0.2760
10077TIP3   OH254425   2.998   1.099   8.755 -0.5321  0.4506  0.1197
10077TIP3    H154426   3.006   1.046   8.676 -1.0422  1.6308 -0.7628
10077TIP3    H254427   3.058   1.059   8.818  0.5366 -0.0078 -1.1613
10078TIP3   OH254428   1.531   2.066   0.029 -0.4848  0.2406  0.6545
10078TIP3    H154429   1.550   2.122   0.104 -1.2884 -0.9980  1.8333
10078TIP3    H254430   1.455   2.014   0.056 -0.6895 -0.3617 -0.9570
10079TIP3   OH254431   4.547   4.921   8.942 -0.6447  0.8751 -0.1486
10079TIP3    H154432   4.591   4.919   9.027  1.5590  2.1971 -1.1621
10079TIP3    H254433   4.454   4.931   8.963 -0.0292  2.7841  2.1140
10080TIP3   OH254434   5.405   7.194   0.653  0.0751  0.2063 -0.3803
10080TIP3    H154435   5.358   7.271   0.621  0.1875  0.7094  0.6256
10080TIP3    H254436   5.429   7.146   0.574  0.7747  1.6396 -1.0789
10081TIP3   OH254437   6.096   7.070   7.447  0.6178 -0.3706 -0.3898
10081TIP3    H154438   6.095   7.161   7.477 -2.9229 -0.1517 -0.6420
10081TIP3    H254439   6.122   7.019   7.524  0.4409  0.7307  0.4234
10082TIP3   OH254440   6.225   4.602   8.721  0.3229  0.2757  0.5678
10082TIP3    H154441   6.177   4.635   8.645  1.1525  0.1955 -0.0089
10082TIP3    H254442   6.159   4.562   8.777 -0.1918 -0.4660 -0.5424
10083TIP3   OH254443   5.992   0.637   0.909 -0.2383 -0.7424  0.2026
10083TIP3    H154444   6.002   0.712   0.850  0.8245 -1.7320 -0.9706
10083TIP3    H254445   5.921   0.660   0.967  0.1750  1.2356 -0.0223
10084TIP3   OH254446   3.038   3.720   0.051  0.0199  0.6271 -0.2350
10084TIP3    H154447   3.009   3.682   0.134  3.5295 -0.3166  0.7102
10084TIP3    H254448   3.095   3.792   0.076  0.7477  0.6517 -1.8431
10085TIP3   OH254449   1.457   6.159   2.380 -0.2503  0.1036  0.7431
10085TIP3    H154450   1.494   6.179   2.467  1.4532 -0.3722  0.1814
10085TIP3    H254451   1.422   6.070   2.389  0.8119 -0.3365  0.7119
10086TIP3   OH254452   2.098   2.721   8.713  0.6733  0.3030 -0.2061
10086TIP3    H154453   2.086   2.814   8.733  1.1521  0.4133 -0.3948
10086TIP3    H254454   2.192   2.707   8.724  0.7434  0.0571 -1.0498
10087TIP3   OH254455   4.408   3.218   9.402  0.6011  0.1259  0.2383
10087TIP3    H154456   4.482   3.211   9.342  0.1434  0.3432 -0.3642
10087TIP3    H254457   4.381   3.128   9.419  1.2489  0.0299  0.7745
10088TIP3   OH254458   2.144   6.309   1.902 -0.0599  0.0229 -0.4558
10088TIP3    H154459   2.208   6.371   1.936 -1.0354  0.7987  0.0299
10088TIP3    H254460   2.129   6.248   1.974 -1.3209  1.0271  0.1788
10089TIP3   OH254461   0.468   7.360   7.078  0.1625  0.4322  0.6067
10089TIP3    H154462   0.469   7.335   6.986 -1.8486  1.3128  0.2910
10089TIP3    H254463   0.550   7.409   7.091  2.0268 -2.3084  0.1668
10090TIP3   OH254464   0.503   4.050   2.919 -0.0201 -0.5977 -0.0548
10090TIP3    H154465   0.465   4.041   3.007 -0.8822 -2.4374 -0.5496
10090TIP3    H254466   0.592   4.018   2.929  0.1926  0.1056  0.3420
10091TIP3   OH254467   1.321   6.944   8.124 -0.1306  0.4344 -0.7124
10091TIP3    H154468   1.287   6.882   8.189  1.9470 -0.1729 -0.1549
10091TIP3    H254469   1.372   7.006   8.174 -0.5557  1.4622 -1.5097
10092TIP3   OH254470   2.511   3.921   0.193 -0.8743 -0.0893  0.4346
10092TIP3    H154471   2.480   3.843   0.238 -1.5255  0.4466  0.9423
10092TIP3    H254472   2.592   3.945   0.240  0.1699 -1.3014 -0.6859
10093TIP3   OH254473   5.609   2.015   8.221 -0.1838 -0.1467 -0.6884
10093TIP3    H154474   5.637   2.106   8.215 -2.5700  0.7162 -0.0063
10093TIP3    H254475   5.629   1.977   8.136 -1.1535  1.6666 -1.7802
10094TIP3   OH254476   4.157   5.995   0.714 -0.5978 -0.2019  0.7993
10094TIP3    H154477   4.218   6.063   0.687  0.5934 -1.8689 -0.9564
10094TIP3    H254478   4.213   5.927   0.752 -1.5599 -0.9579  0.8949
10095TIP3   OH254479   2.813   7.376   7.273 -0.0225  0.3130 -0.9651
10095TIP3    H154480   2.856   7.340   7.196  0.1846 -1.9461  0.1238
10095TIP3    H254481   2.873   7.355   7.346 -1.9812 -1.1684  0.3200
10096TIP3   OH254482   3.922   5.178   1.426  0.6288 -0.0430 -0.4452
10096TIP3    H154483   3.860   5.235   1.380  2.0413  1.2778 -0.8015
10096TIP3    H254484   3.909   5.091   1.387 -2.1036 -0.1950  0.6441
10097TIP3   OH254485   0.183   1.770   6.323 -0.0726  0.0028  0.0750
10097TIP3    H154486   0.236   1.691   6.327  1.0779  0.7160 -0.4823
10097TIP3    H254487   0.107   1.751   6.377  0.9156 -0.9345  1.1866
10098TIP3   OH254488   5.631   3.339   1.135  0.2025  0.5491  0.2716
10098TIP3    H154489   5.588   3.305   1.057  1.1873 -0.1865  0.0222
10098TIP3    H254490   5.587   3.422   1.153 -2.1837 -0.7480  0.8163
10099TIP3   OH254491   7.394   0.377   2.127 -0.1436 -0.4193  0.0233
10099TIP3    H154492   7.480   0.342   2.151  0.4750  0.3596 -0.9619
10099TIP3    H254493   7.405   0.408   2.037 -0.8059  1.7544  0.6301
10100TIP3   OH254494   3.365   2.938   9.038 -0.3690  0.1981  0.3062
10100TIP3    H154495   3.300   2.965   8.973  1.1376  0.6796 -1.0582
10100TIP3    H254496   3.339   2.983   9.118 -0.1264  2.7220 -0.9423
10101TIP3   OH254497   4.153   7.076   8.225 -0.1113 -0.1516  0.1038
10101TIP3    H154498   4.189   6.998   8.268  3.3648  0.8047 -0.7078
10101TIP3    H254499   4.230   7.130   8.207 -2.0726  2.1924 -1.8973
10102TIP3   OH254500   6.240   4.326   1.293  0.2990  0.4916  0.7433
10102TIP3    H154501   6.277   4.289   1.212 -0.3807 -0.5337  0.8909
10102TIP3    H254502   6.313   4.324   1.355  0.5837  0.4600  0.4148
10103TIP3   OH254503   4.839   1.223   0.769 -0.4891  0.2292 -0.5792
10103TIP3    H154504   4.875   1.297   0.818  1.6909 -1.1865  0.1049
10103TIP3    H254505   4.808   1.261   0.687  1.9070  1.7293 -0.8701
10104TIP3   OH254506   0.636   0.461   7.997  0.5402 -0.0185 -0.1429
10104TIP3    H154507   0.624   0.418   8.082  0.1562  0.0762 -0.1488
10104TIP3    H254508   0.614   0.552   8.013  0.2720 -0.0373 -0.3883
10105TIP3   OH254509   0.784   5.175   0.822  0.4412  0.0032 -0.6322
10105TIP3    H154510   0.764   5.263   0.789 -0.4431 -0.0499 -0.2691
10105TIP3    H254511   0.873   5.158   0.792  1.1690  1.5933  0.4821
10106TIP3   OH254512   6.550   0.809   1.194  0.0045 -0.2090  0.1587
10106TIP3    H154513   6.607   0.886   1.190  0.8515 -0.8858 -1.2573
10106TIP3    H254514   6.590   0.753   1.260  0.5203 -0.3132 -0.2381
10107TIP3   OH254515   1.934   7.270   8.634 -0.3906  0.4337  0.1827
10107TIP3    H154516   1.946   7.260   8.539  1.3142  0.1204  0.3940
10107TIP3    H254517   1.893   7.188   8.661  0.3517 -0.0574 -0.1238
10108TIP3   OH254518   4.114   5.315   0.354  0.4022  0.1570  0.3069
10108TIP3    H154519   4.180   5.250   0.332  0.0890  0.0890 -0.4691
10108TIP3    H254520   4.111   5.315   0.449  0.3896 -0.9860  0.3208
10109TIP3   OH254521   1.257   2.079   2.087  0.0250 -0.3592  0.3885
10109TIP3    H154522   1.241   1.991   2.052 -0.0555  0.6424 -2.2588
10109TIP3    H254523   1.196   2.135   2.040  0.3387  1.1973  1.7639
10110TIP3   OH254524   6.588   2.293   0.458  0.6110 -0.4037 -1.2136
10110TIP3    H154525   6.643   2.320   0.531  0.4006  0.0931 -1.2334
10110TIP3    H254526   6.649   2.269   0.389  0.8047 -0.1182 -1.1416
10111TIP3   OH254527   3.505   1.886   1.346 -0.2435 -0.1406 -0.2469
10111TIP3    H154528   3.450   1.855   1.419 -1.0078 -0.3232 -0.8830
10111TIP3    H254529   3.500   1.816   1.281  1.2059 -0.3972 -0.1042
10112TIP3   OH254530   6.752   5.747   9.190 -0.2833  0.3698 -0.4161
10112TIP3    H154531   6.661   5.773   9.173 -0.7060 -0.1835  0.8935
10112TIP3    H254532   6.761   5.661   9.149 -1.0024 -0.5188  1.2174
10113TIP3   OH254533   5.923   1.479   8.192  0.5814  0.4167  0.2301
10113TIP3    H154534   5.856   1.430   8.240  2.6100 -0.3089  2.5218
10113TIP3    H254535   5.985   1.507   8.259  2.4968  1.2041 -1.7472
10114TIP3   OH254536   4.707   5.903   7.850  0.3038 -0.6409  0.4959
10114TIP3    H154537   4.628   5.919   7.798  0.5892  1.3545  0.6249
10114TIP3    H254538   4.675   5.888   7.939  0.0630  0.0009  0.5173
10115TIP3   OH254539   2.839   7.379   2.356  0.4616 -0.5582  0.4478
10115TIP3    H154540   2.765   7.439   2.361  1.0387  0.3875 -1.4225
10115TIP3    H254541   2.898   7.408   2.426 -0.1838 -0.2660  0.8792
10116TIP3   OH254542   2.123   2.098   7.904  0.3301 -0.1246  0.2624
10116TIP3    H154543   2.074   2.125   7.826 -0.9959 -0.8524  0.8179
10116TIP3    H254544   2.182   2.029   7.872  1.3740  1.0586 -0.4978
10117TIP3   OH254545   6.695   2.092   9.417 -0.2584 -0.0045  0.0476
10117TIP3    H154546   6.741   2.030   9.473  0.1334 -0.2585 -0.5438
10117TIP3    H254547   6.759   2.161   9.400 -0.1810 -0.2135 -0.5433
10118TIP3   OH254548   2.432   6.029   1.038 -0.1240 -0.3676  0.0947
10118TIP3    H154549   2.380   6.079   0.975  0.9016 -0.7583 -1.1086
10118TIP3    H254550   2.487   6.095   1.080 -0.2566 -0.1995  0.0076
10119TIP3   OH254551   3.698   6.758   0.354  0.0308 -1.0041 -0.1518
10119TIP3    H154552   3.689   6.686   0.417 -0.4719  0.1811  1.2014
10119TIP3    H254553   3.621   6.813   0.370  0.4928 -0.0799 -1.0265
10120TIP3   OH254554   5.627   3.695   1.589 -0.0512  0.3660 -0.3901
10120TIP3    H154555   5.579   3.706   1.507  1.3327 -0.1884 -1.3064
10120TIP3    H254556   5.590   3.615   1.627 -0.8233  0.7256 -0.3521
10121TIP3   OH254557   0.203   6.864   9.136 -0.0793 -0.0021 -0.3291
10121TIP3    H154558   0.252   6.944   9.155 -0.2123 -0.2925  1.2991
10121TIP3    H254559   0.159   6.842   9.217 -0.1930 -1.6426 -0.7948
10122TIP3   OH254560   1.344   0.024   9.269  0.2054  0.5590 -0.1873
10122TIP3    H154561   1.275  -0.012   9.325 -0.0600  1.2042 -0.0844
10122TIP3    H254562   1.400   0.073   9.329  0.6282  0.2245 -0.3057
10123TIP3   OH254563   2.819   2.767   2.293 -0.2012  0.4888 -0.2578
10123TIP3    H154564   2.838   2.701   2.359 -1.1849 -0.9960 -1.3736
10123TIP3    H254565   2.904   2.794   2.260  0.2148 -0.8816 -0.3690
10124TIP3   OH254566   7.208   0.562   8.559  1.2033 -0.1241  0.4062
10124TIP3    H154567   7.245   0.532   8.641  0.9853  0.5311  0.7512
10124TIP3    H254568   7.199   0.483   8.506  1.0475 -0.5986  1.1317
10125TIP3   OH254569   2.110   0.621   1.497  0.5732  0.1118  0.3899
10125TIP3    H154570   2.067   0.602   1.413  0.0767  0.1667  0.6269
10125TIP3    H254571   2.143   0.536   1.527 -2.0070 -0.5627  1.6518
10126TIP3   OH254572   5.553   1.322   0.114  0.4468 -0.4270  0.3707
10126TIP3    H154573   5.523   1.244   0.066  2.7744 -0.7244 -0.7041
10126TIP3    H254574   5.474   1.376   0.122 -0.4390 -1.1620 -2.2698
10127TIP3   OH254575   3.717   0.575   1.454 -0.2894 -0.3454 -0.0570
10127TIP3    H154576   3.742   0.499   1.401 -0.1620  0.4003 -1.0807
10127TIP3    H254577   3.707   0.646   1.391  0.1416  0.6272  0.9476
10128TIP3   OH254578   2.397   4.955   8.651  0.1909 -0.1645 -0.1639
10128TIP3    H154579   2.377   4.948   8.557  0.9111 -2.0024 -0.2415
10128TIP3    H254580   2.365   4.872   8.688  0.7694  0.1255  1.0353
10129TIP3   OH254581   4.530   5.591   1.144  0.3580 -0.1656 -0.0863
10129TIP3    H154582   4.512   5.626   1.231 -1.0823  1.0486 -0.8234
10129TIP3    H254583   4.485   5.506   1.144  0.4440 -0.2169  0.3766
10130TIP3   OH254584   1.419   2.841   7.023  0.5061  0.4644 -0.0109
10130TIP3    H154585   1.403   2.843   6.929  0.4748 -0.1680 -0.0288
10130TIP3    H254586   1.384   2.923   7.056  0.8512  0.8567 -0.6044
10131TIP3   OH254587   6.647   3.904   1.645 -0.4890 -0.5453  0.6126
10131TIP3    H154588   6.669   3.836   1.708 -0.5402 -1.3652 -0.2417
10131TIP3    H254589   6.709   3.892   1.573  0.3655  1.1327  1.0027
10132TIP3   OH254590   6.408   2.446   9.051 -0.2721  0.6960 -0.0405
10132TIP3    H154591   6.435   2.356   9.036  0.9423  1.1107 -0.4498
10132TIP3    H254592   6.312   2.444   9.049 -0.2348 -0.3383 -1.4552
10133TIP3   OH254593   5.426   7.054   0.413  0.0479  0.3412  0.8514
10133TIP3    H154594   5.490   7.086   0.350  1.1630 -0.7575  1.3839
10133TIP3    H254595   5.352   7.025   0.360  1.0708 -0.8115 -0.0039
10134TIP3   OH254596   2.028   5.860   0.224  0.3951  0.5074 -0.1116
10134TIP3    H154597   2.015   5.769   0.249  1.4889  0.7143  1.3935
10134TIP3    H254598   2.122   5.876   0.240  0.2635  1.8296 -0.5406
10135TIP3   OH254599   0.053   4.064   9.313 -0.2141  0.0838 -0.6300
10135TIP3    H154600   0.048   4.153   9.346 -1.6141 -0.3338  0.3730
10135TIP3    H254601   0.077   4.011   9.389 -0.9398 -0.5740 -0.8413
10136TIP3   OH254602   2.420   2.435   0.692  0.5521 -0.6314 -0.1095
10136TIP3    H154603   2.345   2.384   0.662  0.0359 -0.4772  0.8980
10136TIP3    H254604   2.441   2.399   0.778  0.4374  0.5737  0.4414
10137TIP3   OH254605   7.244   5.367   0.145  0.4735 -0.0892 -0.1854
10137TIP3    H154606   7.219   5.357   0.053 -0.7040 -1.0947  0.2186
10137TIP3    H254607   7.318   5.308   0.156  0.9868  0.4549 -0.6007
10138TIP3   OH254608   3.219   0.936   9.434 -0.0492 -0.7501  1.0467
10138TIP3    H154609   3.200   0.942   9.527  2.6203  1.9482  1.5610
10138TIP3    H254610   3.302   0.890   9.429 -0.1391 -0.8239  0.0089
10139TIP3   OH254611   0.940   1.821   8.799 -0.2262 -0.2724 -0.1904
10139TIP3    H154612   0.902   1.770   8.870 -0.1319 -0.2416 -0.1173
10139TIP3    H254613   0.919   1.772   8.720 -1.0409  0.1056 -0.2200
10140TIP3   OH254614   4.154   5.312   8.307  0.1741 -0.4578  0.5207
10140TIP3    H154615   4.141   5.396   8.351  2.7030 -1.5035  3.6177
10140TIP3    H254616   4.066   5.284   8.283 -0.8866  2.3092  0.8132
10141TIP3   OH254617   1.174   7.368   9.532 -0.5159  0.1347 -0.5093
10141TIP3    H154618   1.145   7.447   9.577 -0.9916 -0.4722  0.2968
10141TIP3    H254619   1.100   7.345   9.475 -0.8999 -0.3899  0.1739
10142TIP3   OH254620   5.191   0.510   8.496  0.2266 -0.2035  0.0402
10142TIP3    H154621   5.159   0.426   8.464  1.0382 -0.2700 -0.6301
10142TIP3    H254622   5.259   0.487   8.559  1.2138 -0.0735 -0.9372
10143TIP3   OH254623   3.571   4.377   8.639 -0.2237  0.3101 -0.6589
10143TIP3    H154624   3.649   4.416   8.601 -0.4652 -0.5360 -2.0785
10143TIP3    H254625   3.500   4.403   8.580 -0.5082 -1.5411 -1.1989
10144TIP3   OH254626   4.516   3.921   1.964 -0.7929  0.1403 -0.2648
10144TIP3    H154627   4.572   3.944   2.039 -0.9717  0.0185 -0.0938
10144TIP3    H254628   4.448   3.865   2.001 -1.7999  1.3532 -0.2218
10145TIP3   OH254629   2.205   0.841   9.011 -0.1465 -0.0272  0.1770
10145TIP3    H154630   2.297   0.815   9.002  0.0157  0.3527  0.7071
10145TIP3    H254631   2.195   0.862   9.103 -0.9993 -0.9069  0.2964
10146TIP3   OH254632   0.443   1.377   7.042 -0.2251  0.1599  0.1637
10146TIP3    H154633   0.435   1.462   6.999 -0.2061  0.1382  0.1163
10146TIP3    H254634   0.520   1.386   7.099  1.6394 -0.7159 -2.0211
10147TIP3   OH254635   4.365   7.176   0.167 -0.2791  0.1991 -0.2041
10147TIP3    H154636   4.415   7.125   0.230  0.5070  4.4678  3.0553
10147TIP3    H254637   4.275   7.175   0.200 -0.5871 -0.2529 -1.0113
10148TIP3   OH254638   4.532   2.701   2.868 -0.9747 -0.1293 -0.6598
10148TIP3    H154639   4.466   2.768   2.879 -0.8992  0.2385 -2.3485
10148TIP3    H254640   4.487   2.629   2.823 -0.2975  0.0407 -1.6330
10149TIP3   OH254641   2.003   2.788   0.316 -0.1851 -0.4979 -0.1734
10149TIP3    H154642   2.061   2.738   0.259  3.7384  2.5393  0.7149
10149TIP3    H254643   2.002   2.739   0.398  0.9555 -0.7539 -0.2984
10150TIP3   OH254644   6.705   3.455   0.493 -0.3356  0.3552 -0.2735
10150TIP3    H154645   6.617   3.447   0.457 -0.6938  0.0995  0.6525
10150TIP3    H254646   6.695   3.437   0.586  0.9617 -1.3795 -0.4186
10151TIP3   OH254647   5.613   3.139   8.054  0.0153 -0.1973 -0.1036
10151TIP3    H154648   5.622   3.044   8.044  0.3036 -0.2548  0.6509
10151TIP3    H254649   5.693   3.174   8.015  0.7345 -0.3725  1.1570
10152TIP3   OH254650   6.129   2.198   8.117 -0.5298 -0.1460  0.1981
10152TIP3    H154651   6.038   2.171   8.107 -1.1754  2.1603 -0.8654
10152TIP3    H254652   6.175   2.153   8.045 -1.4340  0.9520 -1.1148
10153TIP3   OH254653   1.710   7.358   1.689 -0.0966  0.5536 -0.0232
10153TIP3    H154654   1.680   7.404   1.610 -1.5108  0.2876  0.3325
10153TIP3    H254655   1.733   7.270   1.658 -1.5403  0.1549 -0.0022
10154TIP3   OH254656   2.713   2.375   2.058  0.1012 -0.0580  0.3220
10154TIP3    H154657   2.758   2.328   1.988 -0.6092 -0.1145 -0.0947
10154TIP3    H254658   2.737   2.327   2.138  0.6147 -0.2071  0.0831
10155TIP3   OH254659   2.448   2.467   8.882 -1.1432  0.0190 -0.0729
10155TIP3    H154660   2.451   2.446   8.976  0.0256  0.4231 -0.0014
10155TIP3    H254661   2.460   2.383   8.838 -0.9072 -0.0700  0.1571
10156TIP3   OH254662   1.206   7.242   2.849 -0.4382 -0.2761 -0.3003
10156TIP3    H154663   1.298   7.221   2.863 -0.5045 -0.4306 -0.0954
10156TIP3    H254664   1.176   7.274   2.934 -0.3516  0.6107 -0.5876
10157TIP3   OH254665   4.262   5.378   7.919 -0.1103 -0.4473 -0.0277
10157TIP3    H154666   4.275   5.367   7.825 -0.2282 -0.3595 -0.0540
10157TIP3    H254667   4.171   5.404   7.928 -0.1249 -0.5451  0.1184
10158TIP3   OH254668   1.846   0.717   0.317 -0.3506 -0.0062  0.5763
10158TIP3    H154669   1.754   0.700   0.337 -0.7676  1.7147  0.2982
10158TIP3    H254670   1.850   0.812   0.305  0.8590 -0.3182 -2.3614
10159TIP3   OH254671   1.486   0.510   8.545  0.7936 -0.0092  0.2724
10159TIP3    H154672   1.559   0.488   8.603  0.3817 -0.5159  0.6091
10159TIP3    H254673   1.445   0.426   8.524  1.3424  0.0910 -1.3336
10160TIP3   OH254674   2.568   3.605   9.231  0.1135 -0.3544  0.3073
10160TIP3    H154675   2.627   3.612   9.156  0.5276 -0.1153  0.6538
10160TIP3    H254676   2.491   3.561   9.196  1.1474 -2.2263  0.2087
10161TIP3   OH254677   0.770   6.941   9.253  0.4146  0.8962  0.2353
10161TIP3    H154678   0.825   6.863   9.241 -0.2574 -0.4672  4.2649
10161TIP3    H254679   0.720   6.948   9.172  1.3145 -2.2419 -0.7412
10162TIP3   OH254680   3.488   5.207   2.790 -0.2105  0.1231  0.2172
10162TIP3    H154681   3.460   5.116   2.804  1.1780 -0.4864 -0.8289
10162TIP3    H254682   3.514   5.237   2.877 -1.4520 -0.1940  0.7198
10163TIP3   OH254683   6.305   7.287   7.543  0.1835  0.1191  0.1994
10163TIP3    H154684   6.294   7.381   7.527  0.8002  0.2906  0.6940
10163TIP3    H254685   6.298   7.279   7.638  1.3718 -0.1376  0.2864
10164TIP3   OH254686   4.096   5.504   7.674  0.0388  0.5132  0.0180
10164TIP3    H154687   4.126   5.592   7.650 -0.4042  0.6677  0.0241
10164TIP3    H254688   4.110   5.452   7.596 -0.1631  0.7056 -0.1473
10165TIP3   OH254689   4.842   3.571   7.128 -0.0234  0.3331 -0.3051
10165TIP3    H154690   4.863   3.529   7.045  1.7604  1.8367 -0.6827
10165TIP3    H254691   4.809   3.501   7.183  1.0376 -1.1703 -1.5045
10166TIP3   OH254692   1.435   2.049   8.934 -0.2636  0.5234  0.4266
10166TIP3    H154693   1.345   2.032   8.908 -0.1356  2.1206 -1.2894
10166TIP3    H254694   1.479   1.965   8.926 -1.4736 -0.1683  0.8025
10167TIP3   OH254695   2.149   2.840   7.554  0.4973 -0.5405  0.1573
10167TIP3    H154696   2.090   2.790   7.609 -0.2522 -1.0050 -1.0341
10167TIP3    H254697   2.149   2.928   7.593 -1.2874 -0.4200 -0.0309
10168TIP3   OH254698   5.387   4.439   0.555  0.1083  0.0979  0.2590
10168TIP3    H154699   5.453   4.378   0.588  0.7378  0.5681 -0.1217
10168TIP3    H254700   5.329   4.384   0.501  0.8844 -0.1079 -0.3889
10169TIP3   OH254701   6.150   4.927   0.185 -0.2068  0.2009 -0.2776
10169TIP3    H154702   6.245   4.919   0.189 -0.1780  0.4571 -0.4000
10169TIP3    H254703   6.132   5.010   0.230 -0.3429  0.3211 -0.5531
10170TIP3   OH254704   3.647   6.924   9.564  0.1263 -0.2439  0.2937
10170TIP3    H154705   3.584   6.857   9.592  1.2583 -0.8673  1.4717
10170TIP3    H254706   3.641   6.992   9.631  0.8381 -0.4091  0.5366
10171TIP3   OH254707   1.010   3.899   7.449 -0.0968 -0.2441  0.3646
10171TIP3    H154708   0.917   3.883   7.463  0.2537 -3.1620 -0.0947
10171TIP3    H254709   1.014   3.941   7.363 -0.9649 -0.2190  0.3273
10172TIP3   OH254710   5.487   1.975   9.200  0.5669  0.1604 -0.5039
10172TIP3    H154711   5.470   2.055   9.151  2.4278  0.3150 -0.9899
10172TIP3    H254712   5.513   1.911   9.134  1.0413 -0.2520  0.0624
10173TIP3   OH254713   2.298   1.696   2.176  0.1157 -0.2881  0.1162
10173TIP3    H154714   2.325   1.761   2.110  0.7287 -1.8071 -1.1854
10173TIP3    H254715   2.219   1.734   2.215 -0.1825  0.7469 -1.3872
10174TIP3   OH254716   7.071   0.373   2.261 -0.2481  0.5139  0.1892
10174TIP3    H154717   7.085   0.286   2.300 -0.7964 -0.1258 -0.9757
10174TIP3    H254718   7.057   0.355   2.168  1.2998  2.0134 -0.3760
10175TIP3   OH254719   2.859   0.211   8.571  0.4023  0.3582 -0.3466
10175TIP3    H154720   2.786   0.262   8.605  1.3194  0.2949  1.9540
10175TIP3    H254721   2.907   0.184   8.650  2.2723 -0.5149 -1.7138
10176TIP3   OH254722   2.545   0.808   8.091  0.2273 -0.4855  1.3136
10176TIP3    H154723   2.493   0.882   8.061  1.3951 -0.3387 -0.4943
10176TIP3    H254724   2.592   0.841   8.168  0.3200  0.4886  0.8492
10177TIP3   OH254725   0.479   1.677   8.454 -0.2270  0.4265  0.2591
10177TIP3    H154726   0.508   1.643   8.370  0.5719 -0.1045  0.7320
10177TIP3    H254727   0.407   1.737   8.433 -1.4891 -1.3174 -0.6082
10178TIP3   OH254728   0.711   4.593   9.197 -0.2489  0.7131  0.1560
10178TIP3    H154729   0.639   4.565   9.254 -0.1349 -0.9420 -0.4362
10178TIP3    H254730   0.789   4.588   9.252  0.0967 -2.4078 -0.4303
10179TIP3   OH254731   5.481   6.751   1.007 -0.0359 -0.0810  0.2387
10179TIP3    H154732   5.489   6.828   0.951 -1.9259 -0.7536 -1.0767
10179TIP3    H254733   5.405   6.768   1.062  0.9302 -0.0566  1.6214
10180TIP3   OH254734   3.398   5.291   7.295  0.1057 -0.3275 -0.2927
10180TIP3    H154735   3.439   5.287   7.382  0.8380 -2.6418 -0.6672
10180TIP3    H254736   3.412   5.381   7.266  0.9149  0.1645  1.4781
10181TIP3   OH254737   0.847   1.164   2.587  0.5226 -0.4993  0.1863
10181TIP3    H154738   0.933   1.194   2.614  0.7940 -1.0865  0.0005
10181TIP3    H254739   0.816   1.112   2.661  0.1331  0.0807  0.4350
10182TIP3   OH254740   0.436   1.158   2.822 -0.7762 -0.2183 -0.1726
10182TIP3    H154741   0.466   1.245   2.796 -1.1750 -0.1418 -0.3716
10182TIP3    H254742   0.359   1.141   2.768 -2.1696  0.3157  1.5453
10183TIP3   OH254743   4.407   3.549   7.546  0.5634 -0.1197  0.0171
10183TIP3    H154744   4.482   3.562   7.604  2.0613 -0.1078 -1.8254
10183TIP3    H254745   4.420   3.612   7.475 -2.1736  1.1416  0.4683
10184TIP3   OH254746   6.889   1.942   0.707 -0.2284  0.2379  0.1888
10184TIP3    H154747   6.807   1.932   0.658  0.4607 -1.0013 -0.7542
10184TIP3    H254748   6.926   2.024   0.674 -0.9736  0.6865  0.4514
10185TIP3   OH254749   0.120   3.067   1.262  0.9276 -0.1190  0.3155
10185TIP3    H154750   0.156   3.068   1.174  0.4040  2.1890  0.0573
10185TIP3    H254751   0.077   2.982   1.270  2.3249 -0.9921 -1.0572
10186TIP3   OH254752   5.761   3.902   8.390 -0.2346 -0.1745  0.3281
10186TIP3    H154753   5.706   3.959   8.443 -0.0976 -0.4513  0.7654
10186TIP3    H254754   5.732   3.813   8.410 -0.2302 -0.2809 -0.1121
10187TIP3   OH254755   6.416   1.309   1.698  0.1445  0.2019 -0.1103
10187TIP3    H154756   6.428   1.216   1.680 -0.6593 -0.0792  0.7804
10187TIP3    H254757   6.417   1.316   1.793 -1.2604  0.8997 -0.1299
10188TIP3   OH254758   0.853   3.858   2.180 -0.2622 -0.1737  0.2417
10188TIP3    H154759   0.786   3.838   2.246 -0.6041 -1.7192 -0.5025
10188TIP3    H254760   0.812   3.924   2.124 -1.1506 -0.9892 -0.1155
10189TIP3   OH254761   6.591   5.203   0.905  0.0988  0.2664  0.5901
10189TIP3    H154762   6.591   5.246   0.819 -0.3043 -0.8585  0.0090
10189TIP3    H254763   6.507   5.156   0.909  1.2312 -1.9080  0.4265
10190TIP3   OH254764   3.084   1.364   6.966  0.5995  0.0657 -0.1992
10190TIP3    H154765   3.076   1.289   7.026  1.6814 -0.0677 -0.2132
10190TIP3    H254766   3.178   1.374   6.951  0.3320 -0.1665 -2.2373
10191TIP3   OH254767   5.800   0.042   9.462  0.5295  0.3450  0.4803
10191TIP3    H154768   5.850   0.119   9.438 -1.3913  1.5739  0.2041
10191TIP3    H254769   5.812   0.033   9.557  0.4852  1.2033  0.5693
10192TIP3   OH254770   0.459   2.830   1.831 -0.0185 -0.0304 -0.0607
10192TIP3    H154771   0.512   2.814   1.753 -1.5000  1.1680 -1.3942
10192TIP3    H254772   0.428   2.920   1.820 -0.4608  0.0926  1.8254
10193TIP3   OH254773   5.969   0.107   8.268  0.2785 -0.0892 -0.1587
10193TIP3    H154774   6.006   0.091   8.354  0.4615  0.8368 -0.0520
10193TIP3    H254775   5.878   0.077   8.274  0.0426  0.7385  0.6221
10194TIP3   OH254776   6.956   4.374   9.169  0.3499  0.3141  0.2463
10194TIP3    H154777   6.969   4.357   9.263  1.4558  0.6195  0.1637
10194TIP3    H254778   7.033   4.337   9.127 -0.2204  0.0219 -0.5810
10195TIP3   OH254779   3.502   3.355   6.711 -0.5074  0.5044 -0.5668
10195TIP3    H154780   3.589   3.392   6.696 -0.6802  0.2608 -2.3511
10195TIP3    H254781   3.511   3.306   6.793  1.2299 -0.1074 -1.0804
10196TIP3   OH254782   4.154   6.026   1.777 -0.1663  0.3967 -0.3414
10196TIP3    H154783   4.169   6.000   1.869 -1.1750  1.6868  0.2163
10196TIP3    H254784   4.091   5.960   1.745 -0.0744  0.1361 -0.0025
10197TIP3   OH254785   3.306   6.413   1.636 -0.8662  0.2448 -0.0277
10197TIP3    H154786   3.324   6.397   1.544  0.0972  0.3182  0.1306
10197TIP3    H254787   3.301   6.508   1.644 -0.3580  0.2632  0.0927
10198TIP3   OH254788   5.640   7.287   7.905  0.2436 -0.3837 -0.2721
10198TIP3    H154789   5.696   7.354   7.945 -0.2679  0.0853 -0.3325
10198TIP3    H254790   5.564   7.283   7.963  0.7391 -1.6845  0.3407
10199TIP3   OH254791   3.097   2.605   9.403 -0.2240  0.1878  0.5321
10199TIP3    H154792   3.051   2.662   9.465  1.0959  1.8280  0.0453
10199TIP3    H254793   3.133   2.664   9.337  1.2394 -1.1890  0.0357
10200TIP3   OH254794   1.586   4.023   9.238 -0.2162 -0.3779  0.0897
10200TIP3    H154795   1.575   4.006   9.145 -0.5520  3.4955 -0.7604
10200TIP3    H254796   1.676   4.056   9.246 -1.0381  1.9025  0.5649
10201TIP3   OH254797   6.310   1.093   7.453  0.4787 -0.0736 -0.5922
10201TIP3    H154798   6.391   1.044   7.462  0.7052  0.3376 -0.3385
10201TIP3    H254799   6.322   1.170   7.508 -0.8553 -0.9750  1.0335
10202TIP3   OH254800   5.706   3.914   2.039 -0.2182  0.1107  0.5521
10202TIP3    H154801   5.661   3.831   2.058  0.7213 -0.3219  0.9667
10202TIP3    H254802   5.731   3.907   1.947  1.0663 -0.6872  0.9331
10203TIP3   OH254803   2.660   7.068   0.346  0.1809  0.4336 -0.3417
10203TIP3    H154804   2.755   7.071   0.342  0.1792  0.8148 -0.1779
10203TIP3    H254805   2.638   6.975   0.353  0.4975  0.2610 -1.4315
10204TIP3   OH254806   4.762   5.651   8.605  0.1064  0.2993 -0.1250
10204TIP3    H154807   4.748   5.572   8.657  2.0009 -0.4807 -0.7241
10204TIP3    H254808   4.688   5.707   8.627 -0.7370 -1.2109  1.1087
10205TIP3   OH254809   3.376   0.978   1.969  0.3333 -0.2512  0.7020
10205TIP3    H154810   3.329   1.044   2.020 -1.9118 -0.1713 -1.2785
10205TIP3    H254811   3.389   0.906   2.031 -0.8914  0.4295  1.8159
10206TIP3   OH254812   6.302   0.280   6.913  0.4276 -0.4921  0.0032
10206TIP3    H154813   6.294   0.190   6.945  0.2223 -0.4463  0.0777
10206TIP3    H254814   6.270   0.277   6.823 -1.0811 -0.1794  0.5000
10207TIP3   OH254815   1.768   2.848   9.322  0.3026  0.3814 -0.3128
10207TIP3    H154816   1.684   2.863   9.364  1.0473 -0.6067  1.6553
10207TIP3    H254817   1.819   2.927   9.341  0.7035 -0.1457  0.8552
10208TIP3   OH254818   6.914   3.175   1.028  0.0157  0.1051  0.3615
10208TIP3    H154819   6.859   3.240   1.072 -0.0683 -0.2328  0.7520
10208TIP3    H254820   6.935   3.111   1.096  3.4104  1.7618  1.1120
10209TIP3   OH254821   1.496   4.783   7.244 -0.4596  0.0729  0.4618
10209TIP3    H154822   1.410   4.751   7.268 -0.5328 -0.8490 -0.8820
10209TIP3    H254823   1.500   4.772   7.149  1.1003  0.1796  0.4826
10210TIP3   OH254824   3.430   5.648   6.930 -0.3371 -0.0195  0.3459
10210TIP3    H154825   3.384   5.589   6.869 -1.2588  1.4999 -0.4876
10210TIP3    H254826   3.368   5.720   6.945  0.9477  1.0004  0.9345
10211TIP3   OH254827   2.801   4.684   9.475  0.1040 -0.1735 -0.5922
10211TIP3    H154828   2.825   4.694   9.567  2.7302  1.5179 -1.3586
10211TIP3    H254829   2.878   4.645   9.434 -0.4442  0.4823 -2.3269
10212TIP3   OH254830   2.463   2.155   1.918 -0.8788  0.2087  0.0299
10212TIP3    H154831   2.461   2.071   1.963  0.1954  0.4854  0.6345
10212TIP3    H254832   2.510   2.213   1.978 -2.1105  1.4042 -0.1199
10213TIP3   OH254833   6.761   6.375   7.587  0.5027 -0.0079 -0.5809
10213TIP3    H154834   6.777   6.320   7.664  0.2540  0.5982 -0.0813
10213TIP3    H254835   6.690   6.434   7.614 -1.1316 -1.2212 -2.0140
10214TIP3   OH254836   4.912   3.883   7.576  0.2286  0.2550  0.1100
10214TIP3    H154837   4.932   3.931   7.657  0.4127 -0.3092  0.4068
10214TIP3    H254838   4.983   3.820   7.568  1.3216  1.6062 -1.5663
10215TIP3   OH254839   6.395   0.329   8.642  0.8689 -0.1137 -0.3961
10215TIP3    H154840   6.325   0.339   8.706  1.2334  0.1407 -0.0361
10215TIP3    H254841   6.435   0.244   8.662  2.0701  0.6928  0.8104
10216TIP3   OH254842   7.070   0.721   2.598 -0.0943 -0.1184 -0.2230
10216TIP3    H154843   7.097   0.738   2.688 -1.9608 -1.2357  0.6090
10216TIP3    H254844   6.992   0.776   2.585 -0.0258 -0.2030 -1.0614
10217TIP3   OH254845   1.418   1.354   1.440  0.9710  0.3206 -0.2856
10217TIP3    H154846   1.502   1.320   1.409  0.2625 -1.6843 -0.2107
10217TIP3    H254847   1.380   1.280   1.488 -1.7494  0.4417 -2.1008
10218TIP3   OH254848   5.618   4.239   8.157  0.6099 -0.3529  0.9661
10218TIP3    H154849   5.646   4.329   8.171 -0.1893 -0.3481  2.7662
10218TIP3    H254850   5.552   4.245   8.087  0.9668  0.3574  0.6752
10219TIP3   OH254851   3.136   7.396   8.587  0.5527  0.6017 -0.0713
10219TIP3    H154852   3.171   7.312   8.616 -0.8566 -0.1874 -0.5128
10219TIP3    H254853   3.167   7.459   8.651  2.2117 -0.1326 -0.1202
10220TIP3   OH254854   3.691   6.304   1.870 -0.0283 -0.0466 -0.2220
10220TIP3    H154855   3.754   6.306   1.799 -0.5464 -0.5360 -0.7133
10220TIP3    H254856   3.613   6.263   1.831 -1.3504  2.2552 -0.2037
10221TIP3   OH254857   1.111   6.612   0.329  0.1874  0.0078 -0.5220
10221TIP3    H154858   1.027   6.587   0.289 -0.3178  0.4802  0.2114
10221TIP3    H254859   1.091   6.692   0.378  1.0482  0.0666 -0.2588
10222TIP3   OH254860   4.696   1.684   2.623  0.0169  0.3877 -0.2362
10222TIP3    H154861   4.764   1.689   2.690  0.7442  0.8115 -0.9910
10222TIP3    H254862   4.627   1.631   2.663  0.6054  0.3010  0.6964
10223TIP3   OH254863   1.686   0.079   9.170 -0.3004 -0.1567 -0.6532
10223TIP3    H154864   1.629   0.020   9.123 -0.2884 -0.7110  0.0103
10223TIP3    H254865   1.677   0.054   9.262  1.0640 -0.3213 -0.5403
10224TIP3   OH254866   6.691   7.090   0.338  0.4302  0.1695 -0.5403
10224TIP3    H154867   6.773   7.041   0.329  0.4862  0.1497  0.0811
10224TIP3    H254868   6.673   7.090   0.432 -0.9439 -0.8941 -0.7771
10225TIP3   OH254869   2.059   0.250   9.297  0.4474  0.6763 -0.0073
10225TIP3    H154870   2.043   0.220   9.207  1.0460 -0.5485  0.2675
10225TIP3    H254871   2.150   0.226   9.314  0.3352  0.8868  0.9291
10226TIP3   OH254872   0.051   4.591   2.255 -0.8191  0.7585 -0.0993
10226TIP3    H154873   0.027   4.510   2.299  0.6819  1.1808  1.5913
10226TIP3    H254874   0.104   4.563   2.180 -2.6051  0.0860 -1.1820
10227TIP3   OH254875   7.130   2.906   8.091 -0.0250  0.6698  0.1801
10227TIP3    H154876   7.171   2.971   8.147  0.5988 -1.4889  2.4183
10227TIP3    H254877   7.036   2.917   8.104  0.0980  0.6712  1.0739
10228TIP3   OH254878   6.941   0.874   8.425  0.0751  0.3701 -0.5571
10228TIP3    H154879   7.014   0.864   8.487  0.1217  1.5564 -0.3910
10228TIP3    H254880   6.954   0.805   8.360  2.2235  1.4699 -1.3862
10229TIP3   OH254881   6.937   6.966   9.298 -0.2683 -0.3163 -0.1322
10229TIP3    H154882   7.019   6.983   9.345 -0.3801  0.7485 -0.2852
10229TIP3    H254883   6.919   6.874   9.313  0.7383 -0.4622  0.2595
10230TIP3   OH254884   0.731   1.960   1.762 -0.0539  0.2663  0.2273
10230TIP3    H154885   0.815   1.923   1.789 -0.7760 -2.0533 -0.5029
10230TIP3    H254886   0.666   1.896   1.790 -1.5508  1.6578  0.1145
10231TIP3   OH254887   1.640   6.206   2.150  0.1870 -0.0184 -0.0493
10231TIP3    H154888   1.679   6.120   2.136  0.5800 -0.1457  1.6085
10231TIP3    H254889   1.552   6.187   2.184 -0.3139  0.2624 -1.1352
10232TIP3   OH254890   6.079   3.988   9.166 -0.3485  0.0056  0.4330
10232TIP3    H154891   6.077   3.997   9.071 -1.2240 -0.0147  0.4431
10232TIP3    H254892   6.113   3.900   9.182  0.4694  0.2595  0.1635
10233TIP3   OH254893   6.032   3.639   2.082  0.2781  0.1391 -0.0801
10233TIP3    H154894   5.989   3.725   2.072 -0.8923 -0.5977 -1.8499
10233TIP3    H254895   5.971   3.589   2.137 -0.6237 -0.5168 -1.6053
10234TIP3   OH254896   6.320   7.295   1.420 -0.0395 -0.3979 -0.2073
10234TIP3    H154897   6.405   7.286   1.463 -0.1718 -1.9975 -0.2393
10234TIP3    H254898   6.317   7.223   1.357 -1.0482  0.1931 -0.8685
10235TIP3   OH254899   4.661   2.439   0.192 -0.7561 -0.0822 -0.0409
10235TIP3    H154900   4.725   2.488   0.243  0.3226 -1.0552 -0.4051
10235TIP3    H254901   4.689   2.451   0.101 -0.5190 -1.2536 -0.1439
10236TIP3   OH254902   6.659   7.179   0.890  0.1141  0.2610 -0.5690
10236TIP3    H154903   6.576   7.213   0.925  1.1840  1.7897  0.5895
10236TIP3    H254904   6.716   7.255   0.886  1.9568 -1.0337  0.0808
10237TIP3   OH254905   6.746   5.868   8.836  0.0472  0.6351  0.5253
10237TIP3    H154906   6.830   5.824   8.828 -0.1085  0.6271 -1.8350
10237TIP3    H254907   6.767   5.961   8.825 -0.0344  0.8390  1.9811
10238TIP3   OH254908   1.776   3.899   9.055  0.0066 -0.1516  0.3564
10238TIP3    H154909   1.845   3.876   9.118  1.7679 -0.0926 -1.4667
10238TIP3    H254910   1.766   3.993   9.065 -1.8413 -0.4893  2.5318
10239TIP3   OH254911   6.941   7.345   0.737 -0.2809 -0.0708  0.4894
10239TIP3    H154912   7.006   7.286   0.774  0.3432  0.1468 -0.2392
10239TIP3    H254913   6.883   7.288   0.686  0.5869 -0.0267 -0.5863
10240TIP3   OH254914   3.266   4.106   1.978  0.3128  0.0839  0.2629
10240TIP3    H154915   3.183   4.073   1.943  1.0852  0.6586 -2.3691
10240TIP3    H254916   3.298   4.035   2.034 -0.5676 -1.4364 -1.0570
10241TIP3   OH254917   3.881   2.399   7.456 -0.0100 -0.0361 -0.6277
10241TIP3    H154918   3.823   2.364   7.389 -3.7193  1.0551  1.6945
10241TIP3    H254919   3.885   2.493   7.437  0.8160 -0.0530 -0.5855
10242TIP3   OH254920   1.784   0.501   2.268  0.4554 -0.3506 -0.4930
10242TIP3    H154921   1.863   0.533   2.312  1.3857 -0.3486 -2.1065
10242TIP3    H254922   1.778   0.553   2.188 -0.9247 -0.6964 -0.6345
10243TIP3   OH254923   3.498   7.045   2.513  0.0476 -0.2814 -0.1383
10243TIP3    H154924   3.530   6.955   2.514  0.8371 -0.0903 -2.1615
10243TIP3    H254925   3.577   7.099   2.519 -0.2309  0.2417 -0.9425
10244TIP3   OH254926   3.590   1.579   9.434 -0.2284 -0.0948  0.1702
10244TIP3    H154927   3.672   1.531   9.446 -0.8118 -1.4411 -0.9095
10244TIP3    H254928   3.614   1.671   9.441  1.1231 -0.4952  1.2463
10245TIP3   OH254929   0.750   2.591   1.458  0.2901  0.4660  0.2189
10245TIP3    H154930   0.763   2.600   1.552 -0.4369  0.8424  0.2888
10245TIP3    H254931   0.807   2.518   1.433  1.7189  1.3878  0.6716
10246TIP3   OH254932   4.147   1.632   2.057 -0.4773  0.6798  0.0601
10246TIP3    H154933   4.203   1.659   1.984  0.1070 -0.1615  0.1848
10246TIP3    H254934   4.192   1.557   2.096 -0.9338  0.9365  1.1110
10247TIP3   OH254935   1.892   1.954   7.950  0.3452  0.4394 -0.0764
10247TIP3    H154936   1.979   1.993   7.958  1.4975 -2.2303  1.9414
10247TIP3    H254937   1.898   1.900   7.871  0.6487  0.0118  0.2337
10248TIP3   OH254938   3.523   1.827   1.735  0.7406 -0.2671 -0.2648
10248TIP3    H154939   3.558   1.862   1.652  1.7648 -0.7928 -0.0614
10248TIP3    H254940   3.569   1.744   1.747  1.4002  0.3030  1.3730
10249TIP3   OH254941   2.433   2.735   8.951 -0.1516  0.1284 -0.2698
10249TIP3    H154942   2.416   2.658   8.895 -2.8678 -0.5698  1.3534
10249TIP3    H254943   2.410   2.810   8.897 -2.1614 -0.5066 -0.3669
10250TIP3   OH254944   0.386   6.223   7.242 -0.0504 -0.0482 -0.3005
10250TIP3    H154945   0.330   6.261   7.309  1.2728  0.4362  0.5639
10250TIP3    H254946   0.376   6.128   7.253 -0.3072  0.0343  0.1808
10251TIP3   OH254947   4.336   3.475   9.583  0.2607 -0.1312  0.3240
10251TIP3    H154948   4.270   3.523   9.632 -0.3174 -0.2428 -0.3304
10251TIP3    H254949   4.295   3.391   9.564  0.7644 -0.3750  0.3114
10252TIP3   OH254950   1.382   2.674   8.559 -0.0337 -0.5827 -0.3374
10252TIP3    H154951   1.308   2.704   8.506  0.8678 -0.6430 -1.6773
10252TIP3    H254952   1.454   2.663   8.496  0.8540 -1.4319  0.7816
10253TIP3   OH254953   7.003   2.594   8.454  0.2633  0.1455 -0.5190
10253TIP3    H154954   6.979   2.671   8.505  1.0889 -1.1306  1.9966
10253TIP3    H254955   7.085   2.619   8.410  0.4870  0.7514  0.2112
10254TIP3   OH254956   3.769   1.819   8.333 -0.0610 -0.2208  0.1339
10254TIP3    H154957   3.694   1.869   8.300  0.9637 -0.4883 -2.9135
10254TIP3    H254958   3.845   1.868   8.304  0.9583 -1.4364  0.6762
10255TIP3   OH254959   2.288   1.450   2.079 -0.9956  0.4675  0.1227
10255TIP3    H154960   2.293   1.542   2.106 -0.2031  0.0334  1.5498
10255TIP3    H254961   2.330   1.448   1.993 -2.4659  1.6906 -0.6590
10256TIP3   OH254962   0.478   1.065   1.353 -0.2066 -0.1673  0.0342
10256TIP3    H154963   0.504   1.157   1.352  0.6983 -0.4105 -0.1415
10256TIP3    H254964   0.512   1.032   1.436 -1.6365 -0.0521  0.6849
10257TIP3   OH254965   2.746   4.185   2.038 -0.1272 -0.0292  0.2524
10257TIP3    H154966   2.758   4.264   2.092 -2.2141 -0.0876  0.9124
10257TIP3    H254967   2.668   4.143   2.075 -1.1359 -0.5362 -2.2658
10258TIP3   OH254968   3.641   0.089   7.233 -0.0665 -0.2621  0.1515
10258TIP3    H154969   3.730   0.057   7.248  0.4150  0.4663 -1.0180
10258TIP3    H254970   3.643   0.125   7.144 -1.4740 -0.0375  0.1877
10259TIP3   OH254971   0.121   6.294   3.181 -0.2584  0.4815 -0.3268
10259TIP3    H154972   0.164   6.376   3.155  0.8893 -0.0978 -0.3028
10259TIP3    H254973   0.187   6.248   3.233 -0.7183 -0.6672 -0.7399
10260TIP3   OH254974   0.212   6.907   8.854  0.3055  0.7526 -0.0372
10260TIP3    H154975   0.190   6.821   8.818 -2.4011  1.2325  0.2409
10260TIP3    H254976   0.201   6.897   8.948 -0.1261  1.3958 -0.0098
10261TIP3   OH254977   1.237   1.200   6.799 -0.2257 -0.0418 -0.0746
10261TIP3    H154978   1.188   1.201   6.716  0.6247 -0.1236 -0.5881
10261TIP3    H254979   1.300   1.128   6.789 -0.9587 -0.9024  1.1502
10262TIP3   OH254980   2.464   5.103   1.210  0.0549 -0.0520  0.5163
10262TIP3    H154981   2.468   5.121   1.115 -1.3911 -0.0087  0.4402
10262TIP3    H254982   2.555   5.110   1.239  0.1878  3.1571 -0.3004
10263TIP3   OH254983   3.000   6.799   8.288  0.2918  0.6669  0.3250
10263TIP3    H154984   3.013   6.708   8.314 -0.8643  0.7099  1.0908
10263TIP3    H254985   3.028   6.802   8.196  0.5885 -0.3967  0.3736
10264TIP3   OH254986   3.410   6.265   8.549  0.2985  0.0048 -0.5782
10264TIP3    H154987   3.467   6.189   8.532 -0.4748 -1.2239  1.9007
10264TIP3    H254988   3.327   6.241   8.509  0.9879  1.1480 -2.8680
10265TIP3   OH254989   2.460   4.168   6.649 -0.1618 -0.0399  0.2079
10265TIP3    H154990   2.465   4.077   6.618 -0.4084  0.3548 -1.0686
10265TIP3    H254991   2.532   4.212   6.603 -0.1170  0.4362  0.7260
10266TIP3   OH254992   4.623   3.159   6.858 -0.4691 -0.3761  0.6455
10266TIP3    H154993   4.576   3.082   6.825  0.6838 -0.7317 -0.2252
10266TIP3    H254994   4.554   3.221   6.880 -1.3463 -0.3491 -1.8835
10267TIP3   OH254995   0.864   0.020   1.410 -0.1518  0.2628 -0.0584
10267TIP3    H154996   0.826   0.103   1.380  1.1158  0.8665 -0.0545
10267TIP3    H254997   0.809  -0.047   1.370 -3.0609  1.0405  2.2503
10268TIP3   OH254998   5.750   6.486   1.821  0.7006 -0.0672  0.0710
10268TIP3    H154999   5.702   6.428   1.880 -0.4428  0.6324 -0.1436
10268TIP3    H255000   5.746   6.442   1.736  0.9406 -0.2835  0.1693
10269TIP3   OH255001   1.682   1.293   1.353  0.1190 -0.6926 -0.8711
10269TIP3    H155002   1.741   1.295   1.429 -0.3482 -0.2850 -0.5144
10269TIP3    H255003   1.738   1.269   1.280  0.6427 -0.7555 -0.4548
10270TIP3   OH255004   0.590   2.600   2.754 -0.8846 -0.3696  0.0595
10270TIP3    H155005   0.563   2.554   2.833  1.7836  0.0711  1.3322
10270TIP3    H255006   0.648   2.537   2.709  0.1189  0.4953  0.1074
10271TIP3   OH255007   4.457   1.040   8.104  0.1758 -1.1995  0.3409
10271TIP3    H155008   4.548   1.037   8.132  0.3173  1.3475  0.3718
10271TIP3    H255009   4.409   0.999   8.176  1.2632 -2.8226  0.2006
10272TIP3   OH255010   5.064   4.943   0.578  0.0797  0.3127  0.1726
10272TIP3    H155011   5.039   5.035   0.580  0.6597  0.5137 -0.9629
10272TIP3    H255012   4.989   4.899   0.537 -0.0274  0.3431  0.3377
10273TIP3   OH255013   2.155   6.482   9.576  0.6847 -0.2641 -0.3691
10273TIP3    H155014   2.224   6.545   9.557  0.0573  0.8150  0.7262
10273TIP3    H255015   2.121   6.456   9.490  2.3271 -0.7160 -0.9177
10274TIP3   OH255016   3.713   2.744   9.461 -0.0446 -0.0928 -0.7001
10274TIP3    H155017   3.699   2.762   9.368 -2.1064  0.1570 -0.3811
10274TIP3    H255018   3.743   2.653   9.464 -2.3012 -0.9109 -1.4854
10275TIP3   OH255019   2.797   3.410   8.599  0.2712 -0.0051  0.2983
10275TIP3    H155020   2.714   3.458   8.600  0.7396  0.8174  0.4367
10275TIP3    H255021   2.772   3.320   8.622 -0.8460 -0.2437 -1.5832
10276TIP3   OH255022   5.003   3.091   6.586  0.3678  0.2031 -0.1892
10276TIP3    H155023   5.042   3.076   6.672 -0.9280 -0.0749  0.3657
10276TIP3    H255024   4.960   3.009   6.564  0.8890  0.1827 -1.2339
10277TIP3   OH255025   5.716   3.001   9.110 -0.3440  0.3291  0.0267
10277TIP3    H155026   5.749   3.059   9.178  1.3032 -0.2735 -0.2222
10277TIP3    H255027   5.697   3.059   9.036  1.9455  0.5488 -0.4636
10278TIP3   OH255028   3.568   4.313   1.950  0.8029 -0.1919  0.4369
10278TIP3    H155029   3.614   4.235   1.981 -0.8020 -0.1277  3.2814
10278TIP3    H255030   3.625   4.386   1.975  1.2038 -0.3036 -0.1181
10279TIP3   OH255031   6.934   7.119   8.603 -0.1905  0.2018 -0.5746
10279TIP3    H155032   6.853   7.068   8.598  0.0906 -0.1707 -1.4828
10279TIP3    H255033   7.003   7.057   8.581  0.4515  0.3045  1.0166
10280TIP3   OH255034   3.643   4.512   1.692  0.7285 -0.1046 -0.0855
10280TIP3    H155035   3.630   4.419   1.713 -0.1246  0.0161 -0.0388
10280TIP3    H255036   3.654   4.513   1.597  1.5973 -0.3360  0.0030
10281TIP3   OH255037   3.326   4.378   2.726  0.0144  0.2027  0.2675
10281TIP3    H155038   3.334   4.351   2.818  0.8148 -0.6828 -0.0414
10281TIP3    H255039   3.361   4.304   2.677  3.2476  2.1293 -0.6204
10282TIP3   OH255040   6.133   2.938   7.909 -0.3725 -0.9492  0.1788
10282TIP3    H155041   6.159   2.946   7.817 -0.4364  1.6812  0.3374
10282TIP3    H255042   6.210   2.964   7.958 -1.0040 -0.2592  0.8165
10283TIP3   OH255043   2.190   2.802   6.804 -0.1006 -0.0663  0.3817
10283TIP3    H155044   2.098   2.801   6.833 -0.4567  0.9426 -0.6663
10283TIP3    H255045   2.205   2.891   6.773  0.8263 -0.5816 -0.7329
10284TIP3   OH255046   5.126   6.016   6.853 -0.5115 -0.4800 -0.3499
10284TIP3    H155047   5.212   5.985   6.883  0.3250 -0.6673 -2.7396
10284TIP3    H255048   5.142   6.105   6.821 -2.0057  0.9124  2.3770
10285TIP3   OH255049   3.102   3.858   8.857  0.1576  0.1332  0.4227
10285TIP3    H155050   3.011   3.850   8.827  0.5103  1.9098 -1.3817
10285TIP3    H255051   3.126   3.770   8.885 -1.8920 -0.5246  0.2922
10286TIP3   OH255052   2.690   5.379   8.111  0.7697  0.0791  0.0353
10286TIP3    H155053   2.733   5.424   8.184  0.5690 -0.0650  0.2449
10286TIP3    H255054   2.695   5.286   8.133 -0.2574  0.0939  0.4095
10287TIP3   OH255055   2.237   4.672   2.915 -0.4958 -0.2254  0.2815
10287TIP3    H155056   2.313   4.700   2.967 -0.8172 -2.7571  2.3167
10287TIP3    H255057   2.163   4.719   2.953 -0.2029  1.0747 -0.6938
10288TIP3   OH255058   2.180   5.406   2.298  0.1270 -0.1742 -0.2600
10288TIP3    H155059   2.116   5.392   2.368 -1.0798  0.8133 -1.1132
10288TIP3    H255060   2.249   5.458   2.338 -0.5739  0.4275  0.1993
10289TIP3   OH255061   5.167   5.496   2.368  0.2613 -0.3730 -0.6665
10289TIP3    H155062   5.254   5.468   2.340  0.0799 -1.0624 -0.5446
10289TIP3    H255063   5.148   5.572   2.313  1.2019  0.1785 -0.2550
10290TIP3   OH255064   7.259   0.678   7.628  0.3287  0.1328 -0.1830
10290TIP3    H155065   7.252   0.591   7.588  1.4952  0.5783 -1.4316
10290TIP3    H255066   7.334   0.671   7.687 -0.3433 -0.0378  0.6749
10291TIP3   OH255067   5.639   1.108   2.320  0.3577 -0.1142 -0.0396
10291TIP3    H155068   5.630   1.056   2.400 -2.4479 -1.9000 -1.3281
10291TIP3    H255069   5.592   1.189   2.339  0.0235 -0.3723  0.2718
10292TIP3   OH255070   7.153   1.381   0.648 -0.1964 -0.0944  0.2268
10292TIP3    H155071   7.206   1.317   0.695  0.6424  1.2295  1.1506
10292TIP3    H255072   7.183   1.375   0.557 -0.0832 -0.9337  0.3066
10293TIP3   OH255073   6.636   3.386   9.055 -0.1346 -0.5840 -1.0143
10293TIP3    H155074   6.595   3.460   9.101  1.0241  0.1455 -1.1130
10293TIP3    H255075   6.567   3.353   8.997 -0.4301  0.9790 -1.6180
10294TIP3   OH255076   6.006   0.173   0.093 -0.4073  0.0102  0.1150
10294TIP3    H155077   6.002   0.094   0.147 -0.7279  0.1066  0.2324
10294TIP3    H255078   5.935   0.228   0.125 -0.0663  0.4301  0.1627
10295TIP3   OH255079   7.379   5.147   9.370  0.6204 -0.3380 -0.7371
10295TIP3    H155080   7.425   5.209   9.313  0.2309  0.9065  0.2309
10295TIP3    H255081   7.291   5.142   9.333  0.6277 -0.2303 -0.7710
10296TIP3   OH255082   1.138   5.920   1.203 -0.1746 -0.5785  0.0362
10296TIP3    H155083   1.085   5.952   1.276  0.8632  1.8301 -0.1731
10296TIP3    H255084   1.228   5.944   1.227  0.3658 -1.1774 -1.3101
10297TIP3   OH255085   4.103   5.590   1.059  0.2189 -0.0616 -0.5011
10297TIP3    H155086   4.018   5.551   1.081  1.3045 -2.6026 -0.3605
10297TIP3    H255087   4.162   5.556   1.127  1.4751  1.0805 -0.9934
10298TIP3   OH255088   2.795   5.774   0.093  0.2828  0.1025 -0.0973
10298TIP3    H155089   2.835   5.744   0.011  0.1697  0.5495 -0.3162
10298TIP3    H255090   2.870   5.797   0.148  0.3887 -0.9329  0.2169
10299TIP3   OH255091   6.740   4.704   8.772 -0.0212  0.2891  0.0072
10299TIP3    H155092   6.650   4.683   8.747 -0.6638  1.8329  0.9369
10299TIP3    H255093   6.792   4.632   8.735 -1.5751 -0.4437 -0.8478
10300TIP3   OH255094   7.418   6.843   9.334  0.4846 -0.1424 -0.1471
10300TIP3    H155095   7.372   6.797   9.404  0.7992 -0.5676 -0.2181
10300TIP3    H255096   7.351   6.899   9.294  0.1745 -0.3097  0.1341
10301TIP3   OH255097   0.426   5.045   8.713 -0.4131 -0.3529  0.2379
10301TIP3    H155098   0.488   5.112   8.687 -0.3883  0.3827  2.0309
10301TIP3    H255099   0.378   5.023   8.633  1.9304 -0.7574 -1.1364
10302TIP3   OH255100   5.388   6.369   7.957  0.1466  0.3473 -0.5416
10302TIP3    H155101   5.369   6.357   8.050  2.4726 -3.2386 -0.3511
10302TIP3    H255102   5.439   6.450   7.953 -0.3635  0.7848  1.2208
10303TIP3   OH255103   6.271   6.192   2.840  0.5041 -0.4756  0.3257
10303TIP3    H155104   6.263   6.253   2.913  2.6856 -0.2623  0.4341
10303TIP3    H255105   6.198   6.214   2.782  0.6950  1.5960  0.8144
10304TIP3   OH255106   0.004   4.393   9.076 -0.3189 -0.8174  0.1309
10304TIP3    H155107   0.073   4.455   9.100 -0.8253 -0.6276  1.1266
10304TIP3    H255108  -0.076   4.446   9.075 -0.6944 -1.3675  0.6010
10305TIP3   OH255109   6.201   1.852   8.475  0.2616  0.0377 -0.2860
10305TIP3    H155110   6.165   1.911   8.542 -2.9622 -0.3871 -1.4938
10305TIP3    H255111   6.222   1.909   8.401 -2.1129 -0.1480 -1.1608
10306TIP3   OH255112   0.728   1.753   7.819 -0.6913 -0.5745 -0.0716
10306TIP3    H155113   0.675   1.747   7.740  0.1704 -0.2648 -0.6914
10306TIP3    H255114   0.736   1.847   7.836  0.1333 -0.5851 -0.3296
10307TIP3   OH255115   1.970   3.214   1.234  0.1898 -0.5335 -0.4514
10307TIP3    H155116   1.934   3.299   1.258  0.8360 -0.8213  1.8331
10307TIP3    H255117   1.900   3.170   1.186 -1.2646  0.1870  0.9230
10308TIP3   OH255118   1.214   1.055   0.541 -0.4745  0.3620 -0.1904
10308TIP3    H155119   1.264   1.135   0.527  0.9808 -0.0555  2.0264
10308TIP3    H255120   1.154   1.077   0.613 -0.0928 -0.4864  0.4078
10309TIP3   OH255121   3.059   6.361   1.100 -0.6412 -0.1981 -0.1965
10309TIP3    H155122   3.101   6.336   1.183 -0.4897  0.7538  0.0278
10309TIP3    H255123   3.131   6.363   1.037  0.4280  4.4148  0.7943
10310TIP3   OH255124   4.080   5.352   1.279 -0.7765 -0.5668  0.7896
10310TIP3    H155125   4.056   5.267   1.314 -1.3813  0.2084  2.3775
10310TIP3    H255126   4.034   5.358   1.196 -1.5807 -1.3568  1.1671
10311TIP3   OH255127   4.134   3.483   8.753 -0.0154  0.3858  0.1522
10311TIP3    H155128   4.110   3.394   8.778  0.2415  0.7482  1.7918
10311TIP3    H255129   4.127   3.484   8.657 -1.0096 -1.0941  0.1851
10312TIP3   OH255130   1.780   6.022   1.518 -0.0335 -0.2359  0.2659
10312TIP3    H155131   1.776   6.091   1.452  0.5241  0.6626  1.1511
10312TIP3    H255132   1.800   6.067   1.599  2.3812 -1.6521  0.5385
10313TIP3   OH255133   5.738   5.024   1.761  0.4531  0.2502  0.5656
10313TIP3    H155134   5.739   4.968   1.683  2.8174  0.5735  0.2593
10313TIP3    H255135   5.766   4.966   1.832 -2.4038 -0.2303  1.4199
10314TIP3   OH255136   1.499   0.195   7.337  0.1128 -0.2194  0.6022
10314TIP3    H155137   1.503   0.112   7.290 -1.1721  1.1375 -2.1135
10314TIP3    H255138   1.413   0.194   7.380 -0.1496 -0.0552  0.0830
10315TIP3   OH255139   6.858   5.160   9.355 -0.3081 -0.5671  0.3741
10315TIP3    H155140   6.871   5.189   9.445  2.1190 -2.0030  0.5633
10315TIP3    H255141   6.807   5.079   9.363 -0.1706 -0.6464  0.4351
10316TIP3   OH255142   7.179   0.817   2.027 -0.3896 -0.2021 -0.1627
10316TIP3    H155143   7.251   0.879   2.015  0.2130 -0.5673  1.2987
10316TIP3    H255144   7.124   0.857   2.094 -2.6454  0.9530 -2.5076
10317TIP3   OH255145   2.418   6.937   9.594  0.4981 -0.2964 -0.1486
10317TIP3    H155146   2.428   6.990   9.673 -1.4886 -2.6430  1.8690
10317TIP3    H255147   2.506   6.903   9.577  0.5980 -1.6870  2.6353
10318TIP3   OH255148   0.631   4.240   8.948  0.0604  0.1673 -0.0759
10318TIP3    H155149   0.706   4.300   8.950  0.7149 -0.6443  0.3613
10318TIP3    H255150   0.560   4.289   8.989  1.2170 -0.1563  2.5090
10319TIP3   OH255151   4.470   4.674   9.159 -0.2472 -0.6372 -0.1603
10319TIP3    H155152   4.375   4.683   9.155 -0.3169 -1.3830 -0.4130
10319TIP3    H255153   4.503   4.763   9.170 -0.9255 -0.2631 -1.0457
10320TIP3   OH255154   0.612   7.350   7.992 -0.6318 -0.3002 -0.2595
10320TIP3    H155155   0.556   7.300   8.051 -1.4896  0.1318 -0.6829
10320TIP3    H255156   0.611   7.439   8.028  1.0704 -0.5954  0.6231
10321TIP3   OH255157   3.971   4.439   7.262 -0.1232 -0.0085 -0.1637
10321TIP3    H155158   4.049   4.433   7.317 -1.6465 -1.5091  2.0095
10321TIP3    H255159   3.911   4.496   7.311 -0.9876 -0.1633 -0.9988
10322TIP3   OH255160   7.322   4.310   0.723  0.0894 -0.0314 -0.4353
10322TIP3    H155161   7.281   4.393   0.700 -0.9812 -0.5771 -0.5382
10322TIP3    H255162   7.251   4.246   0.721  1.1058 -1.1849 -1.5452
10323TIP3   OH255163   3.891   3.859   7.408  0.0899 -0.0352  0.4916
10323TIP3    H155164   3.942   3.864   7.327 -0.4181 -0.2511  0.1541
10323TIP3    H255165   3.850   3.945   7.416  1.0022  0.3604  1.1026
10324TIP3   OH255166   2.625   3.435   8.318 -0.0661 -0.3561 -0.4354
10324TIP3    H155167   2.601   3.445   8.410 -1.6718 -0.7421 -0.7804
10324TIP3    H255168   2.647   3.523   8.289  0.5978 -0.2561  0.3454
10325TIP3   OH255169   1.932   0.092   6.529  0.1984 -0.4769 -0.2561
10325TIP3    H155170   1.985   0.123   6.602  1.3136  0.4936 -1.4140
10325TIP3    H255171   1.959   0.001   6.517  1.7303  0.0286 -0.8856
10326TIP3   OH255172   1.900   4.322   3.162 -0.0450  0.1950  0.2373
10326TIP3    H155173   1.957   4.246   3.151  3.0368  2.0975  1.8581
10326TIP3    H255174   1.921   4.379   3.089 -2.6015 -0.5212 -1.1714
10327TIP3   OH255175   5.485   4.139   0.438 -0.0950  0.6151  0.1805
10327TIP3    H155176   5.454   4.060   0.392  1.7158  0.8044 -1.4858
10327TIP3    H255177   5.536   4.187   0.372 -2.0803  3.8306  0.7684
10328TIP3   OH255178   6.895   6.464   9.305 -0.6480 -0.1791  0.3637
10328TIP3    H155179   6.839   6.432   9.234  0.0280 -0.6863  0.0443
10328TIP3    H255180   6.931   6.546   9.272 -1.5051  0.3574  0.7318
10329TIP3   OH255181   4.905   1.431   6.583  0.0674  0.0790 -0.5039
10329TIP3    H155182   4.843   1.415   6.654  0.2504 -0.6621 -0.5045
10329TIP3    H255183   4.904   1.350   6.532 -2.1205  1.4750 -2.9822
10330TIP3   OH255184   2.232   1.682   8.948 -0.1468 -0.5189  0.6331
10330TIP3    H155185   2.189   1.758   8.987 -0.7696  0.8166 -2.3658
10330TIP3    H255186   2.173   1.655   8.878  2.7129 -0.0836 -2.1449
10331TIP3   OH255187   0.340   4.168   2.552 -0.4777 -0.8776 -0.3749
10331TIP3    H155188   0.328   4.146   2.459  0.1133  0.2261 -0.7328
10331TIP3    H255189   0.331   4.263   2.555  1.8027 -0.6210  0.3137
10332TIP3   OH255190   1.523   1.322   1.863  0.1077 -0.1864 -0.2027
10332TIP3    H155191   1.572   1.295   1.786 -0.6315  0.2546 -0.8474
10332TIP3    H255192   1.504   1.241   1.910  2.1885 -0.2943  0.5478
10333TIP3   OH255193   5.662   4.104   0.183 -0.1514 -0.0227 -0.1618
10333TIP3    H155194   5.673   4.193   0.216 -1.6169 -0.3627  1.4178
10333TIP3    H255195   5.736   4.091   0.123 -0.5440  2.6414 -1.3902
10334TIP3   OH255196   3.309   6.576   0.278 -0.4512  0.7285 -0.1731
10334TIP3    H155197   3.360   6.546   0.203 -2.0611 -1.8054 -0.3501
10334TIP3    H255198   3.324   6.509   0.345 -1.4087  1.3724  0.7092
10335TIP3   OH255199   6.245   5.289   0.797 -0.4285 -0.0457 -0.2035
10335TIP3    H155200   6.262   5.222   0.863 -0.6784 -0.8130 -0.8990
10335TIP3    H255201   6.230   5.369   0.847 -1.4925 -0.7917  0.7205
10336TIP3   OH255202   6.086   3.933   2.036 -0.8349  0.1864  0.2371
10336TIP3    H155203   6.084   3.909   1.943 -1.4442 -0.2186  0.3476
10336TIP3    H255204   6.018   4.000   2.044 -1.3840 -0.3992  0.5523
10337TIP3   OH255205   1.918   4.450   9.272 -0.3194 -0.5053  0.2920
10337TIP3    H155206   1.978   4.516   9.307  0.9489 -1.0703 -0.7246
10337TIP3    H255207   1.831   4.483   9.292  0.2776  1.5112 -0.2649
10338TIP3   OH255208   2.912   0.848   1.415 -0.0366  0.8479  0.1623
10338TIP3    H155209   2.842   0.790   1.445  0.7922  0.2737  1.0030
10338TIP3    H255210   2.988   0.823   1.466  0.9315  1.1298 -1.0829
10339TIP3   OH255211   5.042   7.315   8.647  0.3886  0.2461  0.5488
10339TIP3    H155212   5.135   7.321   8.668  0.2515  2.0738  0.7300
10339TIP3    H255213   4.997   7.344   8.726 -0.3360 -0.3134  0.3500
10340TIP3   OH255214   1.530   5.456   8.773 -0.2934  0.3982  0.7070
10340TIP3    H155215   1.513   5.362   8.780  1.2021  0.1484  1.1874
10340TIP3    H255216   1.600   5.473   8.836 -0.0449  1.7037  0.1075
10341TIP3   OH255217   5.480   6.121   8.155 -0.7380  0.2403  0.0120
10341TIP3    H155218   5.435   6.046   8.194 -0.4674 -0.5738 -1.1666
10341TIP3    H255219   5.493   6.095   8.063  2.1009  0.4189  0.2745
10342TIP3   OH255220   0.489   3.852   0.123 -0.1202  0.1551  0.1362
10342TIP3    H155221   0.435   3.778   0.150 -3.0834  1.7749 -0.8903
10342TIP3    H255222   0.520   3.828   0.035  0.0036 -0.4007  0.3282
10343TIP3   OH255223   1.120   4.682   1.628  0.3670  0.1492 -0.1952
10343TIP3    H155224   1.161   4.601   1.597  0.8685  0.5685 -0.6544
10343TIP3    H255225   1.192   4.745   1.633 -0.0692  0.6509 -0.1482
10344TIP3   OH255226   6.744   0.000   1.018 -0.2838  0.4244 -0.0657
10344TIP3    H155227   6.833   0.008   1.054  0.2306  2.4767 -1.6127
10344TIP3    H255228   6.687   0.005   1.095  0.8637  2.1663  0.7511
10345TIP3   OH255229   4.056   2.589   9.584 -0.3144  0.1454 -0.3013
10345TIP3    H155230   3.973   2.541   9.580  0.1342 -0.8350  1.1100
10345TIP3    H255231   4.105   2.560   9.508  0.7357 -3.3027  1.4786
10346TIP3   OH255232   6.822   1.781   9.330  0.0652  0.1025  0.2082
10346TIP3    H155233   6.808   1.818   9.243  1.5821  1.0191  0.3130
10346TIP3    H255234   6.906   1.736   9.325 -0.4198 -0.9144  0.8727
10347TIP3   OH255235   1.408   6.470   6.596 -0.1986 -0.6304  0.3766
10347TIP3    H155236   1.411   6.526   6.519 -1.4679 -3.4070 -1.8504
10347TIP3    H255237   1.363   6.522   6.662  0.0049  1.4695 -1.0621
10348TIP3   OH255238   6.761   0.294   8.562 -0.2151 -0.2568 -0.5764
10348TIP3    H155239   6.747   0.389   8.559  0.9738  0.1113  2.0804
10348TIP3    H255240   6.677   0.258   8.587 -0.2819  0.2818  0.0061
10349TIP3   OH255241   3.123   4.692   8.564  0.0183  0.2216  0.1588
10349TIP3    H155242   3.033   4.665   8.583  0.0325 -2.3100 -2.7350
10349TIP3    H255243   3.166   4.692   8.650 -2.3397  0.1205  1.4381
10350TIP3   OH255244   5.604   5.941   0.458 -0.3374 -0.5516  0.3832
10350TIP3    H155245   5.603   5.994   0.538 -0.2299 -1.7817  1.2346
10350TIP3    H255246   5.597   5.851   0.490 -0.6534 -1.0454 -1.0269
10351TIP3   OH255247   4.603   4.952   9.256 -0.0081 -0.1038  0.1917
10351TIP3    H155248   4.680   5.006   9.234  0.2444 -0.4996  0.1028
10351TIP3    H255249   4.553   5.006   9.317  0.6407 -0.0827  0.7193
10352TIP3   OH255250   4.036   6.619   7.307  0.6720 -0.0974 -0.2704
10352TIP3    H155251   4.026   6.593   7.216 -0.3366 -1.6330  0.2331
10352TIP3    H255252   4.125   6.654   7.313  1.5628 -2.0032 -1.4061
10353TIP3   OH255253   6.942   6.023   7.690  0.4976 -0.3417 -0.8141
10353TIP3    H155254   7.012   6.017   7.755  2.5154 -2.0561 -2.9639
10353TIP3    H255255   6.883   6.091   7.723  2.9497  0.8859  1.3199
10354TIP3   OH255256   5.417   4.140   8.371  0.2488 -0.0308  0.2777
10354TIP3    H155257   5.357   4.213   8.389  0.1267  0.0189 -0.3331
10354TIP3    H255258   5.492   4.156   8.428  0.4789  0.8886 -0.2706
10355TIP3   OH255259   4.154   1.626   1.733  0.0374 -0.4177 -0.0996
10355TIP3    H155260   4.225   1.575   1.693  0.3916  1.0742 -1.4990
10355TIP3    H255261   4.105   1.562   1.785  0.1209 -2.3178 -2.1806
10356TIP3   OH255262   0.193   6.827   8.043  0.4639  0.1448 -0.3568
10356TIP3    H155263   0.216   6.900   7.985  2.7340  2.0437  2.5592
10356TIP3    H255264   0.251   6.839   8.119 -2.8741 -1.5064  2.7583
10357TIP3   OH255265   0.078   7.208   1.385  0.0228  0.0476 -0.3228
10357TIP3    H155266   0.119   7.289   1.416  1.6057 -1.0024  0.4782
10357TIP3    H255267   0.094   7.208   1.291  0.4654  0.4222 -0.2517
10358TIP3   OH255268   0.085   3.920   8.316  0.4288 -0.3622  0.4133
10358TIP3    H155269   0.122   3.836   8.342 -1.0143 -1.0859  0.2402
10358TIP3    H255270   0.157   3.982   8.325  1.9504 -1.8506 -0.8665
10359TIP3   OH255271   4.873   4.483   8.074 -0.3473 -0.1549 -0.0104
10359TIP3    H155272   4.857   4.539   8.150  0.9051 -0.6231  0.6229
10359TIP3    H255273   4.818   4.520   8.004 -0.1154  1.3927  0.6055
10360TIP3   OH255274   2.782   0.390   7.679  0.1238 -0.6485 -0.2061
10360TIP3    H155275   2.700   0.362   7.638  1.7824 -2.7592 -2.2872
10360TIP3    H255276   2.789   0.336   7.758 -1.2341  0.7793  0.9829
10361TIP3   OH255277   3.227   2.549   9.032 -0.1924 -0.1928  0.3398
10361TIP3    H155278   3.304   2.505   8.997 -0.5144  0.0439 -0.6857
10361TIP3    H255279   3.228   2.636   8.992  0.4221  0.7610  2.3239
10362TIP3   OH255280   6.202   0.926   6.592  0.5859  0.1311  0.2819
10362TIP3    H155281   6.142   0.869   6.545  0.6440  0.4571 -0.1956
10362TIP3    H255282   6.147   0.996   6.627  0.5728 -0.0004  0.5309
10363TIP3   OH255283   0.422   2.911   1.285  0.0405  1.0055  0.1398
10363TIP3    H155284   0.363   2.836   1.285  1.6132 -0.2983 -1.1425
10363TIP3    H255285   0.497   2.884   1.339  0.8898  1.4020 -0.7899
10364TIP3   OH255286   1.033   0.959   2.759 -0.0335  0.3579 -0.4898
10364TIP3    H155287   1.057   0.872   2.789 -2.6164  0.1554  1.3409
10364TIP3    H255288   1.114   1.009   2.761  0.9525 -1.1839  1.5461
10365TIP3   OH255289   2.788   6.415   1.227 -0.6278 -0.2981  0.2461
10365TIP3    H155290   2.846   6.450   1.159 -0.7169  1.6246  1.0898
10365TIP3    H255291   2.802   6.320   1.224  1.3689 -0.0315 -0.6331
10366TIP3   OH255292   2.436   5.493   2.823 -0.2850  0.1005 -0.2911
10366TIP3    H155293   2.387   5.543   2.888 -0.2438 -1.5002  1.0288
10366TIP3    H255294   2.370   5.462   2.761 -0.7544 -0.6835  0.5728
10367TIP3   OH255295   6.764   6.458   9.616  0.0181 -0.3716 -0.0507
10367TIP3    H155296   6.824   6.501   9.556 -0.3472 -0.4994 -0.5122
10367TIP3    H255297   6.739   6.377   9.571  0.1327 -0.7139  0.4905
10368TIP3   OH255298   1.292   0.379   2.423 -0.5670  0.5103  0.5409
10368TIP3    H155299   1.388   0.380   2.422 -0.5236 -0.9180 -0.5928
10368TIP3    H255300   1.269   0.286   2.423 -1.9726  0.8255  1.3340
10369TIP3   OH255301   3.186   1.564   8.286 -0.3928 -0.0646 -0.1625
10369TIP3    H155302   3.276   1.596   8.293  0.2997 -2.1059  1.2253
10369TIP3    H255303   3.175   1.508   8.363 -2.6769 -0.2832 -0.5952
10370TIP3   OH255304   3.416   5.202   9.066 -0.4352 -0.6993  0.2007
10370TIP3    H155305   3.472   5.214   9.143 -1.1338 -0.4141  0.6784
10370TIP3    H255306   3.327   5.211   9.100 -0.7796 -1.3087 -0.5174
10371TIP3   OH255307   3.183   0.339   9.178  0.3399  0.3443  0.1250
10371TIP3    H155308   3.248   0.398   9.216  0.3872  0.5829 -0.3081
10371TIP3    H255309   3.125   0.397   9.128  0.5625 -0.0050 -0.5503
10372TIP3   OH255310   0.185   3.739   7.169  0.2289  0.1198 -0.4137
10372TIP3    H155311   0.199   3.815   7.113  0.7683 -0.7316 -1.4581
10372TIP3    H255312   0.114   3.690   7.128  0.9094 -0.7307 -0.6020
10373TIP3   OH255313   6.424   1.769   2.460 -0.2368  0.1732 -0.0222
10373TIP3    H155314   6.505   1.818   2.475  0.6091 -1.1353 -0.0319
10373TIP3    H255315   6.357   1.816   2.508  0.4407  1.5694 -0.4111
10374TIP3   OH255316   6.641   1.323   2.592 -0.0237 -0.1656  0.2651
10374TIP3    H155317   6.701   1.368   2.532 -2.3374  1.6433 -0.8487
10374TIP3    H255318   6.565   1.301   2.538 -0.4191 -2.4651  1.6109
10375TIP3   OH255319   6.356   7.345   2.624  0.2441 -0.0288  0.1331
10375TIP3    H155320   6.318   7.257   2.621 -0.3245  0.2041  0.4494
10375TIP3    H255321   6.318   7.385   2.701 -1.2780  1.2953 -1.2404
10376TIP3   OH255322   0.673   7.128   9.393 -0.5905  0.1382 -0.0196
10376TIP3    H155323   0.715   7.063   9.337 -0.0480  0.0996  0.4193
10376TIP3    H255324   0.696   7.212   9.353 -0.1709  0.1127  0.1584
10377TIP3   OH255325   3.537   2.609   1.855  0.4170  0.1735 -0.3082
10377TIP3    H155326   3.497   2.662   1.923  0.7440  0.2962 -0.2090
10377TIP3    H255327   3.599   2.552   1.901 -0.5856 -0.9414 -0.3068
10378TIP3   OH255328   1.804   5.032   7.502  0.4299 -0.1094  0.6882
10378TIP3    H155329   1.866   5.006   7.435 -2.2451 -1.2549 -1.5289
10378TIP3    H255330   1.807   4.961   7.567  0.5225 -0.7662 -0.0296
10379TIP3   OH255331   1.022   0.055   8.941 -0.0098 -0.7863 -0.1734
10379TIP3    H155332   1.115   0.048   8.964  0.8981  0.9875 -2.8150
10379TIP3    H255333   0.986   0.115   9.006  1.1509 -0.1325 -0.0929
10380TIP3   OH255334   6.156   4.768   1.188  0.3089  0.8853 -0.9958
10380TIP3    H155335   6.156   4.745   1.095 -0.3647 -0.2002 -0.7447
10380TIP3    H255336   6.105   4.699   1.230  0.3045  1.5499  0.1416
10381TIP3   OH255337   7.321   7.326   7.838  0.0656  0.2360 -0.2589
10381TIP3    H155338   7.389   7.285   7.891 -0.3545  0.1729  0.2445
10381TIP3    H255339   7.251   7.347   7.900  0.3121  1.8305 -0.4939
10382TIP3   OH255340   3.334   5.754   6.492 -0.1934  0.3109  0.1291
10382TIP3    H155341   3.402   5.693   6.462 -2.4197 -2.0720 -0.4667
10382TIP3    H255342   3.302   5.714   6.573 -0.9244  1.3727  0.3741
10383TIP3   OH255343   4.912   3.032   7.453  0.0091 -0.3903 -0.6135
10383TIP3    H155344   4.944   2.942   7.447  0.1667 -0.3927  0.2079
10383TIP3    H255345   4.969   3.082   7.395 -0.9433 -1.0378 -2.1827
10384TIP3   OH255346   2.819   6.292   2.016  0.7934  0.4284  0.5383
10384TIP3    H155347   2.907   6.266   1.990  0.8579 -0.3227  1.4458
10384TIP3    H255348   2.762   6.221   1.985  0.6483  0.3930  0.8795
10385TIP3   OH255349   7.268   0.360   8.789  0.2615 -0.2735 -0.3382
10385TIP3    H155350   7.362   0.370   8.772 -0.0702  1.2099 -1.5047
10385TIP3    H255351   7.251   0.267   8.776  1.4538 -0.4535 -0.7549
10386TIP3   OH255352   6.074   0.526   6.397  0.2121 -0.0152 -0.6653
10386TIP3    H155353   6.115   0.592   6.342 -2.9639  1.7808 -1.1612
10386TIP3    H255354   6.013   0.481   6.338 -1.2008  0.0217  0.7008
10387TIP3   OH255355   3.031   6.779   9.208  0.0291  0.0256 -0.1772
10387TIP3    H155356   3.034   6.687   9.184  1.7803  0.0828 -0.3157
10387TIP3    H255357   2.941   6.794   9.236 -0.3444 -1.6566 -0.3853
10388TIP3   OH255358   5.359   3.673   9.417  0.5955 -0.3632  0.1689
10388TIP3    H155359   5.380   3.760   9.450  0.5436  0.4722 -1.8458
10388TIP3    H255360   5.263   3.667   9.424  0.2055  1.1023 -2.6009
10389TIP3   OH255361   6.384   4.549   8.949  0.1254  0.5832 -0.3508
10389TIP3    H155362   6.310   4.548   8.888 -0.8941  2.7333  0.7315
10389TIP3    H255363   6.346   4.524   9.033  1.0606 -0.2358 -0.1602
10390TIP3   OH255364   1.431   3.235   7.730  0.1424  0.1606  0.1568
10390TIP3    H155365   1.468   3.241   7.819  1.7653 -0.4302 -0.4442
10390TIP3    H255366   1.401   3.144   7.723  0.5226  0.0552 -0.0922
10391TIP3   OH255367   1.327   2.523   0.313 -0.1387  0.0040 -0.0455
10391TIP3    H155368   1.407   2.534   0.262 -0.5008 -0.9887 -0.8481
10391TIP3    H255369   1.348   2.561   0.398  0.1781  2.6138 -1.1780
10392TIP3   OH255370   2.837   6.651   1.717 -0.2230 -0.3962 -0.2052
10392TIP3    H155371   2.800   6.611   1.639  1.4849 -3.0699  0.2416
10392TIP3    H255372   2.918   6.692   1.686  0.1457 -0.9293  0.0439
10393TIP3   OH255373   1.908   3.768   1.193  0.1103 -0.0984 -0.1928
10393TIP3    H155374   1.955   3.848   1.168 -0.9932  0.3119 -1.0301
10393TIP3    H255375   1.819   3.797   1.213  0.0004 -0.9612  0.6370
10394TIP3   OH255376   3.782   1.295   0.009  0.3772 -0.1596  0.0033
10394TIP3    H155377   3.723   1.223  -0.013 -1.1415  0.8079  0.6861
10394TIP3    H255378   3.783   1.350  -0.070  0.0156  0.0331  0.1291
10395TIP3   OH255379   2.303   5.974   7.143  0.2998  0.2594 -0.1356
10395TIP3    H155380   2.232   6.033   7.169 -0.2109 -0.9041  1.2884
10395TIP3    H255381   2.275   5.939   7.058  1.3264  3.1066 -1.7531
10396TIP3   OH255382   2.910   6.699   2.842 -0.9010  0.6703  0.3012
10396TIP3    H155383   2.946   6.688   2.754 -0.9081 -1.1394  0.4739
10396TIP3    H255384   2.983   6.732   2.894 -0.8600  1.6320 -0.3463
10397TIP3   OH255385   4.088   5.944   7.893 -0.3196  0.1591 -0.2032
10397TIP3    H155386   4.139   5.994   7.829  0.4816  0.5361  0.7090
10397TIP3    H255387   4.028   6.008   7.931  0.9061  0.5425  1.1744
10398TIP3   OH255388   6.529   1.401   8.527 -0.3668 -0.1821  0.1346
10398TIP3    H155389   6.455   1.462   8.536  2.1883  3.3392 -0.4468
10398TIP3    H255390   6.534   1.384   8.433 -1.1029 -1.3999  0.3024
10399TIP3   OH255391   5.126   7.339   2.874  0.4518 -0.0562 -0.1165
10399TIP3    H155392   5.064   7.267   2.862 -1.2793  1.1506  1.0912
10399TIP3    H255393   5.161   7.355   2.787  0.3251 -1.8446 -0.5410
10400TIP3   OH255394   5.694   5.778   8.926  0.4629  0.3624  0.0982
10400TIP3    H155395   5.743   5.819   8.855 -0.3127 -1.5408 -1.6133
10400TIP3    H255396   5.724   5.824   9.005  2.3237  1.6578 -1.2725
10401TIP3   OH255397   7.310   5.859   7.416 -0.0939 -0.4960  0.1725
10401TIP3    H155398   7.237   5.822   7.466 -2.1651  0.3734 -2.0253
10401TIP3    H255399   7.328   5.942   7.459 -1.1369 -0.2324  0.1265
10402TIP3   OH255400   1.021   5.977   7.832  0.0369 -0.0022 -0.2148
10402TIP3    H155401   0.984   6.061   7.859 -0.3913 -0.2104 -0.1458
10402TIP3    H255402   1.049   5.935   7.914  2.4839  1.0722 -0.3966
10403TIP3   OH255403   3.072   6.110   1.747 -0.3340  0.3644 -0.0857
10403TIP3    H155404   3.076   6.186   1.690  0.3007 -0.6820 -1.5182
10403TIP3    H255405   3.048   6.038   1.688  2.6578 -1.2113  0.4284
10404TIP3   OH255406   6.842   5.082   0.863 -0.4568  0.0339 -0.3360
10404TIP3    H155407   6.787   5.158   0.882  0.2507  0.2388  0.9626
10404TIP3    H255408   6.780   5.012   0.840 -1.2278  0.4432  0.4575
10405TIP3   OH255409   0.361   4.899   2.681  0.5591 -0.0046  0.2315
10405TIP3    H155410   0.349   4.823   2.624  0.7775  0.0806  0.0678
10405TIP3    H255411   0.299   4.964   2.648  0.7819  0.0939 -0.0008
10406TIP3   OH255412   1.920   6.093   7.842 -0.3477 -0.1158  0.3497
10406TIP3    H155413   1.843   6.043   7.871 -1.6509  1.1560 -0.7505
10406TIP3    H255414   1.966   6.034   7.783 -1.7151 -0.1681 -0.7236
10407TIP3   OH255415   4.277   6.000   9.140 -0.0418  0.0562 -0.1591
10407TIP3    H155416   4.340   5.959   9.199 -0.7834 -1.1091 -0.1369
10407TIP3    H255417   4.194   5.994   9.186 -0.4846 -0.1090 -0.9669
10408TIP3   OH255418   0.305   2.038   2.165  0.5712  0.8719 -0.4068
10408TIP3    H155419   0.217   2.046   2.129  0.1610 -1.2100  0.0238
10408TIP3    H255420   0.340   1.958   2.127  1.4820  0.5388  1.0505
10409TIP3   OH255421   3.435   1.262   1.674  0.1792  0.1549 -0.1674
10409TIP3    H155422   3.470   1.186   1.626 -2.3763 -0.5124 -1.1257
10409TIP3    H255423   3.486   1.264   1.755  0.8458 -2.1389 -0.4416
10410TIP3   OH255424   4.350   5.433   0.550  0.3332  0.0990 -0.5720
10410TIP3    H155425   4.350   5.439   0.455  0.3472  1.3936 -0.5036
10410TIP3    H255426   4.350   5.524   0.580  0.6584 -0.2899  0.6629
10411TIP3   OH255427   1.384   1.130   0.293  0.2058 -0.1510 -0.1059
10411TIP3    H155428   1.441   1.088   0.357 -0.6024  0.7205  1.2290
10411TIP3    H255429   1.349   1.058   0.240 -0.5660 -1.1300  1.6492
10412TIP3   OH255430   0.925   4.992   1.895  0.6329 -0.1687  0.6065
10412TIP3    H155431   0.922   5.023   1.804  0.4667 -0.5463  0.4821
10412TIP3    H255432   0.952   4.901   1.889  0.8546 -0.1280  0.9562
10413TIP3   OH255433   5.197   7.329   7.292  0.1336  0.4391  0.5387
10413TIP3    H155434   5.247   7.295   7.366  0.4111  1.3941  0.8061
10413TIP3    H255435   5.189   7.423   7.309  0.0600  0.6502 -0.5629
10414TIP3   OH255436   0.093   3.974   6.742  0.0004 -0.6077 -0.3707
10414TIP3    H155437   0.031   3.939   6.678  0.5687 -1.4432 -0.4890
10414TIP3    H255438   0.142   4.041   6.694  1.0248 -1.8302 -1.1197
10415TIP3   OH255439   7.328   2.406   7.585  0.2981 -0.4887 -0.2307
10415TIP3    H155440   7.281   2.405   7.502 -1.1765  1.9659  0.4787
10415TIP3    H255441   7.336   2.314   7.609  0.0458 -1.2156 -2.6604
10416TIP3   OH255442   6.474   4.684   7.457  0.7512 -0.6254 -0.5812
10416TIP3    H155443   6.531   4.760   7.458  1.3113 -1.0002  1.5108
10416TIP3    H255444   6.386   4.720   7.450  1.1143  0.0498 -2.0794
10417TIP3   OH255445   3.174   0.875   0.781  0.3111 -0.5499 -0.0847
10417TIP3    H155446   3.263   0.881   0.815  0.2925 -1.0151  0.0605
10417TIP3    H255447   3.161   0.956   0.731  1.2336 -1.0055 -1.1089
10418TIP3   OH255448   4.217   4.610   0.322 -0.3674  0.0390  0.6321
10418TIP3    H155449   4.264   4.545   0.375 -0.5786 -1.1449 -0.5892
10418TIP3    H255450   4.135   4.567   0.299 -1.1743  1.3109  1.0048
10419TIP3   OH255451   5.556   1.750   9.047 -0.4186 -0.0681 -0.2721
10419TIP3    H155452   5.634   1.697   9.062 -0.3481  0.1676  0.2107
10419TIP3    H255453   5.508   1.703   8.979 -1.0305 -1.4842  1.0582
10420TIP3   OH255454   6.493   0.661   9.475 -0.1184 -0.1908  0.2548
10420TIP3    H155455   6.428   0.678   9.543  0.7643 -0.0955  1.0920
10420TIP3    H255456   6.533   0.577   9.500  2.5684  1.3964  1.8302
10421TIP3   OH255457   2.121   6.200   2.588  0.5475 -0.6449  0.0185
10421TIP3    H155458   2.188   6.214   2.655 -0.8973  2.7494  0.9714
10421TIP3    H255459   2.038   6.198   2.636 -0.2771 -2.7531 -1.3209
10422TIP3   OH255460   2.729   0.843   1.103  0.2991  0.3814 -0.4783
10422TIP3    H155461   2.656   0.904   1.104  0.1764  0.2296  0.1489
10422TIP3    H255462   2.807   0.899   1.093  0.0617  0.4887 -1.8621
10423TIP3   OH255463   6.053   5.607   9.423 -0.2715 -0.4598  0.1779
10423TIP3    H155464   6.104   5.616   9.343  0.1105  1.1528  0.5735
10423TIP3    H255465   5.978   5.666   9.411 -0.1148 -0.0654  1.0778
10424TIP3   OH255466   5.654   1.793   2.532  0.3830 -0.1138 -0.4649
10424TIP3    H155467   5.564   1.780   2.560 -0.0509  0.5726 -1.4583
10424TIP3    H255468   5.702   1.717   2.566 -0.5610 -0.4750  0.0821
10425TIP3   OH255469   1.948   5.237   0.900 -0.2077 -0.4456  0.2392
10425TIP3    H155470   1.905   5.152   0.907  1.8896 -1.4388  2.5554
10425TIP3    H255471   2.019   5.234   0.964  2.2204  1.7178 -2.0652
10426TIP3   OH255472   3.129   1.028   7.640 -0.1952  0.1692  0.2774
10426TIP3    H155473   3.132   0.933   7.638 -1.3347  0.0910  1.0856
10426TIP3    H255474   3.076   1.052   7.563  0.7072  0.2089 -0.3479
10427TIP3   OH255475   3.075   5.179   8.252 -0.4448  0.1923  0.4578
10427TIP3    H155476   3.015   5.222   8.191 -3.2465 -0.5277  2.5347
10427TIP3    H255477   3.051   5.086   8.249  0.6947 -0.1583  1.2383
10428TIP3   OH255478   5.905   2.101   1.523 -0.1500 -0.4223  0.2394
10428TIP3    H155479   5.871   2.013   1.509  0.9425 -1.0209  1.1956
10428TIP3    H255480   5.871   2.152   1.450  1.3688 -2.2405 -1.8473
10429TIP3   OH255481   7.390   3.674   9.324 -0.3990 -0.0802 -0.4733
10429TIP3    H155482   7.330   3.644   9.393 -1.0949 -0.2995 -1.1556
10429TIP3    H255483   7.380   3.769   9.322  1.1118  0.1477  1.0614
10430TIP3   OH255484   7.201   0.008   2.024  0.2865  0.0037 -0.0042
10430TIP3    H155485   7.198  -0.087   2.010  2.1269  0.0503 -0.9914
10430TIP3    H255486   7.171   0.046   1.941 -1.0967  0.3167  0.6109
10431TIP3   OH255487   6.561   0.571   8.725 -0.4646 -0.0172 -0.1641
10431TIP3    H155488   6.515   0.493   8.694 -1.3058 -1.6887  4.5241
10431TIP3    H255489   6.491   0.630   8.753  0.1468  0.0029  1.4144
10432TIP3   OH255490   0.806   4.438   0.339 -0.1406  0.0173 -0.2445
10432TIP3    H155491   0.722   4.453   0.295 -0.1742 -1.0350 -0.5535
10432TIP3    H255492   0.866   4.411   0.269  0.5477  1.0496 -0.0736
10433TIP3   OH255493   1.856   6.865   2.223  0.2066 -0.3030 -0.5856
10433TIP3    H155494   1.909   6.940   2.195  0.8407 -0.9868 -1.2640
10433TIP3    H255495   1.901   6.830   2.300  1.4231 -1.5538 -1.8032
10434TIP3   OH255496   2.772   6.011   1.635 -0.0609 -0.4301  0.4694
10434TIP3    H155497   2.737   5.969   1.714  0.6117 -0.3696  0.8098
10434TIP3    H255498   2.752   5.950   1.564 -0.1641 -0.7534  0.7748
10435TIP3   OH255499   3.712   4.773   1.215  0.2117 -0.2930 -0.4740
10435TIP3    H155500   3.755   4.798   1.133  0.8134 -0.7404 -0.3051
10435TIP3    H255501   3.780   4.727   1.265 -0.2932 -0.4797  0.0611
10436TIP3   OH255502   0.663   2.619   8.085  0.2981 -0.0927 -0.9293
10436TIP3    H155503   0.742   2.671   8.076  0.0566  0.7240  1.2127
10436TIP3    H255504   0.601   2.659   8.024  0.5413  1.3065 -0.2837
10437TIP3   OH255505   3.327   6.420   9.592  0.5523 -0.2728 -0.2641
10437TIP3    H155506   3.404   6.475   9.608 -0.2585  0.4004  1.6386
10437TIP3    H255507   3.334   6.395   9.500  1.6037  2.0287 -0.8921
10438TIP3   OH255508   4.896   2.399   6.528 -0.2987 -0.0452  0.2477
10438TIP3    H155509   4.956   2.440   6.590  1.2854 -2.3866  0.4104
10438TIP3    H255510   4.818   2.379   6.580 -0.7393  1.7961  0.3690
10439TIP3   OH255511   2.715   5.745   8.667  0.3277  0.1249 -0.2431
10439TIP3    H155512   2.775   5.674   8.645 -1.0732 -0.3747 -2.9346
10439TIP3    H255513   2.759   5.824   8.637  1.2629  0.2866  1.4318
   7.42361   7.42361   9.66555
